36
Energy:   -482.08896544
O   -2.21440919   0.88077186   2.39434436
H   -1.48379110   0.44948300   2.83753616
H   -2.86648220   1.01542174   3.08202310
O    0.14792273   0.34058898  -3.32798009
H   -0.06501773   1.01712382  -2.68518244
H   -0.53008243  -0.32466967  -3.20977780
O   -1.62604288  -1.63382371  -2.49247077
H   -1.86918538  -1.25329653  -1.64848461
H   -2.44742155  -1.97264769  -2.84851463
O   -0.71366979   3.02091846   1.40245284
H    0.11712425   2.79300679   1.81966907
H   -1.34674483   2.40924203   1.77835150
O    0.66495822  -2.86840038  -1.47071321
H    1.35144857  -2.31338212  -1.84073698
H   -0.13243964  -2.60051978  -1.92747187
O    0.51638222  -1.53986336   0.89287467
H    1.08457603  -0.82528632   0.60518161
H    0.59378832  -2.20014632   0.20420454
O    1.51455995   1.80372775   2.43637302
H    1.09107650   1.05637154   2.85869080
H    1.89091373   1.44395806   1.63315733
O    2.36419655  -0.85617094  -2.38766650
H    1.63397615  -0.40657234  -2.81295595
H    3.05778532  -0.86456004  -3.04728464
O   -1.80995746  -0.46391900  -0.00756145
H   -1.03656473  -0.91898617   0.32561928
H   -2.17851041  -0.02442006   0.75875523
O   -0.41333442   1.68912702  -0.94886334
H   -0.52074088   2.35362353  -0.26831937
H   -0.98947521   0.97394811  -0.67902495
O    1.90289739   0.57445208  -0.05380009
H    2.28195094   0.13716857  -0.81625230
H    1.16114728   1.06769252  -0.40416062
O    0.04667925  -0.40278451   3.33291190
H    0.38272142  -0.90787726   4.07330965
H    0.23216199  -0.94669794   2.56741456
