36
Energy:   -475.33077360
O    0.11482921  -2.24160479  -0.19375872
H    0.89022046  -2.78956568  -0.31516353
H    0.07626763  -1.70199634  -0.98342167
O    3.75529072  -0.97164144   0.25848487
H    3.61887444  -0.21003781  -0.30505960
H    3.12442290  -0.86002661   0.96966682
O   -0.07607003   3.05394263  -0.74087449
H   -0.06844488   3.94637946  -1.08689502
H   -0.63118452   2.56557387  -1.34880187
O   -1.76315497   2.27416525   1.31501316
H   -1.14052628   2.64209558   0.68796242
H   -2.40555974   1.81494492   0.77402828
O   -3.31611742   0.62366363  -0.28148981
H   -2.96706005  -0.14983689   0.16132814
H   -4.26085665   0.47390225  -0.31714345
O   -1.60455929   1.46887423  -2.27592944
H   -2.28126532   1.14349921  -1.68226970
H   -1.02498488   0.71950621  -2.41294376
O   -2.19982487  -1.39804522   1.10569466
H   -1.47969379  -1.86047982   0.67697877
H   -1.78937961  -0.94493679   1.84221302
O    0.32766259  -0.49878412  -2.29617566
H    0.92848701   0.05522317  -1.79786072
H    0.85393467  -0.82934899  -3.02418419
O    2.61243292  -3.29016404  -0.59058123
H    3.20720851  -4.01955432  -0.41604278
H    3.11037363  -2.51042324  -0.34503863
O   -0.92281860   0.28570660   2.92251239
H   -1.12426764   0.51051869   3.83086786
H   -1.20092261   1.05056569   2.41864675
O    1.30588885  -0.48564343   1.51239812
H    0.63219885  -0.19018421   2.12483381
H    0.87661824  -1.16558793   0.99313511
O    1.83551519   1.05987843  -0.68376778
H    1.30791153   1.85851256  -0.67671382
H    1.64083500   0.63624675   0.15221528
