36
Energy:   -488.51782237
O   -2.35066879   1.40384186   1.83656899
H   -1.56729620   1.77410294   2.24334408
H   -2.36230635   0.49119873   2.12497657
O    0.89157288   1.71309544   0.14636192
H    0.01010109   1.51853082  -0.17204651
H    0.75862924   2.03983743   1.03619197
O   -1.54040061   0.87939715  -0.70689114
H   -2.00019207   1.18838297   0.07371851
H   -1.41090526  -0.05665973  -0.55437778
O   -0.50736315   0.51873963  -3.27261527
H    0.35918358   0.88918888  -3.10499673
H   -1.03957263   0.80826466  -2.53156185
O   -0.89156629  -1.71309246  -0.14635643
H   -0.75862609  -2.03983579  -1.03618650
H   -0.01009318  -1.51852836   0.17204868
O    1.54041029  -0.87939591   0.70688938
H    2.00019608  -1.18838161  -0.07372366
H    1.41091507   0.05666127   0.55437773
O   -0.17174913  -2.10725854  -2.79452641
H   -0.39856959  -2.63104342  -3.56292327
H   -0.34063377  -1.20372627  -3.06162054
O    1.99061900   1.31906874  -2.34854179
H    1.71870175   1.58817224  -1.47111592
H    2.60320431   1.99899094  -2.62903579
O   -1.99061709  -1.31907048   2.34854409
H   -1.71869692  -1.58817186   1.47111847
H   -2.60319381  -1.99899990   2.62903936
O    0.50736406  -0.51873764   3.27261219
H    1.03957671  -0.80826273   2.53156108
H   -0.35918140  -0.88918868   3.10499106
O    2.35066205  -1.40384530  -1.83657544
H    1.56728758  -1.77410416  -2.24334892
H    2.36229964  -0.49120125  -2.12498013
O    0.17173754   2.10725944   2.79452888
H    0.39854514   2.63104261   3.56293069
H    0.34062589   1.20372726   3.06162096
