36
Energy:   -478.21320519
O   -1.49394663   2.59234513   1.61652479
H   -1.79387701   1.83875929   2.12483768
H   -0.56780251   2.68047873   1.84173890
O    1.27771925   2.40459485   1.98644492
H    1.95566677   3.06094162   2.14715563
H    1.50302693   2.03043656   1.13469738
O    1.51381124   1.06558098  -0.39856596
H    0.58964424   1.21144384  -0.60073231
H    1.88390661   0.71356338  -1.20809970
O   -1.15842901   1.31778510  -0.73661769
H   -1.50152687   1.72790952  -1.53054065
H   -1.40822828   1.91448397  -0.03108056
O   -1.98922958   0.15301545   2.88869848
H   -1.06100120   0.05821095   3.10232437
H   -2.44372724  -0.01281305   3.71463107
O    1.47371925  -2.73475381  -1.47031549
H    1.40056653  -2.33733561  -0.60259473
H    1.98784056  -3.52947314  -1.32772407
O   -1.16107556  -2.16219805  -2.13762558
H   -1.51393719  -1.97526520  -1.26769649
H   -0.28568715  -2.51193492  -1.97145970
O   -0.54912636   0.04798421  -3.59185191
H   -0.80811570  -0.13567556  -4.49486102
H   -0.85308035  -0.71206801  -3.09570229
O   -1.65067123  -1.08523327   0.41127569
H   -1.57278353  -0.25791277  -0.06380972
H   -1.95855520  -0.83386900   1.28205426
O    0.67430387  -0.01703011   3.20467759
H    0.93599921  -0.60173010   2.49342988
H    0.98334888   0.84668340   2.93132432
O    2.03485040  -0.28512027  -2.68968937
H    1.96235729  -1.19515676  -2.40192179
H    1.19254217  -0.09641218  -3.10337759
O    1.02827058  -1.32581573   0.80095828
H    1.29754122  -0.50043598   0.39787834
H    0.07557843  -1.33823202   0.70900525
