9
Energy:    -62.64201584
O    1.00620902  -0.21650038   1.24017984
H    1.79247131  -0.75899238   1.17913979
H    0.98894079   0.27435949   0.41860194
O    0.48140064   1.04957559  -1.19428750
H    0.20603701   1.80375160  -1.71546431
H   -0.33280580   0.59097018  -0.98696938
O   -1.42130815  -0.98482401  -0.02743139
H   -0.62781745  -0.92851358   0.50495334
H   -2.12933207  -0.74696234   0.57119687
