37
Energy:  -1024.46282573
O   -1.26266956  -1.55768548   0.60204915
H   -1.15849753  -1.89397348  -0.28805782
H   -0.56514819  -1.98170199   1.10195494
O    1.34632303   0.03205865   3.20402005
H    1.61102391   0.80022126   2.69796521
H    1.68102754   0.19822893   4.08526472
O   -0.52931725  -2.34993725  -1.92482278
H   -0.71292094  -3.13577132  -2.43959102
H    0.38620425  -2.44387458  -1.66171063
O   -1.01573206   2.98987714   1.39511572
H   -0.06001849   2.94378908   1.42193557
H   -1.21794582   3.90203011   1.60324645
O   -0.78577371   0.36918295  -2.43660295
H   -0.95359359   0.70025392  -3.31890695
H   -0.76053334  -0.58228917  -2.53807010
O   -1.29675324   1.25671590  -4.96666800
H   -2.15623532   1.37068081  -5.37229642
H   -0.67726720   1.57378287  -5.62388746
O    1.09963403   0.39443555  -0.42707663
H    0.59441287   0.53464607  -1.22790398
H    1.52980218  -0.45034082  -0.55951570
O    1.94426657  -2.23798257  -0.67757735
H    2.81345104  -2.60668825  -0.83507760
H    1.76469488  -2.43131619   0.24253568
O   -2.06444074   0.84047788  -0.09749833
H   -1.75893663   0.75805441  -1.00088388
H   -1.89872994   1.75552852   0.12933664
O    1.65157029   2.19884060   1.50592610
H    2.43445149   2.71625552   1.31721819
H    1.55417425   1.62507233   0.74596832
O    1.00865451  -2.40230557   1.92253745
H    1.26181226  -1.62646220   2.42274747
H    1.06493934  -3.12200962   2.55109925
O   -1.21813939   0.41331569   2.32087503
H   -0.39747285   0.22599054   2.77655864
H   -1.27185584   1.36889657   2.30632957
H   -1.54715180  -0.13203604   0.91816362
