
                                 *****************
                                 * O   R   C   A *
                                 *****************

           --- An Ab Initio, DFT and Semiempirical electronic structure package ---

                  #######################################################
                  #                        -***-                        #
                  #          Department of theory and spectroscopy      #
                  #               Directorship: Frank Neese             #
                  #        Max Planck Institute fuer Kohlenforschung    #
                  #                Kaiser Wilhelm Platz 1               #
                  #                 D-45470 Muelheim/Ruhr               #
                  #                      Germany                        #
                  #                                                     #
                  #                  All rights reserved                #
                  #                        -***-                        #
                  #######################################################


                         Program Version 4.2.0 -  RELEASE  -


 With contributions from (in alphabetic order):
   Daniel Aravena         : Magnetic Suceptibility
   Michael Atanasov       : Ab Initio Ligand Field Theory (pilot matlab implementation)
   Alexander A. Auer      : GIAO ZORA, VPT2
   Ute Becker             : Parallelization
   Giovanni Bistoni       : ED, misc. LED, open-shell LED, HFLED
   Martin Brehm           : Molecular dynamics
   Dmytro Bykov           : SCF Hessian
   Vijay G. Chilkuri      : MRCI spin determinant printing, contributions to CSF-ICE
   Dipayan Datta          : RHF DLPNO-CCSD density
   Achintya Kumar Dutta   : EOM-CC, STEOM-CC
   Dmitry Ganyushin       : Spin-Orbit,Spin-Spin,Magnetic field MRCI
   Miquel Garcia          : C-PCM Hessian, Gaussian charge scheme
   Yang Guo               : DLPNO-NEVPT2, CIM, IAO-localization
   Andreas Hansen         : Spin unrestricted coupled pair/coupled cluster methods
   Benjamin Helmich-Paris : CASSCF linear response (MC-RPA)
   Lee Huntington         : MR-EOM, pCC
   Robert Izsak           : Overlap fitted RIJCOSX, COSX-SCS-MP3, EOM
   Christian Kollmar      : KDIIS, OOCD, Brueckner-CCSD(T), CCSD density
   Simone Kossmann        : Meta GGA functionals, TD-DFT gradient, OOMP2, MP2 Hessian
   Martin Krupicka        : AUTO-CI
   Lucas Lang             : DCDCAS
   Dagmar Lenk            : GEPOL surface, SMD
   Dimitrios Liakos       : Extrapolation schemes; Compound Job, initial MDCI parallelization
   Dimitrios Manganas     : Further ROCIS development; embedding schemes
   Dimitrios Pantazis     : SARC Basis sets
   Taras Petrenko         : DFT Hessian,TD-DFT gradient, ASA, ECA, R-Raman, ABS, FL, XAS/XES, NRVS
   Peter Pinski           : DLPNO-MP2, DLPNO-MP2 Gradient
   Christoph Reimann      : Effective Core Potentials
   Marius Retegan         : Local ZFS, SOC
   Christoph Riplinger    : Optimizer, TS searches, QM/MM, DLPNO-CCSD(T), (RO)-DLPNO pert. Triples
   Tobias Risthaus        : Range-separated hybrids, TD-DFT gradient, RPA, STAB
   Michael Roemelt        : Original ROCIS implementation
   Masaaki Saitow         : Open-shell DLPNO-CCSD energy and density
   Barbara Sandhoefer     : DKH picture change effects
   Avijit Sen             : IP-ROCIS
   Kantharuban Sivalingam : CASSCF convergence, NEVPT2, FIC-MRCI
   Bernardo de Souza      : ESD, SOC TD-DFT
   Georgi Stoychev        : AutoAux, RI-MP2 NMR
   Willem Van den Heuvel  : Paramagnetic NMR
   Boris Wezisla          : Elementary symmetry handling
   Frank Wennmohs         : Technical directorship


 We gratefully acknowledge several colleagues who have allowed us to
 interface, adapt or use parts of their codes:
   Stefan Grimme, W. Hujo, H. Kruse,             : VdW corrections, initial TS optimization,
                  C. Bannwarth                     DFT functionals, gCP, sTDA/sTD-DF
   Ed Valeev, F. Pavosevic, A. Kumar             : LibInt (2-el integral package), F12 methods
   Garnet Chan, S. Sharma, J. Yang, R. Olivares  : DMRG
   Ulf Ekstrom                                   : XCFun DFT Library
   Mihaly Kallay                                 : mrcc  (arbitrary order and MRCC methods)
   Andreas Klamt, Michael Diedenhofen            : otool_cosmo (COSMO solvation model)
   Jiri Pittner, Ondrej Demel                    : Mk-CCSD
   Frank Weinhold                                : gennbo (NPA and NBO analysis)
   Christopher J. Cramer and Donald G. Truhlar   : smd solvation model
   Lars Goerigk                                  : TD-DFT with DH, B97 family of functionals
   V. Asgeirsson, H. Jonsson                     : NEB implementation
   FAccTs GmbH                                   : IRC, NEB, NEB-TS, Multilevel, MM, QM/MM, CI optimization
   S Lehtola, MJT Oliveira, MAL Marques          : LibXC Library


 Your calculation uses the libint2 library for the computation of 2-el integrals
 For citations please refer to: http://libint.valeyev.net

 Your ORCA version has been built with support for libXC version: 4.2.3
 For citations please refer to: https://tddft.org/programs/libxc/

 This ORCA versions uses:
   CBLAS   interface :  Fast vector & matrix operations
   LAPACKE interface :  Fast linear algebra routines
   SCALAPACK package :  Parallel linear algebra routines


----- Orbital basis set information -----
Your calculation utilizes the basis: def2-TZVP
   F. Weigend and R. Ahlrichs, Phys. Chem. Chem. Phys. 7, 3297 (2005).

================================================================================
                                        WARNINGS
                       Please study these warnings very carefully!
================================================================================


WARNING: The frozen-core approximation for MP2-gradient calculations is turned on by default.

INFO   : the flag for use of LIBINT has been found!

================================================================================
                                       INPUT FILE
================================================================================
NAME = 12mecn.remya.etal.2.mol2,5,6-orca.engrad-mp2.def2tzvp.frozencore.inp
|  1> # 12mecn.remya.etal.2.mol2,5,6
|  2> ! MP2 def2-TZVP EnGrad TightSCF
|  3> 
|  4> %pal
|  5>     nprocs 6
|  6> end
|  7> 
|  8> %maxcore 8000
|  9> 
| 10> %scf
| 11>     ConvForced true
| 12> end
| 13> 
| 14> *xyz 0 1
| 15> C  -4.219070000  -3.477410000  -1.501740000
| 16> H  -3.251530000  -3.803540000  -1.893830000
| 17> H  -4.452920000  -2.481700000  -1.890840000
| 18> H  -4.992170000  -4.178130000  -1.824640000
| 19> C  -4.154550000  -3.418790000  -0.058340000
| 20> N  -4.091140000  -3.354840000   1.104432000
| 21> C  -1.955700000   2.515080000   1.698463000
| 22> H  -2.923830000   2.883163000   2.049269000
| 23> H  -1.154850000   3.171830000   2.050990000
| 24> H  -1.790380000   1.506115000   2.087896000
| 25> C  -1.948230000   2.482156000   0.253672000
| 26> N  -1.937550000   2.462523000  -0.913150000
| 27> C   5.300864000  -2.920090000   1.401103000
| 28> H   5.986071000  -2.139770000   1.737487000
| 29> H   5.636642000  -3.888750000   1.778233000
| 30> H   4.307359000  -2.697240000   1.799307000
| 31> C   5.234791000  -2.933140000  -0.043290000
| 32> N   5.170868000  -2.941760000  -1.207750000
| 33> *
| 34> 
| 35>                          ****END OF INPUT****
================================================================================

                     *******************************
                     * Energy+Gradient Calculation *
                     *******************************

---------------------------------
CARTESIAN COORDINATES (ANGSTROEM)
---------------------------------
  C     -4.219070   -3.477410   -1.501740
  H     -3.251530   -3.803540   -1.893830
  H     -4.452920   -2.481700   -1.890840
  H     -4.992170   -4.178130   -1.824640
  C     -4.154550   -3.418790   -0.058340
  N     -4.091140   -3.354840    1.104432
  C     -1.955700    2.515080    1.698463
  H     -2.923830    2.883163    2.049269
  H     -1.154850    3.171830    2.050990
  H     -1.790380    1.506115    2.087896
  C     -1.948230    2.482156    0.253672
  N     -1.937550    2.462523   -0.913150
  C      5.300864   -2.920090    1.401103
  H      5.986071   -2.139770    1.737487
  H      5.636642   -3.888750    1.778233
  H      4.307359   -2.697240    1.799307
  C      5.234791   -2.933140   -0.043290
  N      5.170868   -2.941760   -1.207750

----------------------------
CARTESIAN COORDINATES (A.U.)
----------------------------
  NO LB      ZA    FRAG     MASS         X           Y           Z
   0 C     6.0000    0    12.011   -7.972887   -6.571353   -2.837877
   1 H     1.0000    0     1.008   -6.144501   -7.187649   -3.578820
   2 H     1.0000    0     1.008   -8.414799   -4.689733   -3.573170
   3 H     1.0000    0     1.008   -9.433834   -7.895521   -3.448070
   4 C     6.0000    0    12.011   -7.850962   -6.460577   -0.110247
   5 N     7.0000    0    14.007   -7.731134   -6.339729    2.087074
   6 C     6.0000    0    12.011   -3.695737    4.752812    3.209630
   7 H     1.0000    0     1.008   -5.525238    5.448388    3.872557
   8 H     1.0000    0     1.008   -2.182350    5.993890    3.875809
   9 H     1.0000    0     1.008   -3.383328    2.846145    3.945552
  10 C     6.0000    0    12.011   -3.681621    4.690595    0.479371
  11 N     7.0000    0    14.007   -3.661439    4.653494   -1.725603
  12 C     6.0000    0    12.011   10.017181   -5.518170    2.647701
  13 H     1.0000    0     1.008   11.312035   -4.043579    3.283375
  14 H     1.0000    0     1.008   10.651710   -7.348673    3.360373
  15 H     1.0000    0     1.008    8.139729   -5.097045    3.400197
  16 C     6.0000    0    12.011    9.892321   -5.542831   -0.081806
  17 N     7.0000    0    14.007    9.771524   -5.559121   -2.282317

--------------------------------
INTERNAL COORDINATES (ANGSTROEM)
--------------------------------
 C      0   0   0     0.000000000000     0.00000000     0.00000000
 H      1   0   0     1.093722540958     0.00000000     0.00000000
 H      1   2   0     1.094313957053   109.44427651     0.00000000
 H      1   2   3     1.092225497963   109.20061708   119.37738849
 C      1   2   3     1.446029977144   109.29646417   240.55025120
 N      5   1   2     1.166254326716   179.00625359    73.19321907
 C      6   5   1     6.274467119123    99.45043315    14.57738325
 H      7   6   5     1.093538129845    92.51951846   106.68533234
 H      7   6   5     1.094055104064   147.26916585   241.33418438
 H      7   6   5     1.094074556470    38.95652265   224.78169759
 C      7   6   5     1.445185394459    83.44238188   357.39138392
 N     11   7   6     1.167036030623   179.58931694   193.68438536
 C     10   7   6     8.387414189988   125.82241967   118.26562182
 H     13  10   7     1.091586978076    97.36773914    48.79285568
 H     13  10   7     1.092371776358   134.39232949   175.56814672
 H     13  10   7     1.093288952263    25.08373097   166.63021978
 C     13  10   7     1.445962337780    92.74691614   298.15756917
 N     17  13  10     1.166245062553   179.46874677   338.28280231

---------------------------
INTERNAL COORDINATES (A.U.)
---------------------------
 C      0   0   0     0.000000000000     0.00000000     0.00000000
 H      1   0   0     2.066836068907     0.00000000     0.00000000
 H      1   2   0     2.067953683357   109.44427651     0.00000000
 H      1   2   3     2.064007067635   109.20061708   119.37738849
 C      1   2   3     2.732600638243   109.29646417   240.55025120
 N      5   1   2     2.203901279994   179.00625359    73.19321907
 C      6   5   1    11.857024491437    99.45043315    14.57738325
 H      7   6   5     2.066487582408    92.51951846   106.68533234
 H      7   6   5     2.067464522100   147.26916585   241.33418438
 H      7   6   5     2.067501281819    38.95652265   224.78169759
 C      7   6   5     2.731004608270    83.44238188   357.39138392
 N     11   7   6     2.205378486297   179.58931694   193.68438536
 C     10   7   6    15.849915790842   125.82241967   118.26562182
 H     13  10   7     2.062800439918    97.36773914    48.79285568
 H     13  10   7     2.064283493742   134.39232949   175.56814672
 H     13  10   7     2.066016705019    25.08373097   166.63021978
 C     13  10   7     2.732472818369    92.74691614   298.15756917
 N     17  13  10     2.203883773263   179.46874677   338.28280231

---------------------
BASIS SET INFORMATION
---------------------
There are 3 groups of distinct atoms

 Group   1 Type C   : 11s6p2d1f contracted to 5s3p2d1f pattern {62111/411/11/1}
 Group   2 Type H   : 5s1p contracted to 3s1p pattern {311/1}
 Group   3 Type N   : 11s6p2d1f contracted to 5s3p2d1f pattern {62111/411/11/1}

Atom   0C    basis set group =>   1
Atom   1H    basis set group =>   2
Atom   2H    basis set group =>   2
Atom   3H    basis set group =>   2
Atom   4C    basis set group =>   1
Atom   5N    basis set group =>   3
Atom   6C    basis set group =>   1
Atom   7H    basis set group =>   2
Atom   8H    basis set group =>   2
Atom   9H    basis set group =>   2
Atom  10C    basis set group =>   1
Atom  11N    basis set group =>   3
Atom  12C    basis set group =>   1
Atom  13H    basis set group =>   2
Atom  14H    basis set group =>   2
Atom  15H    basis set group =>   2
Atom  16C    basis set group =>   1
Atom  17N    basis set group =>   3


           ************************************************************
           *        Program running with 6 parallel MPI-processes     *
           *              working on a common directory               *
           ************************************************************
------------------------------------------------------------------------------
                           ORCA GTO INTEGRAL CALCULATION
------------------------------------------------------------------------------

                         BASIS SET STATISTICS AND STARTUP INFO

 # of primitive gaussian shells          ...  234
 # of primitive gaussian functions       ...  486
 # of contracted shells                  ...  135
 # of contracted basis functions         ...  333
 Highest angular momentum                ...    3
 Maximum contraction depth               ...    6
 Integral package used                   ... LIBINT
 Integral threshhold            Thresh   ...  2.500e-11
 Primitive cut-off              TCut     ...  2.500e-12


------------------------------ INTEGRAL EVALUATION ----------------------------


 * One electron integrals 
 Pre-screening matrix                    ... done
 Shell pair data                         ... done (   0.001 sec)



           ************************************************************
           *        Program running with 6 parallel MPI-processes     *
           *              working on a common directory               *
           ************************************************************
-------------------------------------------------------------------------------
                                 ORCA SCF
-------------------------------------------------------------------------------

------------
SCF SETTINGS
------------
Hamiltonian:
 Ab initio Hamiltonian  Method          .... Hartree-Fock(GTOs)


General Settings:
 Integral files         IntName         .... 12mecn.remya.etal.2.mol2,5,6-orca.engrad-mp2.def2tzvp.frozencore
 Hartree-Fock type      HFTyp           .... RHF
 Total Charge           Charge          ....    0
 Multiplicity           Mult            ....    1
 Number of Electrons    NEL             ....   66
 Basis Dimension        Dim             ....  333
 Nuclear Repulsion      ENuc            ....    269.1553357314 Eh

Convergence Acceleration:
 DIIS                   CNVDIIS         .... on
   Start iteration      DIISMaxIt       ....    12
   Startup error        DIISStart       ....  0.200000
   # of expansion vecs  DIISMaxEq       ....     5
   Bias factor          DIISBfac        ....   1.050
   Max. coefficient     DIISMaxC        ....  10.000
 Newton-Raphson         CNVNR           .... off
 SOSCF                  CNVSOSCF        .... on
   Start iteration      SOSCFMaxIt      ....   150
   Startup grad/error   SOSCFStart      ....  0.003300
 Level Shifting         CNVShift        .... on
   Level shift para.    LevelShift      ....    0.2500
   Turn off err/grad.   ShiftErr        ....    0.0010
 Zerner damping         CNVZerner       .... off
 Static damping         CNVDamp         .... on
   Fraction old density DampFac         ....    0.7000
   Max. Damping (<1)    DampMax         ....    0.9800
   Min. Damping (>=0)   DampMin         ....    0.0000
   Turn off err/grad.   DampErr         ....    0.1000
 Fernandez-Rico         CNVRico         .... off

SCF Procedure:
 Maximum # iterations   MaxIter         ....   125
 SCF integral mode      SCFMode         .... Direct
   Integral package                     .... LIBINT
 Reset frequency        DirectResetFreq ....    20
 Integral Threshold     Thresh          ....  2.500e-11 Eh
 Primitive CutOff       TCut            ....  2.500e-12 Eh

Convergence Tolerance:
 Convergence Check Mode ConvCheckMode   .... Total+1el-Energy
 Convergence forced     ConvForced      .... 1
 Energy Change          TolE            ....  1.000e-08 Eh
 1-El. energy change                    ....  1.000e-05 Eh
 Orbital Gradient       TolG            ....  1.000e-05
 Orbital Rotation angle TolX            ....  1.000e-05
 DIIS Error             TolErr          ....  5.000e-07


Diagonalization of the overlap matrix:
Smallest eigenvalue                        ... 1.575e-04
Time for diagonalization                   ...    0.015 sec
Threshold for overlap eigenvalues          ... 1.000e-08
Number of eigenvalues below threshold      ... 0
Time for construction of square roots      ...    0.008 sec
Total time needed                          ...    0.024 sec

-------------------
DFT GRID GENERATION
-------------------

General Integration Accuracy     IntAcc      ...  4.340
Radial Grid Type                 RadialGrid  ... Gauss-Chebyshev
Angular Grid (max. acc.)         AngularGrid ... Lebedev-110
Angular grid pruning method      GridPruning ... 3 (G Style)
Weight generation scheme         WeightScheme... Becke
Basis function cutoff            BFCut       ...    1.0000e-11
Integration weight cutoff        WCut        ...    1.0000e-14
Grids for H and He will be reduced by one unit

# of grid points (after initial pruning)     ...  22188 (   0.0 sec)
# of grid points (after weights+screening)   ...  21277 (   0.0 sec)
nearest neighbour list constructed           ...    0.0 sec
Grid point re-assignment to atoms done       ...    0.0 sec
Grid point division into batches done        ...    0.0 sec
Reduced shell lists constructed in    0.0 sec

Total number of grid points                  ...    21277
Total number of batches                      ...      341
Average number of points per batch           ...       62
Average number of grid points per atom       ...     1182
Average number of shells per batch           ...    46.48 (34.43%)
Average number of basis functions per batch  ...   109.55 (32.90%)
Average number of large shells per batch     ...    34.29 (73.78%)
Average number of large basis fcns per batch ...    83.67 (76.38%)
Maximum spatial batch extension              ...  20.25, 17.53, 22.36 au
Average spatial batch extension              ...   0.78,  0.77,  0.87 au

Time for grid setup =    0.065 sec

------------------------------
INITIAL GUESS: MODEL POTENTIAL
------------------------------
Loading Hartree-Fock densities                     ... done
Calculating cut-offs                               ... done
Setting up the integral package                    ... done
Initializing the effective Hamiltonian             ... done
Starting the Coulomb interaction                   ... done (   0.0 sec)
Reading the grid                                   ... done
Mapping shells                                     ... done
Starting the XC term evaluation                    ... done (   0.0 sec)
Transforming the Hamiltonian                       ... done (   0.0 sec)
Diagonalizing the Hamiltonian                      ... done (   0.0 sec)
Back transforming the eigenvectors                 ... done (   0.0 sec)
Now organizing SCF variables                       ... done
                      ------------------
                      INITIAL GUESS DONE (   0.2 sec)
                      ------------------
--------------
SCF ITERATIONS
--------------
ITER       Energy         Delta-E        Max-DP      RMS-DP      [F,P]     Damp
               ***  Starting incremental Fock matrix formation  ***
  0   -395.4244356915   0.000000000000 0.03781345  0.00086531  0.2828180 0.7000
  1   -395.6043446089  -0.179908917394 0.02708611  0.00068707  0.1878631 0.7000
                               ***Turning on DIIS***
  2   -395.7093234733  -0.104978864397 0.01614386  0.00044584  0.1421138 0.7000
  3   -396.6625336726  -0.953210199344 0.00986600  0.00028284  0.1056025 0.7000
  4   -396.6141267764   0.048406896228 0.02680313  0.00068870  0.0744260 0.0000
  5   -395.9540584826   0.660068293840 0.00622924  0.00012409  0.0061406 0.0000
                      *** Initiating the SOSCF procedure ***
                           *** Shutting down DIIS ***
                      *** Re-Reading the Fockian *** 
                      *** Removing any level shift *** 
ITER      Energy       Delta-E        Grad      Rot      Max-DP    RMS-DP
  6   -395.93567426   0.0183842182  0.001279  0.001279  0.004287  0.000078
               *** Restarting incremental Fock matrix formation ***
  7   -395.92523392   0.0104403484  0.000435  0.000637  0.003000  0.000055
  8   -395.92525268  -0.0000187652  0.000330  0.000523  0.002495  0.000046
  9   -395.92525670  -0.0000040147  0.000128  0.000159  0.000770  0.000013
 10   -395.92525741  -0.0000007112  0.000013  0.000011  0.000066  0.000001
 11   -395.92525742  -0.0000000083  0.000005  0.000010  0.000018  0.000000
                  ***Gradient check signals convergence***
              ***Rediagonalizing the Fockian in SOSCF/NRSCF***

               *****************************************************
               *                     SUCCESS                       *
               *           SCF CONVERGED AFTER  12 CYCLES          *
               *****************************************************


----------------
TOTAL SCF ENERGY
----------------

Total Energy       :         -395.92525742 Eh          -10773.67398 eV

Components:
Nuclear Repulsion  :          269.15533573 Eh            7324.08903 eV
Electronic Energy  :         -665.08059315 Eh          -18097.76301 eV
One Electron Energy:        -1067.20955645 Eh          -29040.24841 eV
Two Electron Energy:          402.12896330 Eh           10942.48540 eV

Virial components:
Potential Energy   :         -791.04628343 Eh          -21525.46371 eV
Kinetic Energy     :          395.12102601 Eh           10751.78973 eV
Virial Ratio       :            2.00203541


---------------
SCF CONVERGENCE
---------------

  Last Energy change         ...   -1.6147e-09  Tolerance :   1.0000e-08
  Last MAX-Density change    ...    8.9765e-06  Tolerance :   1.0000e-07
  Last RMS-Density change    ...    1.3795e-07  Tolerance :   5.0000e-09
  Last Orbital Gradient      ...    1.9206e-06  Tolerance :   1.0000e-05
  Last Orbital Rotation      ...    3.2120e-06  Tolerance :   1.0000e-05

             **** THE GBW FILE WAS UPDATED (12mecn.remya.etal.2.mol2,5,6-orca.engrad-mp2.def2tzvp.frozencore.gbw) ****
             **** DENSITY FILE WAS UPDATED (12mecn.remya.etal.2.mol2,5,6-orca.engrad-mp2.def2tzvp.frozencore.scfp) ****
             **** ENERGY FILE WAS UPDATED (12mecn.remya.etal.2.mol2,5,6-orca.engrad-mp2.def2tzvp.frozencore.en.tmp) ****
             **** THE GBW FILE WAS UPDATED (12mecn.remya.etal.2.mol2,5,6-orca.engrad-mp2.def2tzvp.frozencore.gbw) ****
             **** DENSITY FILE WAS UPDATED (12mecn.remya.etal.2.mol2,5,6-orca.engrad-mp2.def2tzvp.frozencore.scfp) ****
----------------
ORBITAL ENERGIES
----------------

  NO   OCC          E(Eh)            E(eV) 
   0   2.0000     -15.573098      -423.7656 
   1   2.0000     -15.572817      -423.7579 
   2   2.0000     -15.572536      -423.7502 
   3   2.0000     -11.284873      -307.0770 
   4   2.0000     -11.283644      -307.0436 
   5   2.0000     -11.282668      -307.0170 
   6   2.0000     -11.280507      -306.9582 
   7   2.0000     -11.280025      -306.9451 
   8   2.0000     -11.279865      -306.9407 
   9   2.0000      -1.214904       -33.0592 
  10   2.0000      -1.214688       -33.0534 
  11   2.0000      -1.213913       -33.0323 
  12   2.0000      -1.043893       -28.4058 
  13   2.0000      -1.042590       -28.3703 
  14   2.0000      -1.041789       -28.3485 
  15   2.0000      -0.701251       -19.0820 
  16   2.0000      -0.698818       -19.0158 
  17   2.0000      -0.698451       -19.0058 
  18   2.0000      -0.632893       -17.2219 
  19   2.0000      -0.631536       -17.1850 
  20   2.0000      -0.630143       -17.1471 
  21   2.0000      -0.629512       -17.1299 
  22   2.0000      -0.629349       -17.1254 
  23   2.0000      -0.628849       -17.1118 
  24   2.0000      -0.556509       -15.1434 
  25   2.0000      -0.555910       -15.1271 
  26   2.0000      -0.555542       -15.1171 
  27   2.0000      -0.458062       -12.4645 
  28   2.0000      -0.457978       -12.4622 
  29   2.0000      -0.457754       -12.4561 
  30   2.0000      -0.457480       -12.4487 
  31   2.0000      -0.457141       -12.4394 
  32   2.0000      -0.456849       -12.4315 
  33   0.0000       0.116640         3.1739 
  34   0.0000       0.119048         3.2395 
  35   0.0000       0.125210         3.4071 
  36   0.0000       0.171209         4.6588 
  37   0.0000       0.171541         4.6679 
  38   0.0000       0.171928         4.6784 
  39   0.0000       0.172313         4.6889 
  40   0.0000       0.173018         4.7081 
  41   0.0000       0.174308         4.7431 
  42   0.0000       0.199864         5.4386 
  43   0.0000       0.202266         5.5039 
  44   0.0000       0.203404         5.5349 
  45   0.0000       0.224378         6.1056 
  46   0.0000       0.224452         6.1077 
  47   0.0000       0.225511         6.1365 
  48   0.0000       0.225657         6.1404 
  49   0.0000       0.227220         6.1830 
  50   0.0000       0.232164         6.3175 
  51   0.0000       0.263302         7.1648 
  52   0.0000       0.263977         7.1832 
  53   0.0000       0.268675         7.3110 
  54   0.0000       0.319679         8.6989 
  55   0.0000       0.321451         8.7471 
  56   0.0000       0.322250         8.7689 
  57   0.0000       0.324177         8.8213 
  58   0.0000       0.324681         8.8350 
  59   0.0000       0.327145         8.9021 
  60   0.0000       0.376377        10.2417 
  61   0.0000       0.381400        10.3784 
  62   0.0000       0.381729        10.3874 
  63   0.0000       0.381795        10.3892 
  64   0.0000       0.382583        10.4106 
  65   0.0000       0.389761        10.6059 
  66   0.0000       0.405531        11.0351 
  67   0.0000       0.408506        11.1160 
  68   0.0000       0.412513        11.2251 
  69   0.0000       0.496432        13.5086 
  70   0.0000       0.496860        13.5203 
  71   0.0000       0.499618        13.5953 
  72   0.0000       0.528121        14.3709 
  73   0.0000       0.529569        14.4103 
  74   0.0000       0.533945        14.5294 
  75   0.0000       0.588215        16.0062 
  76   0.0000       0.588254        16.0072 
  77   0.0000       0.590372        16.0648 
  78   0.0000       0.597241        16.2517 
  79   0.0000       0.598428        16.2840 
  80   0.0000       0.600760        16.3475 
  81   0.0000       0.601064        16.3558 
  82   0.0000       0.601709        16.3733 
  83   0.0000       0.605043        16.4641 
  84   0.0000       0.658789        17.9266 
  85   0.0000       0.659194        17.9376 
  86   0.0000       0.659522        17.9465 
  87   0.0000       0.659969        17.9587 
  88   0.0000       0.660056        17.9610 
  89   0.0000       0.661115        17.9899 
  90   0.0000       0.702400        19.1133 
  91   0.0000       0.705690        19.2028 
  92   0.0000       0.709781        19.3141 
  93   0.0000       0.803487        21.8640 
  94   0.0000       0.807766        21.9804 
  95   0.0000       0.812014        22.0960 
  96   0.0000       0.812703        22.1148 
  97   0.0000       0.813928        22.1481 
  98   0.0000       0.814106        22.1530 
  99   0.0000       0.814685        22.1687 
 100   0.0000       0.815464        22.1899 
 101   0.0000       0.820729        22.3332 
 102   0.0000       0.917406        24.9639 
 103   0.0000       0.918583        24.9959 
 104   0.0000       0.919738        25.0274 
 105   0.0000       0.919786        25.0287 
 106   0.0000       0.920588        25.0505 
 107   0.0000       0.922500        25.1025 
 108   0.0000       1.031831        28.0776 
 109   0.0000       1.031931        28.0803 
 110   0.0000       1.034660        28.1545 
 111   0.0000       1.123762        30.5791 
 112   0.0000       1.123998        30.5855 
 113   0.0000       1.124676        30.6040 
 114   0.0000       1.124716        30.6051 
 115   0.0000       1.125663        30.6308 
 116   0.0000       1.128219        30.7004 
 117   0.0000       1.322414        35.9847 
 118   0.0000       1.323282        36.0083 
 119   0.0000       1.323707        36.0199 
 120   0.0000       1.418887        38.6099 
 121   0.0000       1.419843        38.6359 
 122   0.0000       1.422228        38.7008 
 123   0.0000       1.423301        38.7300 
 124   0.0000       1.423657        38.7397 
 125   0.0000       1.425836        38.7990 
 126   0.0000       1.449153        39.4335 
 127   0.0000       1.449194        39.4346 
 128   0.0000       1.450090        39.4590 
 129   0.0000       1.469363        39.9834 
 130   0.0000       1.471216        40.0338 
 131   0.0000       1.471401        40.0389 
 132   0.0000       1.473603        40.0988 
 133   0.0000       1.474816        40.1318 
 134   0.0000       1.476251        40.1708 
 135   0.0000       1.508772        41.0558 
 136   0.0000       1.509751        41.0824 
 137   0.0000       1.512646        41.1612 
 138   0.0000       1.691277        46.0220 
 139   0.0000       1.697963        46.2039 
 140   0.0000       1.698064        46.2067 
 141   0.0000       1.698394        46.2156 
 142   0.0000       1.699611        46.2488 
 143   0.0000       1.706475        46.4355 
 144   0.0000       1.736922        47.2641 
 145   0.0000       1.737766        47.2870 
 146   0.0000       1.745491        47.4972 
 147   0.0000       1.747129        47.5418 
 148   0.0000       1.749076        47.5948 
 149   0.0000       1.750195        47.6252 
 150   0.0000       1.797446        48.9110 
 151   0.0000       1.798999        48.9532 
 152   0.0000       1.799914        48.9781 
 153   0.0000       1.801761        49.0284 
 154   0.0000       1.804055        49.0908 
 155   0.0000       1.806143        49.1476 
 156   0.0000       1.934290        52.6347 
 157   0.0000       1.934433        52.6386 
 158   0.0000       1.935147        52.6580 
 159   0.0000       1.935735        52.6740 
 160   0.0000       1.935989        52.6810 
 161   0.0000       1.937117        52.7116 
 162   0.0000       1.969230        53.5855 
 163   0.0000       1.971268        53.6409 
 164   0.0000       1.973162        53.6925 
 165   0.0000       2.225150        60.5494 
 166   0.0000       2.225696        60.5643 
 167   0.0000       2.225815        60.5675 
 168   0.0000       2.232916        60.7607 
 169   0.0000       2.238155        60.9033 
 170   0.0000       2.243739        61.0552 
 171   0.0000       2.245394        61.1003 
 172   0.0000       2.251988        61.2797 
 173   0.0000       2.252149        61.2841 
 174   0.0000       2.340738        63.6947 
 175   0.0000       2.341893        63.7262 
 176   0.0000       2.344542        63.7982 
 177   0.0000       2.548018        69.3351 
 178   0.0000       2.549290        69.3697 
 179   0.0000       2.550483        69.4022 
 180   0.0000       2.552440        69.4554 
 181   0.0000       2.552810        69.4655 
 182   0.0000       2.554933        69.5233 
 183   0.0000       2.570433        69.9450 
 184   0.0000       2.576720        70.1161 
 185   0.0000       2.585480        70.3545 
 186   0.0000       2.620044        71.2950 
 187   0.0000       2.620629        71.3109 
 188   0.0000       2.622079        71.3504 
 189   0.0000       2.625682        71.4484 
 190   0.0000       2.626256        71.4640 
 191   0.0000       2.627334        71.4934 
 192   0.0000       2.702040        73.5262 
 193   0.0000       2.702351        73.5347 
 194   0.0000       2.706523        73.6482 
 195   0.0000       2.739547        74.5469 
 196   0.0000       2.739646        74.5495 
 197   0.0000       2.742020        74.6141 
 198   0.0000       2.744193        74.6733 
 199   0.0000       2.746545        74.7373 
 200   0.0000       2.746591        74.7385 
 201   0.0000       2.912813        79.2617 
 202   0.0000       2.913170        79.2714 
 203   0.0000       2.913270        79.2741 
 204   0.0000       2.913350        79.2763 
 205   0.0000       2.913536        79.2813 
 206   0.0000       2.914116        79.2971 
 207   0.0000       2.942408        80.0670 
 208   0.0000       2.944822        80.1327 
 209   0.0000       2.948526        80.2335 
 210   0.0000       2.954646        80.4000 
 211   0.0000       2.957275        80.4715 
 212   0.0000       2.960198        80.5511 
 213   0.0000       3.023098        82.2627 
 214   0.0000       3.026543        82.3564 
 215   0.0000       3.027167        82.3734 
 216   0.0000       3.087261        84.0086 
 217   0.0000       3.087523        84.0158 
 218   0.0000       3.089749        84.0764 
 219   0.0000       3.091796        84.1321 
 220   0.0000       3.094576        84.2077 
 221   0.0000       3.096163        84.2509 
 222   0.0000       3.235635        88.0461 
 223   0.0000       3.236380        88.0664 
 224   0.0000       3.237815        88.1054 
 225   0.0000       3.244060        88.2754 
 226   0.0000       3.244994        88.3008 
 227   0.0000       3.245401        88.3118 
 228   0.0000       3.246161        88.3325 
 229   0.0000       3.247280        88.3630 
 230   0.0000       3.247476        88.3683 
 231   0.0000       3.327677        90.5507 
 232   0.0000       3.327773        90.5533 
 233   0.0000       3.332476        90.6813 
 234   0.0000       3.335224        90.7561 
 235   0.0000       3.335628        90.7671 
 236   0.0000       3.337558        90.8196 
 237   0.0000       3.437629        93.5426 
 238   0.0000       3.442188        93.6667 
 239   0.0000       3.444856        93.7393 
 240   0.0000       3.446219        93.7764 
 241   0.0000       3.446585        93.7863 
 242   0.0000       3.447874        93.8214 
 243   0.0000       3.485571        94.8472 
 244   0.0000       3.486099        94.8616 
 245   0.0000       3.489012        94.9408 
 246   0.0000       3.633890        98.8832 
 247   0.0000       3.634321        98.8949 
 248   0.0000       3.635890        98.9376 
 249   0.0000       3.648588        99.2831 
 250   0.0000       3.653196        99.4085 
 251   0.0000       3.656355        99.4945 
 252   0.0000       3.799368       103.3861 
 253   0.0000       3.800276       103.4108 
 254   0.0000       3.801263       103.4376 
 255   0.0000       3.803453       103.4972 
 256   0.0000       3.804752       103.5326 
 257   0.0000       3.805626       103.5563 
 258   0.0000       3.924223       106.7835 
 259   0.0000       3.927048       106.8604 
 260   0.0000       3.929488       106.9268 
 261   0.0000       3.948527       107.4449 
 262   0.0000       3.949995       107.4848 
 263   0.0000       3.950660       107.5029 
 264   0.0000       3.953043       107.5678 
 265   0.0000       3.957681       107.6940 
 266   0.0000       3.957719       107.6950 
 267   0.0000       4.245249       115.5191 
 268   0.0000       4.247782       115.5880 
 269   0.0000       4.249811       115.6432 
 270   0.0000       4.250341       115.6577 
 271   0.0000       4.254456       115.7696 
 272   0.0000       4.254824       115.7796 
 273   0.0000       4.341755       118.1451 
 274   0.0000       4.342080       118.1540 
 275   0.0000       4.342406       118.1629 
 276   0.0000       4.346636       118.2780 
 277   0.0000       4.347015       118.2883 
 278   0.0000       4.347180       118.2928 
 279   0.0000       4.559505       124.0704 
 280   0.0000       4.562149       124.1424 
 281   0.0000       4.565178       124.2248 
 282   0.0000       4.741046       129.0104 
 283   0.0000       4.743825       129.0860 
 284   0.0000       4.745863       129.1415 
 285   0.0000       4.750331       129.2631 
 286   0.0000       4.752843       129.3314 
 287   0.0000       4.754728       129.3827 
 288   0.0000       4.835136       131.5708 
 289   0.0000       4.837326       131.6303 
 290   0.0000       4.839895       131.7002 
 291   0.0000       4.960350       134.9780 
 292   0.0000       4.960789       134.9899 
 293   0.0000       4.961199       135.0011 
 294   0.0000       4.961686       135.0143 
 295   0.0000       4.962040       135.0240 
 296   0.0000       4.962326       135.0317 
 297   0.0000       5.067231       137.8864 
 298   0.0000       5.067955       137.9061 
 299   0.0000       5.068080       137.9095 
 300   0.0000       5.068509       137.9211 
 301   0.0000       5.068651       137.9250 
 302   0.0000       5.069837       137.9573 
 303   0.0000       5.198162       141.4492 
 304   0.0000       5.199391       141.4826 
 305   0.0000       5.202876       141.5774 
 306   0.0000       5.556631       151.2036 
 307   0.0000       5.556928       151.2117 
 308   0.0000       5.557320       151.2224 
 309   0.0000       5.557852       151.2369 
 310   0.0000       5.557867       151.2372 
 311   0.0000       5.558089       151.2433 
 312   0.0000       6.022300       163.8751 
 313   0.0000       6.022805       163.8889 
 314   0.0000       6.023330       163.9031 
 315   0.0000       6.084098       165.5567 
 316   0.0000       6.087193       165.6409 
 317   0.0000       6.087637       165.6530 
 318   0.0000       6.087840       165.6586 
 319   0.0000       6.087902       165.6602 
 320   0.0000       6.092679       165.7902 
 321   0.0000       6.464194       175.8997 
 322   0.0000       6.466439       175.9608 
 323   0.0000       6.466902       175.9734 
 324   0.0000      23.468134       638.6004 
 325   0.0000      23.470891       638.6754 
 326   0.0000      23.473445       638.7449 
 327   0.0000      24.379098       663.3890 
 328   0.0000      24.380249       663.4203 
 329   0.0000      24.382074       663.4700 
 330   0.0000      33.384697       908.4438 
 331   0.0000      33.392427       908.6541 
 332   0.0000      33.404380       908.9794 

                    ********************************
                    * MULLIKEN POPULATION ANALYSIS *
                    ********************************

-----------------------
MULLIKEN ATOMIC CHARGES
-----------------------
   0 C :   -0.166448
   1 H :    0.157884
   2 H :    0.161364
   3 H :    0.154777
   4 C :   -0.102436
   5 N :   -0.205129
   6 C :   -0.165712
   7 H :    0.156066
   8 H :    0.154420
   9 H :    0.160820
  10 C :   -0.104328
  11 N :   -0.201278
  12 C :   -0.166789
  13 H :    0.155376
  14 H :    0.156459
  15 H :    0.155715
  16 C :   -0.106378
  17 N :   -0.194382
Sum of atomic charges:    0.0000000

--------------------------------
MULLIKEN REDUCED ORBITAL CHARGES
--------------------------------
  0 C s       :     3.149499  s :     3.149499
      pz      :     0.791960  p :     2.951895
      px      :     1.078661
      py      :     1.081275
      dz2     :     0.017831  d :     0.061586
      dxz     :     0.011075
      dyz     :     0.011182
      dx2y2   :     0.010045
      dxy     :     0.011452
      f0      :     0.001713  f :     0.003468
      f+1     :     0.000206
      f-1     :     0.000202
      f+2     :     0.000056
      f-2     :     0.000079
      f+3     :     0.000434
      f-3     :     0.000777
  1 H s       :     0.819687  s :     0.819687
      pz      :     0.005082  p :     0.022429
      px      :     0.012638
      py      :     0.004709
  2 H s       :     0.816207  s :     0.816207
      pz      :     0.005046  p :     0.022430
      px      :     0.004197
      py      :     0.013186
  3 H s       :     0.822818  s :     0.822818
      pz      :     0.004558  p :     0.022405
      px      :     0.009436
      py      :     0.008411
  4 C s       :     3.235767  s :     3.235767
      pz      :     0.970696  p :     2.735300
      px      :     0.882879
      py      :     0.881724
      dz2     :     0.026731  d :     0.114054
      dxz     :     0.043074
      dyz     :     0.043241
      dx2y2   :     0.000171
      dxy     :     0.000836
      f0      :     0.004198  f :     0.017315
      f+1     :     0.006440
      f-1     :     0.006449
      f+2     :     0.000092
      f-2     :     0.000137
      f+3     :     0.000000
      f-3     :     0.000000
  5 N s       :     3.712854  s :     3.712854
      pz      :     1.288432  p :     3.434419
      px      :     1.072408
      py      :     1.073579
      dz2     :     0.011791  d :     0.054883
      dxz     :     0.021427
      dyz     :     0.021422
      dx2y2   :     0.000127
      dxy     :     0.000115
      f0      :     0.000643  f :     0.002973
      f+1     :     0.001148
      f-1     :     0.001147
      f+2     :     0.000018
      f-2     :     0.000017
      f+3     :     0.000000
      f-3     :     0.000000
  6 C s       :     3.149922  s :     3.149922
      pz      :     0.792816  p :     2.950499
      px      :     1.076521
      py      :     1.081162
      dz2     :     0.017961  d :     0.061818
      dxz     :     0.010830
      dyz     :     0.011531
      dx2y2   :     0.010584
      dxy     :     0.010912
      f0      :     0.001716  f :     0.003472
      f+1     :     0.000203
      f-1     :     0.000203
      f+2     :     0.000068
      f-2     :     0.000055
      f+3     :     0.000268
      f-3     :     0.000960
  7 H s       :     0.821534  s :     0.821534
      pz      :     0.004750  p :     0.022400
      px      :     0.012685
      py      :     0.004966
  8 H s       :     0.823249  s :     0.823249
      pz      :     0.004753  p :     0.022331
      px      :     0.009788
      py      :     0.007790
  9 H s       :     0.816770  s :     0.816770
      pz      :     0.005047  p :     0.022410
      px      :     0.003915
      py      :     0.013449
 10 C s       :     3.234700  s :     3.234700
      pz      :     0.969506  p :     2.738405
      px      :     0.885068
      py      :     0.883831
      dz2     :     0.026506  d :     0.113895
      dxz     :     0.043224
      dyz     :     0.043581
      dx2y2   :     0.000213
      dxy     :     0.000371
      f0      :     0.004116  f :     0.017329
      f+1     :     0.006557
      f-1     :     0.006582
      f+2     :     0.000028
      f-2     :     0.000046
      f+3     :     0.000000
      f-3     :     0.000000
 11 N s       :     3.715524  s :     3.715524
      pz      :     1.287711  p :     3.427799
      px      :     1.069337
      py      :     1.070752
      dz2     :     0.011669  d :     0.054987
      dxz     :     0.021661
      dyz     :     0.021644
      dx2y2   :     0.000007
      dxy     :     0.000005
      f0      :     0.000623  f :     0.002968
      f+1     :     0.001172
      f-1     :     0.001170
      f+2     :     0.000001
      f-2     :     0.000001
      f+3     :    -0.000000
      f-3     :    -0.000000
 12 C s       :     3.147656  s :     3.147656
      pz      :     0.795226  p :     2.953562
      px      :     1.078992
      py      :     1.079345
      dz2     :     0.017629  d :     0.062097
      dxz     :     0.011763
      dyz     :     0.011327
      dx2y2   :     0.010081
      dxy     :     0.011297
      f0      :     0.001725  f :     0.003474
      f+1     :     0.000209
      f-1     :     0.000200
      f+2     :     0.000062
      f-2     :     0.000076
      f+3     :     0.000811
      f-3     :     0.000390
 13 H s       :     0.822183  s :     0.822183
      pz      :     0.004665  p :     0.022441
      px      :     0.008224
      py      :     0.009553
 14 H s       :     0.821144  s :     0.821144
      pz      :     0.004934  p :     0.022397
      px      :     0.004786
      py      :     0.012677
 15 H s       :     0.821878  s :     0.821878
      pz      :     0.005135  p :     0.022407
      px      :     0.013084
      py      :     0.004189
 16 C s       :     3.233699  s :     3.233699
      pz      :     0.967788  p :     2.741651
      px      :     0.885702
      py      :     0.888162
      dz2     :     0.026762  d :     0.113690
      dxz     :     0.043536
      dyz     :     0.042618
      dx2y2   :     0.000158
      dxy     :     0.000616
      f0      :     0.004160  f :     0.017338
      f+1     :     0.006517
      f-1     :     0.006512
      f+2     :     0.000057
      f-2     :     0.000092
      f+3     :     0.000000
      f-3     :     0.000000
 17 N s       :     3.716682  s :     3.716682
      pz      :     1.285853  p :     3.419645
      px      :     1.068947
      py      :     1.064845
      dz2     :     0.011730  d :     0.055086
      dxz     :     0.021548
      dyz     :     0.021678
      dx2y2   :     0.000069
      dxy     :     0.000061
      f0      :     0.000631  f :     0.002969
      f+1     :     0.001154
      f-1     :     0.001166
      f+2     :     0.000009
      f-2     :     0.000009
      f+3     :     0.000000
      f-3     :     0.000000


                     *******************************
                     * LOEWDIN POPULATION ANALYSIS *
                     *******************************

----------------------
LOEWDIN ATOMIC CHARGES
----------------------
   0 C :   -0.243787
   1 H :    0.145388
   2 H :    0.146660
   3 H :    0.142532
   4 C :   -0.197010
   5 N :    0.006222
   6 C :   -0.244499
   7 H :    0.144496
   8 H :    0.143885
   9 H :    0.145777
  10 C :   -0.198582
  11 N :    0.008918
  12 C :   -0.245125
  13 H :    0.143007
  14 H :    0.143076
  15 H :    0.144632
  16 C :   -0.198852
  17 N :    0.013262

-------------------------------
LOEWDIN REDUCED ORBITAL CHARGES
-------------------------------
  0 C s       :     2.814452  s :     2.814452
      pz      :     1.023193  p :     3.143085
      px      :     1.059628
      py      :     1.060264
      dz2     :     0.077663  d :     0.260984
      dxz     :     0.060829
      dyz     :     0.060989
      dx2y2   :     0.027633
      dxy     :     0.033870
      f0      :     0.007350  f :     0.025265
      f+1     :     0.005087
      f-1     :     0.005048
      f+2     :     0.002490
      f-2     :     0.002035
      f+3     :     0.001169
      f-3     :     0.002085
  1 H s       :     0.793804  s :     0.793804
      pz      :     0.013108  p :     0.060808
      px      :     0.033164
      py      :     0.014536
  2 H s       :     0.792520  s :     0.792520
      pz      :     0.013040  p :     0.060821
      px      :     0.013337
      py      :     0.034443
  3 H s       :     0.796500  s :     0.796500
      pz      :     0.012089  p :     0.060968
      px      :     0.025621
      py      :     0.023258
  4 C s       :     2.839734  s :     2.839734
      pz      :     1.191491  p :     2.848695
      px      :     0.828919
      py      :     0.828285
      dz2     :     0.153842  d :     0.449724
      dxz     :     0.146654
      dyz     :     0.147241
      dx2y2   :     0.000320
      dxy     :     0.001667
      f0      :     0.022897  f :     0.058857
      f+1     :     0.017673
      f-1     :     0.017708
      f+2     :     0.000236
      f-2     :     0.000341
      f+3     :     0.000001
      f-3     :     0.000001
  5 N s       :     3.313779  s :     3.313779
      pz      :     1.493628  p :     3.554838
      px      :     1.030175
      py      :     1.031035
      dz2     :     0.045594  d :     0.110803
      dxz     :     0.032441
      dyz     :     0.032390
      dx2y2   :     0.000197
      dxy     :     0.000181
      f0      :     0.006180  f :     0.014358
      f+1     :     0.004031
      f-1     :     0.004025
      f+2     :     0.000063
      f-2     :     0.000058
      f+3     :     0.000000
      f-3     :     0.000000
  6 C s       :     2.814695  s :     2.814695
      pz      :     1.024764  p :     3.142790
      px      :     1.057894
      py      :     1.060131
      dz2     :     0.078012  d :     0.261649
      dxz     :     0.059802
      dyz     :     0.062206
      dx2y2   :     0.029875
      dxy     :     0.031754
      f0      :     0.007382  f :     0.025365
      f+1     :     0.005283
      f-1     :     0.005033
      f+2     :     0.002304
      f-2     :     0.002091
      f+3     :     0.000714
      f-3     :     0.002558
  7 H s       :     0.794753  s :     0.794753
      pz      :     0.012465  p :     0.060751
      px      :     0.033099
      py      :     0.015187
  8 H s       :     0.795512  s :     0.795512
      pz      :     0.012466  p :     0.060603
      px      :     0.026378
      py      :     0.021759
  9 H s       :     0.793400  s :     0.793400
      pz      :     0.013038  p :     0.060823
      px      :     0.012733
      py      :     0.035051
 10 C s       :     2.839355  s :     2.839355
      pz      :     1.192779  p :     2.850667
      px      :     0.829143
      py      :     0.828745
      dz2     :     0.154269  d :     0.449788
      dxz     :     0.146955
      dyz     :     0.147837
      dx2y2   :     0.000192
      dxy     :     0.000535
      f0      :     0.023057  f :     0.058772
      f+1     :     0.017740
      f-1     :     0.017831
      f+2     :     0.000045
      f-2     :     0.000099
      f+3     :     0.000000
      f-3     :     0.000001
 11 N s       :     3.314485  s :     3.314485
      pz      :     1.495441  p :     3.551230
      px      :     1.027389
      py      :     1.028399
      dz2     :     0.045867  d :     0.111040
      dxz     :     0.032603
      dyz     :     0.032546
      dx2y2   :     0.000013
      dxy     :     0.000011
      f0      :     0.006230  f :     0.014326
      f+1     :     0.004047
      f-1     :     0.004042
      f+2     :     0.000004
      f-2     :     0.000004
      f+3     :     0.000000
      f-3     :     0.000000
 12 C s       :     2.813622  s :     2.813622
      pz      :     1.024422  p :     3.143854
      px      :     1.060109
      py      :     1.059323
      dz2     :     0.077103  d :     0.262313
      dxz     :     0.062709
      dyz     :     0.061174
      dx2y2   :     0.028246
      dxy     :     0.033082
      f0      :     0.007335  f :     0.025335
      f+1     :     0.005006
      f-1     :     0.005165
      f+2     :     0.002463
      f-2     :     0.002116
      f+3     :     0.002193
      f-3     :     0.001058
 13 H s       :     0.795951  s :     0.795951
      pz      :     0.012335  p :     0.061041
      px      :     0.022812
      py      :     0.025895
 14 H s       :     0.795994  s :     0.795994
      pz      :     0.012854  p :     0.060930
      px      :     0.014791
      py      :     0.033285
 15 H s       :     0.794608  s :     0.794608
      pz      :     0.013230  p :     0.060760
      px      :     0.034164
      py      :     0.013366
 16 C s       :     2.838891  s :     2.838891
      pz      :     1.191131  p :     2.853265
      px      :     0.830777
      py      :     0.831357
      dz2     :     0.154197  d :     0.447925
      dxz     :     0.147446
      dyz     :     0.144955
      dx2y2   :     0.000196
      dxy     :     0.001131
      f0      :     0.023016  f :     0.058772
      f+1     :     0.017822
      f-1     :     0.017581
      f+2     :     0.000132
      f-2     :     0.000219
      f+3     :     0.000001
      f-3     :     0.000001
 17 N s       :     3.314225  s :     3.314225
      pz      :     1.494380  p :     3.546542
      px      :     1.028154
      py      :     1.024009
      dz2     :     0.045803  d :     0.111561
      dxz     :     0.032764
      dyz     :     0.032794
      dx2y2   :     0.000105
      dxy     :     0.000095
      f0      :     0.006217  f :     0.014410
      f+1     :     0.004075
      f-1     :     0.004056
      f+2     :     0.000033
      f-2     :     0.000030
      f+3     :     0.000000
      f-3     :     0.000000


                      *****************************
                      * MAYER POPULATION ANALYSIS *
                      *****************************

  NA   - Mulliken gross atomic population
  ZA   - Total nuclear charge
  QA   - Mulliken gross atomic charge
  VA   - Mayer's total valence
  BVA  - Mayer's bonded valence
  FA   - Mayer's free valence

  ATOM       NA         ZA         QA         VA         BVA        FA
  0 C      6.1664     6.0000    -0.1664     3.8044     3.8044     0.0000
  1 H      0.8421     1.0000     0.1579     0.9620     0.9620     0.0000
  2 H      0.8386     1.0000     0.1614     0.9614     0.9614     0.0000
  3 H      0.8452     1.0000     0.1548     0.9616     0.9616     0.0000
  4 C      6.1024     6.0000    -0.1024     3.9259     3.9259     0.0000
  5 N      7.2051     7.0000    -0.2051     3.0390     3.0390     0.0000
  6 C      6.1657     6.0000    -0.1657     3.8052     3.8052     0.0000
  7 H      0.8439     1.0000     0.1561     0.9623     0.9623     0.0000
  8 H      0.8456     1.0000     0.1544     0.9616     0.9616     0.0000
  9 H      0.8392     1.0000     0.1608     0.9613     0.9613     0.0000
 10 C      6.1043     6.0000    -0.1043     3.9228     3.9228    -0.0000
 11 N      7.2013     7.0000    -0.2013     3.0378     3.0378     0.0000
 12 C      6.1668     6.0000    -0.1668     3.8087     3.8087     0.0000
 13 H      0.8446     1.0000     0.1554     0.9619     0.9619     0.0000
 14 H      0.8435     1.0000     0.1565     0.9619     0.9619     0.0000
 15 H      0.8443     1.0000     0.1557     0.9618     0.9618     0.0000
 16 C      6.1064     6.0000    -0.1064     3.9223     3.9223     0.0000
 17 N      7.1944     7.0000    -0.1944     3.0369     3.0369     0.0000

  Mayer bond orders larger than 0.100000
B(  0-C ,  1-H ) :   0.9620 B(  0-C ,  2-H ) :   0.9613 B(  0-C ,  3-H ) :   0.9630 
B(  0-C ,  4-C ) :   0.9293 B(  4-C ,  5-N ) :   3.0138 B(  6-C ,  7-H ) :   0.9623 
B(  6-C ,  8-H ) :   0.9633 B(  6-C ,  9-H ) :   0.9618 B(  6-C , 10-C ) :   0.9288 
B( 10-C , 11-N ) :   3.0124 B( 12-C , 13-H ) :   0.9636 B( 12-C , 14-H ) :   0.9625 
B( 12-C , 15-H ) :   0.9637 B( 12-C , 16-C ) :   0.9297 B( 16-C , 17-N ) :   3.0115 


-------
TIMINGS
-------

Total SCF time: 0 days 0 hours 0 min 19 sec 

Total time                  ....      19.642 sec
Sum of individual times     ....      19.347 sec  ( 98.5%)

Fock matrix formation       ....      18.823 sec  ( 95.8%)
Diagonalization             ....       0.137 sec  (  0.7%)
Density matrix formation    ....       0.019 sec  (  0.1%)
Population analysis         ....       0.025 sec  (  0.1%)
Initial guess               ....       0.154 sec  (  0.8%)
Orbital Transformation      ....       0.000 sec  (  0.0%)
Orbital Orthonormalization  ....       0.000 sec  (  0.0%)
DIIS solution               ....       0.051 sec  (  0.3%)
SOSCF solution              ....       0.074 sec  (  0.4%)


           ************************************************************
           *        Program running with 6 parallel MPI-processes     *
           *              working on a common directory               *
           ************************************************************

------------------------------------------------------------------------------
                                ORCA  MP2 
------------------------------------------------------------------------------

Freezing NCore=18 chemical core electrons
MP2 will be done in the AO integral direct mode
The Q1-step will be done using symmetric double matrices
Dimension of the basis                    ...  333
Memory devoted for MP2                    ... 8000 MB   
Memory needed for all in one shot         ...  566 MB
Number of MOs that can be treated together...   55      
MP2 density construction                  ... relaxed
The MP2 gradient is requested => amplitudes will be stored on disk
Total number of MOs              ...   24
Number of MOs treated per batch  ...    4 
Number of batches necessary      ...    1 
OPERATORS   0/  0 PASS   0
-----------------------------------------------
 MP2 CORRELATION ENERGY   :     -1.525523645 Eh
-----------------------------------------------


---------------------
MP2 DENSITY FORMATION
---------------------

Completing the external part of the density      ... done
Storing the unrelaxed density                    ... done

Calculating G(D)                                 ... done
Completing the Lagrangian                        ... done
Solving the Z-vector equations                   ... 

------------------------------------------------------------------------------
                           ORCA CP-SCF CALCULATION
------------------------------------------------------------------------------

Input orbitals are from        ... 12mecn.remya.etal.2.mol2,5,6-orca.engrad-mp2.def2tzvp.frozencore.gbw
Input Perturbation             ... 12mecn.remya.etal.2.mol2,5,6-orca.engrad-mp2.def2tzvp.frozencore.pin.tmp
Wavefunction output            ... 12mecn.remya.etal.2.mol2,5,6-orca.engrad-mp2.def2tzvp.frozencore.pout.tmp
Perturbation mode              ... Real perturbation (singlet)
Solver                         ... POPLE
Max. number of iterations      ... 128
Convergence tolerance          ... 1.000e-08
Integral handling              ... Direct
Number of perturbations        ... 1
Number of operators            ... 1
Orbital ranges used for CP-SCF:
 Operator 0:  Orbitals   0... 32  to  33...332
Variables per vector in CP-SCF ... 9900
Number of vectors sought       ... 1
     CP-SCF ITERATION   0: 
     CP-SCF ITERATION   1:      0.001364180365
     CP-SCF ITERATION   2:      0.000272284037
     CP-SCF ITERATION   3:      0.000005867914
     CP-SCF ITERATION   4:      0.000000390923
     CP-SCF ITERATION   5:      0.000000066964
     CP-SCF ITERATION   6:      0.000000016528
     CP-SCF ITERATION   7:      0.000000005200
                                                 ... done
Finalizing the relaxed density                   ... done
Transforming P to the AO basis                   ... done
Storing the relaxed density                      ... done

------------------------------------
ENERGY WEIGHTED DENSITY FINALIZATION
------------------------------------

Gathering the parts of the W-matrix              ...                                                      done
Forming the Z-density                            ... done
Transforming Z to the AO basis                   ... done
Calculating G(Z)                                 ... done
Finalizing the W-matrix                          ...                                                      done
Transforming W to the AO basis and storing       ... done

                *********************************************
                * UNRELAXED MP2 DENSITY POPULATION ANALYSIS *
                *********************************************

------------------------------------------------------------------------------
                           ORCA POPULATION ANALYSIS
------------------------------------------------------------------------------
Input electron density              ... 12mecn.remya.etal.2.mol2,5,6-orca.engrad-mp2.def2tzvp.frozencore.pmp2ur
BaseName (.gbw .S,...)              ... 12mecn.remya.etal.2.mol2,5,6-orca.engrad-mp2.def2tzvp.frozencore

                    ********************************
                    * MULLIKEN POPULATION ANALYSIS *
                    ********************************

-----------------------
MULLIKEN ATOMIC CHARGES
-----------------------
   0 C :   -0.179638
   1 H :    0.160453
   2 H :    0.163909
   3 H :    0.157360
   4 C :   -0.111477
   5 N :   -0.190593
   6 C :   -0.178912
   7 H :    0.158643
   8 H :    0.156998
   9 H :    0.163364
  10 C :   -0.113260
  11 N :   -0.186846
  12 C :   -0.180042
  13 H :    0.157953
  14 H :    0.159030
  15 H :    0.158284
  16 C :   -0.115029
  17 N :   -0.180197
Sum of atomic charges:    0.0000000

--------------------------------
MULLIKEN REDUCED ORBITAL CHARGES
--------------------------------
  0 C s       :     3.147878  s :     3.147878
      pz      :     0.790805  p :     2.937314
      px      :     1.071971
      py      :     1.074538
      dz2     :     0.020327  d :     0.087119
      dxz     :     0.017136
      dyz     :     0.017247
      dx2y2   :     0.015546
      dxy     :     0.016864
      f0      :     0.002111  f :     0.007326
      f+1     :     0.000871
      f-1     :     0.000868
      f+2     :     0.000595
      f-2     :     0.000622
      f+3     :     0.000975
      f-3     :     0.001285
  1 H s       :     0.814312  s :     0.814312
      pz      :     0.006065  p :     0.025235
      px      :     0.013446
      py      :     0.005724
  2 H s       :     0.810863  s :     0.810863
      pz      :     0.006028  p :     0.025228
      px      :     0.005223
      py      :     0.013977
  3 H s       :     0.817418  s :     0.817418
      pz      :     0.005561  p :     0.025222
      px      :     0.010329
      py      :     0.009332
  4 C s       :     3.235120  s :     3.235120
      pz      :     0.961857  p :     2.726442
      px      :     0.882836
      py      :     0.881749
      dz2     :     0.029198  d :     0.129639
      dxz     :     0.045184
      dyz     :     0.045345
      dx2y2   :     0.004631
      dxy     :     0.005282
      f0      :     0.004661  f :     0.020277
      f+1     :     0.006883
      f-1     :     0.006891
      f+2     :     0.000642
      f-2     :     0.000687
      f+3     :     0.000257
      f-3     :     0.000257
  5 N s       :     3.700139  s :     3.700139
      pz      :     1.276175  p :     3.407871
      px      :     1.065291
      py      :     1.066405
      dz2     :     0.015986  d :     0.076906
      dxz     :     0.025467
      dyz     :     0.025466
      dx2y2   :     0.004999
      dxy     :     0.004988
      f0      :     0.001070  f :     0.005678
      f+1     :     0.001593
      f-1     :     0.001593
      f+2     :     0.000432
      f-2     :     0.000431
      f+3     :     0.000279
      f-3     :     0.000279
  6 C s       :     3.148283  s :     3.148283
      pz      :     0.791653  p :     2.935957
      px      :     1.069867
      py      :     1.074437
      dz2     :     0.020429  d :     0.087339
      dxz     :     0.016934
      dyz     :     0.017582
      dx2y2   :     0.016049
      dxy     :     0.016345
      f0      :     0.002112  f :     0.007333
      f+1     :     0.000870
      f-1     :     0.000872
      f+2     :     0.000607
      f-2     :     0.000596
      f+3     :     0.000825
      f-3     :     0.001451
  7 H s       :     0.816147  s :     0.816147
      pz      :     0.005745  p :     0.025210
      px      :     0.013490
      py      :     0.005975
  8 H s       :     0.817852  s :     0.817852
      pz      :     0.005750  p :     0.025150
      px      :     0.010673
      py      :     0.008727
  9 H s       :     0.811424  s :     0.811424
      pz      :     0.006030  p :     0.025212
      px      :     0.004949
      py      :     0.014232
 10 C s       :     3.234107  s :     3.234107
      pz      :     0.960655  p :     2.729336
      px      :     0.884931
      py      :     0.883750
      dz2     :     0.028988  d :     0.129523
      dxz     :     0.045326
      dyz     :     0.045672
      dx2y2   :     0.004691
      dxy     :     0.004846
      f0      :     0.004580  f :     0.020294
      f+1     :     0.006999
      f-1     :     0.007022
      f+2     :     0.000583
      f-2     :     0.000600
      f+3     :     0.000255
      f-3     :     0.000255
 11 N s       :     3.702776  s :     3.702776
      pz      :     1.275423  p :     3.401435
      px      :     1.062329
      py      :     1.063683
      dz2     :     0.015861  d :     0.076965
      dxz     :     0.025681
      dyz     :     0.025669
      dx2y2   :     0.004878
      dxy     :     0.004877
      f0      :     0.001049  f :     0.005670
      f+1     :     0.001618
      f-1     :     0.001617
      f+2     :     0.000416
      f-2     :     0.000416
      f+3     :     0.000277
      f-3     :     0.000277
 12 C s       :     3.146061  s :     3.146061
      pz      :     0.794005  p :     2.939012
      px      :     1.072302
      py      :     1.072704
      dz2     :     0.020142  d :     0.087636
      dxz     :     0.017804
      dyz     :     0.017423
      dx2y2   :     0.015562
      dxy     :     0.016705
      f0      :     0.002121  f :     0.007334
      f+1     :     0.000874
      f-1     :     0.000870
      f+2     :     0.000602
      f-2     :     0.000619
      f+3     :     0.001314
      f-3     :     0.000934
 13 H s       :     0.816783  s :     0.816783
      pz      :     0.005666  p :     0.025264
      px      :     0.009151
      py      :     0.010447
 14 H s       :     0.815761  s :     0.815761
      pz      :     0.005924  p :     0.025209
      px      :     0.005800
      py      :     0.013485
 15 H s       :     0.816484  s :     0.816484
      pz      :     0.006122  p :     0.025232
      px      :     0.013888
      py      :     0.005222
 16 C s       :     3.233143  s :     3.233143
      pz      :     0.958935  p :     2.732244
      px      :     0.885519
      py      :     0.887790
      dz2     :     0.029231  d :     0.129339
      dxz     :     0.045639
      dyz     :     0.044745
      dx2y2   :     0.004638
      dxy     :     0.005087
      f0      :     0.004623  f :     0.020303
      f+1     :     0.006959
      f-1     :     0.006955
      f+2     :     0.000610
      f-2     :     0.000644
      f+3     :     0.000256
      f-3     :     0.000256
 17 N s       :     3.703931  s :     3.703931
      pz      :     1.273586  p :     3.393601
      px      :     1.061961
      py      :     1.058053
      dz2     :     0.015907  d :     0.076995
      dxz     :     0.025565
      dyz     :     0.025682
      dx2y2   :     0.004924
      dxy     :     0.004917
      f0      :     0.001058  f :     0.005669
      f+1     :     0.001600
      f-1     :     0.001611
      f+2     :     0.000423
      f-2     :     0.000423
      f+3     :     0.000277
      f-3     :     0.000277


                     *******************************
                     * LOEWDIN POPULATION ANALYSIS *
                     *******************************

----------------------
LOEWDIN ATOMIC CHARGES
----------------------
   0 C :   -0.251841
   1 H :    0.147064
   2 H :    0.148334
   3 H :    0.144221
   4 C :   -0.202331
   5 N :    0.014558
   6 C :   -0.252576
   7 H :    0.146174
   8 H :    0.145552
   9 H :    0.147454
  10 C :   -0.203839
  11 N :    0.017231
  12 C :   -0.253198
  13 H :    0.144680
  14 H :    0.144767
  15 H :    0.146283
  16 C :   -0.204002
  17 N :    0.021471

-------------------------------
LOEWDIN REDUCED ORBITAL CHARGES
-------------------------------
  0 C s       :     2.812642  s :     2.812642
      pz      :     1.014722  p :     3.118608
      px      :     1.051633
      py      :     1.052254
      dz2     :     0.082830  d :     0.289315
      dxz     :     0.066690
      dyz     :     0.066858
      dx2y2   :     0.033354
      dxy     :     0.039582
      f0      :     0.008467  f :     0.031277
      f+1     :     0.006143
      f-1     :     0.006104
      f+2     :     0.003168
      f-2     :     0.002709
      f+3     :     0.001859
      f-3     :     0.002827
  1 H s       :     0.787404  s :     0.787404
      pz      :     0.014531  p :     0.065531
      px      :     0.035186
      py      :     0.015815
  2 H s       :     0.786135  s :     0.786135
      pz      :     0.014459  p :     0.065531
      px      :     0.014568
      py      :     0.036505
  3 H s       :     0.790075  s :     0.790075
      pz      :     0.013465  p :     0.065704
      px      :     0.027350
      py      :     0.024890
  4 C s       :     2.836430  s :     2.836430
      pz      :     1.179004  p :     2.830309
      px      :     0.825946
      py      :     0.825359
      dz2     :     0.161088  d :     0.469048
      dxz     :     0.148262
      dyz     :     0.148818
      dx2y2   :     0.004789
      dxy     :     0.006090
      f0      :     0.024522  f :     0.066544
      f+1     :     0.019763
      f-1     :     0.019799
      f+2     :     0.000914
      f-2     :     0.001028
      f+3     :     0.000259
      f-3     :     0.000259
  5 N s       :     3.305988  s :     3.305988
      pz      :     1.477796  p :     3.520201
      px      :     1.020793
      py      :     1.021613
      dz2     :     0.052434  d :     0.140463
      dxz     :     0.039036
      dyz     :     0.038993
      dx2y2   :     0.005008
      dxy     :     0.004992
      f0      :     0.007247  f :     0.018789
      f+1     :     0.004993
      f-1     :     0.004988
      f+2     :     0.000504
      f-2     :     0.000499
      f+3     :     0.000279
      f-3     :     0.000279
  6 C s       :     2.812884  s :     2.812884
      pz      :     1.016273  p :     3.118333
      px      :     1.049929
      py      :     1.052131
      dz2     :     0.083187  d :     0.289976
      dxz     :     0.065660
      dyz     :     0.068072
      dx2y2   :     0.035596
      dxy     :     0.037460
      f0      :     0.008499  f :     0.031383
      f+1     :     0.006346
      f-1     :     0.006092
      f+2     :     0.002978
      f-2     :     0.002759
      f+3     :     0.001379
      f-3     :     0.003329
  7 H s       :     0.788345  s :     0.788345
      pz      :     0.013859  p :     0.065480
      px      :     0.035128
      py      :     0.016493
  8 H s       :     0.789101  s :     0.789101
      pz      :     0.013865  p :     0.065347
      px      :     0.028146
      py      :     0.023336
  9 H s       :     0.787007  s :     0.787007
      pz      :     0.014458  p :     0.065539
      px      :     0.013940
      py      :     0.037141
 10 C s       :     2.836062  s :     2.836062
      pz      :     1.180249  p :     2.832149
      px      :     0.826131
      py      :     0.825768
      dz2     :     0.161599  d :     0.469155
      dxz     :     0.148520
      dyz     :     0.149375
      dx2y2   :     0.004664
      dxy     :     0.004997
      f0      :     0.024668  f :     0.066473
      f+1     :     0.019861
      f-1     :     0.019952
      f+2     :     0.000713
      f-2     :     0.000767
      f+3     :     0.000255
      f-3     :     0.000256
 11 N s       :     3.306674  s :     3.306674
      pz      :     1.479558  p :     3.516696
      px      :     1.018085
      py      :     1.019053
      dz2     :     0.052704  d :     0.140645
      dxz     :     0.039188
      dyz     :     0.039138
      dx2y2   :     0.004808
      dxy     :     0.004806
      f0      :     0.007300  f :     0.018754
      f+1     :     0.005014
      f-1     :     0.005010
      f+2     :     0.000438
      f-2     :     0.000438
      f+3     :     0.000277
      f-3     :     0.000277
 12 C s       :     2.811815  s :     2.811815
      pz      :     1.015938  p :     3.119412
      px      :     1.052120
      py      :     1.051354
      dz2     :     0.082294  d :     0.290623
      dxz     :     0.068568
      dyz     :     0.067018
      dx2y2   :     0.033953
      dxy     :     0.038791
      f0      :     0.008454  f :     0.031349
      f+1     :     0.006061
      f-1     :     0.006223
      f+2     :     0.003140
      f-2     :     0.002791
      f+3     :     0.002940
      f-3     :     0.001740
 13 H s       :     0.789531  s :     0.789531
      pz      :     0.013724  p :     0.065789
      px      :     0.024426
      py      :     0.027639
 14 H s       :     0.789577  s :     0.789577
      pz      :     0.014267  p :     0.065656
      px      :     0.016075
      py      :     0.035314
 15 H s       :     0.788202  s :     0.788202
      pz      :     0.014667  p :     0.065515
      px      :     0.036250
      py      :     0.014598
 16 C s       :     2.835612  s :     2.835612
      pz      :     1.178622  p :     2.834496
      px      :     0.827708
      py      :     0.828165
      dz2     :     0.161493  d :     0.467421
      dxz     :     0.149046
      dyz     :     0.146623
      dx2y2   :     0.004677
      dxy     :     0.005582
      f0      :     0.024632  f :     0.066474
      f+1     :     0.019932
      f-1     :     0.019693
      f+2     :     0.000804
      f-2     :     0.000897
      f+3     :     0.000258
      f-3     :     0.000258
 17 N s       :     3.306401  s :     3.306401
      pz      :     1.478515  p :     3.512210
      px      :     1.018845
      py      :     1.014851
      dz2     :     0.052626  d :     0.141082
      dxz     :     0.039335
      dyz     :     0.039344
      dx2y2   :     0.004893
      dxy     :     0.004883
      f0      :     0.007285  f :     0.018836
      f+1     :     0.005041
      f-1     :     0.005018
      f+2     :     0.000470
      f-2     :     0.000467
      f+3     :     0.000277
      f-3     :     0.000277


                      *****************************
                      * MAYER POPULATION ANALYSIS *
                      *****************************

  NA   - Mulliken gross atomic population
  ZA   - Total nuclear charge
  QA   - Mulliken gross atomic charge
  VA   - Mayer's total valence
  BVA  - Mayer's bonded valence
  FA   - Mayer's free valence

  ATOM       NA         ZA         QA         VA         BVA        FA
  0 C      6.1796     6.0000    -0.1796     3.9221     3.6393     0.2827
  1 H      0.8395     1.0000     0.1605     0.9695     0.9220     0.0475
  2 H      0.8361     1.0000     0.1639     0.9687     0.9214     0.0474
  3 H      0.8426     1.0000     0.1574     0.9692     0.9217     0.0475
  4 C      6.1115     6.0000    -0.1115     4.0269     3.5899     0.4370
  5 N      7.1906     7.0000    -0.1906     3.2355     2.7498     0.4857
  6 C      6.1789     6.0000    -0.1789     3.9227     3.6399     0.2828
  7 H      0.8414     1.0000     0.1586     0.9698     0.9223     0.0475
  8 H      0.8430     1.0000     0.1570     0.9692     0.9215     0.0477
  9 H      0.8366     1.0000     0.1634     0.9687     0.9213     0.0474
 10 C      6.1133     6.0000    -0.1133     4.0241     3.5861     0.4381
 11 N      7.1868     7.0000    -0.1868     3.2338     2.7477     0.4861
 12 C      6.1800     6.0000    -0.1800     3.9263     3.6435     0.2828
 13 H      0.8420     1.0000     0.1580     0.9694     0.9219     0.0475
 14 H      0.8410     1.0000     0.1590     0.9694     0.9220     0.0474
 15 H      0.8417     1.0000     0.1583     0.9693     0.9216     0.0477
 16 C      6.1150     6.0000    -0.1150     4.0237     3.5857     0.4380
 17 N      7.1802     7.0000    -0.1802     3.2321     2.7468     0.4853

  Mayer bond orders larger than 0.100000
B(  0-C ,  1-H ) :   0.9246 B(  0-C ,  2-H ) :   0.9240 B(  0-C ,  3-H ) :   0.9257 
B(  0-C ,  4-C ) :   0.8778 B(  4-C ,  5-N ) :   2.7313 B(  6-C ,  7-H ) :   0.9249 
B(  6-C ,  8-H ) :   0.9259 B(  6-C ,  9-H ) :   0.9245 B(  6-C , 10-C ) :   0.8772 
B( 10-C , 11-N ) :   2.7291 B( 12-C , 13-H ) :   0.9263 B( 12-C , 14-H ) :   0.9252 
B( 12-C , 15-H ) :   0.9262 B( 12-C , 16-C ) :   0.8782 B( 16-C , 17-N ) :   2.7283 



                *******************************************
                * RELAXED MP2 DENSITY POPULATION ANALYSIS *
                *******************************************

------------------------------------------------------------------------------
                           ORCA POPULATION ANALYSIS
------------------------------------------------------------------------------
Input electron density              ... 12mecn.remya.etal.2.mol2,5,6-orca.engrad-mp2.def2tzvp.frozencore.pmp2re
BaseName (.gbw .S,...)              ... 12mecn.remya.etal.2.mol2,5,6-orca.engrad-mp2.def2tzvp.frozencore

                    ********************************
                    * MULLIKEN POPULATION ANALYSIS *
                    ********************************

-----------------------
MULLIKEN ATOMIC CHARGES
-----------------------
   0 C :   -0.279528
   1 H :    0.173996
   2 H :    0.177173
   3 H :    0.171117
   4 C :   -0.144906
   5 N :   -0.097839
   6 C :   -0.279084
   7 H :    0.172252
   8 H :    0.170717
   9 H :    0.176704
  10 C :   -0.145250
  11 N :   -0.095352
  12 C :   -0.280804
  13 H :    0.171857
  14 H :    0.172551
  15 H :    0.172187
  16 C :   -0.145562
  17 N :   -0.090229
Sum of atomic charges:    0.0000000

--------------------------------
MULLIKEN REDUCED ORBITAL CHARGES
--------------------------------
  0 C s       :     3.183888  s :     3.183888
      pz      :     0.837405  p :     3.011746
      px      :     1.086050
      py      :     1.088291
      dz2     :     0.016059  d :     0.076823
      dxz     :     0.017289
      dyz     :     0.017394
      dx2y2   :     0.012555
      dxy     :     0.013527
      f0      :     0.001875  f :     0.007071
      f+1     :     0.000929
      f-1     :     0.000928
      f+2     :     0.000585
      f-2     :     0.000612
      f+3     :     0.000932
      f-3     :     0.001209
  1 H s       :     0.801917  s :     0.801917
      pz      :     0.006061  p :     0.024086
      px      :     0.012242
      py      :     0.005783
  2 H s       :     0.798753  s :     0.798753
      pz      :     0.006030  p :     0.024074
      px      :     0.005360
      py      :     0.012683
  3 H s       :     0.804806  s :     0.804806
      pz      :     0.005628  p :     0.024077
      px      :     0.009640
      py      :     0.008809
  4 C s       :     3.214412  s :     3.214412
      pz      :     0.996172  p :     2.806491
      px      :     0.905290
      py      :     0.905029
      dz2     :     0.024385  d :     0.105068
      dxz     :     0.035401
      dyz     :     0.035541
      dx2y2   :     0.004574
      dxy     :     0.005167
      f0      :     0.004468  f :     0.018934
      f+1     :     0.006322
      f-1     :     0.006328
      f+2     :     0.000632
      f-2     :     0.000671
      f+3     :     0.000257
      f-3     :     0.000257
  5 N s       :     3.640518  s :     3.640518
      pz      :     1.266958  p :     3.384149
      px      :     1.058405
      py      :     1.058786
      dz2     :     0.014939  d :     0.067966
      dxz     :     0.021538
      dyz     :     0.021548
      dx2y2   :     0.004975
      dxy     :     0.004966
      f0      :     0.000951  f :     0.005206
      f+1     :     0.001419
      f-1     :     0.001420
      f+2     :     0.000429
      f-2     :     0.000429
      f+3     :     0.000279
      f-3     :     0.000279
[...]
      f+1     :     0.006423
      f-1     :     0.006442
      f+2     :     0.000579
      f-2     :     0.000595
      f+3     :     0.000255
      f-3     :     0.000255
 11 N s       :     3.643672  s :     3.643672
      pz      :     1.265993  p :     3.378487
      px      :     1.055919
      py      :     1.056575
      dz2     :     0.014859  d :     0.067997
      dxz     :     0.021691
      dyz     :     0.021694
      dx2y2   :     0.004877
      dxy     :     0.004876
      f0      :     0.000932  f :     0.005197
      f+1     :     0.001440
      f-1     :     0.001440
      f+2     :     0.000416
      f-2     :     0.000416
      f+3     :     0.000277
      f-3     :     0.000277
 12 C s       :     3.182270  s :     3.182270
      pz      :     0.840412  p :     3.014121
      px      :     1.086370
      py      :     1.087339
      dz2     :     0.015878  d :     0.077334
      dxz     :     0.017886
      dyz     :     0.017593
      dx2y2   :     0.012552
      dxy     :     0.013424
      f0      :     0.001885  f :     0.007080
      f+1     :     0.000934
      f-1     :     0.000930
      f+2     :     0.000591
      f-2     :     0.000609
      f+3     :     0.001235
      f-3     :     0.000896
 13 H s       :     0.804021  s :     0.804021
      pz      :     0.005726  p :     0.024122
      px      :     0.008667
      py      :     0.009729
 14 H s       :     0.803386  s :     0.803386
      pz      :     0.005931  p :     0.024063
      px      :     0.005851
      py      :     0.012281
 15 H s       :     0.803718  s :     0.803718
      pz      :     0.006117  p :     0.024095
      px      :     0.012614
      py      :     0.005365
 16 C s       :     3.212343  s :     3.212343
      pz      :     0.993453  p :     2.809544
      px      :     0.908233
      py      :     0.907859
      dz2     :     0.024412  d :     0.104712
      dxz     :     0.035754
      dyz     :     0.034933
      dx2y2   :     0.004601
      dxy     :     0.005012
      f0      :     0.004435  f :     0.018963
      f+1     :     0.006389
      f-1     :     0.006390
      f+2     :     0.000603
      f-2     :     0.000634
      f+3     :     0.000256
      f-3     :     0.000256
 17 N s       :     3.645195  s :     3.645195
      pz      :     1.263782  p :     3.371835
      px      :     1.054898
      py      :     1.053155
      dz2     :     0.014884  d :     0.068003
      dxz     :     0.021625
      dyz     :     0.021677
      dx2y2   :     0.004911
      dxy     :     0.004906
      f0      :     0.000940  f :     0.005196
      f+1     :     0.001425
      f-1     :     0.001433
      f+2     :     0.000422
      f-2     :     0.000422
      f+3     :     0.000277
      f-3     :     0.000277


                     *******************************
                     * LOEWDIN POPULATION ANALYSIS *
                     *******************************

----------------------
LOEWDIN ATOMIC CHARGES
----------------------
   0 C :   -0.282626
   1 H :    0.153747
   2 H :    0.154938
   3 H :    0.150959
   4 C :   -0.218170
   5 N :    0.041157
   6 C :   -0.283377
   7 H :    0.152895
   8 H :    0.152339
   9 H :    0.154081
  10 C :   -0.219336
  11 N :    0.043393
  12 C :   -0.283943
  13 H :    0.151425
  14 H :    0.151447
  15 H :    0.153065
  16 C :   -0.218893
  17 N :    0.046900

-------------------------------
LOEWDIN REDUCED ORBITAL CHARGES
-------------------------------
  0 C s       :     2.817547  s :     2.817547
      pz      :     1.032950  p :     3.155192
      px      :     1.060857
      py      :     1.061385
      dz2     :     0.075195  d :     0.278399
      dxz     :     0.068238
      dyz     :     0.068448
      dx2y2   :     0.030350
      dxy     :     0.036169
      f0      :     0.007968  f :     0.031488
      f+1     :     0.006560
      f-1     :     0.006529
      f+2     :     0.003158
      f-2     :     0.002693
      f+3     :     0.001821
      f-3     :     0.002760
  1 H s       :     0.780439  s :     0.780439
      pz      :     0.015009  p :     0.065813
      px      :     0.034618
      py      :     0.016186
  2 H s       :     0.779271  s :     0.779271
      pz      :     0.014939  p :     0.065791
      px      :     0.014997
      py      :     0.035856
  3 H s       :     0.783034  s :     0.783034
      pz      :     0.014008  p :     0.066007
      px      :     0.027168
      py      :     0.024831
  4 C s       :     2.841795  s :     2.841795
      pz      :     1.170062  p :     2.857184
      px      :     0.843592
      py      :     0.843529
      dz2     :     0.163040  d :     0.452691
      dxz     :     0.139265
      dyz     :     0.139724
      dx2y2   :     0.004730
      dxy     :     0.005933
      f0      :     0.025491  f :     0.066501
      f+1     :     0.019289
      f-1     :     0.019300
      f+2     :     0.000911
      f-2     :     0.000992
      f+3     :     0.000258
      f-3     :     0.000259
  5 N s       :     3.306138  s :     3.306138
      pz      :     1.465208  p :     3.497060
      px      :     1.015778
      py      :     1.016073
      dz2     :     0.053018  d :     0.136471
      dxz     :     0.036739
      dyz     :     0.036741
      dx2y2   :     0.004992
      dxy     :     0.004981
      f0      :     0.007343  f :     0.019175
      f+1     :     0.005134
      f-1     :     0.005133
      f+2     :     0.000506
      f-2     :     0.000501
      f+3     :     0.000279
      f-3     :     0.000279
  6 C s       :     2.817784  s :     2.817784
      pz      :     1.034474  p :     3.154969
      px      :     1.059156
      py      :     1.061339
      dz2     :     0.075500  d :     0.279026
      dxz     :     0.067327
      dyz     :     0.069607
      dx2y2   :     0.032434
      dxy     :     0.034158
      f0      :     0.007989  f :     0.031598
      f+1     :     0.006779
      f-1     :     0.006525
      f+2     :     0.002962
      f-2     :     0.002741
      f+3     :     0.001356
      f-3     :     0.003246
  7 H s       :     0.781333  s :     0.781333
      pz      :     0.014388  p :     0.065773
      px      :     0.034549
      py      :     0.016836
  8 H s       :     0.782005  s :     0.782005
      pz      :     0.014394  p :     0.065657
      px      :     0.027914
      py      :     0.023349
  9 H s       :     0.780111  s :     0.780111
      pz      :     0.014943  p :     0.065807
      px      :     0.014401
      py      :     0.036464
 10 C s       :     2.841479  s :     2.841479
      pz      :     1.171290  p :     2.858518
      px      :     0.843558
      py      :     0.843670
      dz2     :     0.163768  d :     0.452895
      dxz     :     0.139406
      dyz     :     0.140174
      dx2y2   :     0.004620
      dxy     :     0.004927
      f0      :     0.025673  f :     0.066445
      f+1     :     0.019374
      f-1     :     0.019435
      f+2     :     0.000704
      f-2     :     0.000748
      f+3     :     0.000255
      f-3     :     0.000256
 11 N s       :     3.306829  s :     3.306829
      pz      :     1.466819  p :     3.494062
      px      :     1.013381
      py      :     1.013862
      dz2     :     0.053348  d :     0.136583
      dxz     :     0.036811
      dyz     :     0.036811
      dx2y2   :     0.004807
      dxy     :     0.004806
      f0      :     0.007394  f :     0.019133
      f+1     :     0.005154
      f-1     :     0.005154
      f+2     :     0.000438
      f-2     :     0.000438
      f+3     :     0.000277
      f-3     :     0.000277
 12 C s       :     2.816725  s :     2.816725
      pz      :     1.033913  p :     3.156026
      px      :     1.061495
      py      :     1.060619
      dz2     :     0.074733  d :     0.279636
      dxz     :     0.070051
      dyz     :     0.068537
      dx2y2   :     0.030887
      dxy     :     0.035429
      f0      :     0.007958  f :     0.031555
      f+1     :     0.006485
      f-1     :     0.006641
      f+2     :     0.003125
      f-2     :     0.002773
      f+3     :     0.002869
      f-3     :     0.001706
 13 H s       :     0.782471  s :     0.782471
      pz      :     0.014263  p :     0.066105
      px      :     0.024405
      py      :     0.027438
 14 H s       :     0.782608  s :     0.782608
      pz      :     0.014758  p :     0.065946
      px      :     0.016438
      py      :     0.034750
 15 H s       :     0.781100  s :     0.781100
      pz      :     0.015151  p :     0.065835
      px      :     0.035655
      py      :     0.015030
 16 C s       :     2.841143  s :     2.841143
      pz      :     1.169836  p :     2.859932
      px      :     0.845561
      py      :     0.844536
      dz2     :     0.163571  d :     0.451333
      dxz     :     0.139943
      dyz     :     0.137720
      dx2y2   :     0.004631
      dxy     :     0.005467
      f0      :     0.025608  f :     0.066485
      f+1     :     0.019436
      f-1     :     0.019258
      f+2     :     0.000800
      f-2     :     0.000868
      f+3     :     0.000258
      f-3     :     0.000257
 17 N s       :     3.306532  s :     3.306532
      pz      :     1.465678  p :     3.490429
      px      :     1.013593
      py      :     1.011158
      dz2     :     0.053264  d :     0.136930
      dxz     :     0.037033
      dyz     :     0.036871
      dx2y2   :     0.004885
      dxy     :     0.004877
      f0      :     0.007383  f :     0.019208
      f+1     :     0.005185
      f-1     :     0.005146
      f+2     :     0.000471
      f-2     :     0.000468
      f+3     :     0.000277
      f-3     :     0.000277


                      *****************************
                      * MAYER POPULATION ANALYSIS *
                      *****************************

  NA   - Mulliken gross atomic population
  ZA   - Total nuclear charge
  QA   - Mulliken gross atomic charge
  VA   - Mayer's total valence
  BVA  - Mayer's bonded valence
  FA   - Mayer's free valence

  ATOM       NA         ZA         QA         VA         BVA        FA
  0 C      6.2795     6.0000    -0.2795     3.9268     3.6452     0.2816
  1 H      0.8260     1.0000     0.1740     0.9634     0.9164     0.0469
  2 H      0.8228     1.0000     0.1772     0.9626     0.9158     0.0468
  3 H      0.8289     1.0000     0.1711     0.9632     0.9162     0.0470
  4 C      6.1449     6.0000    -0.1449     4.1523     3.7260     0.4263
  5 N      7.0978     7.0000    -0.0978     3.3505     2.8772     0.4733
  6 C      6.2791     6.0000    -0.2791     3.9272     3.6455     0.2817
  7 H      0.8277     1.0000     0.1723     0.9639     0.9169     0.0470
  8 H      0.8293     1.0000     0.1707     0.9632     0.9161     0.0471
  9 H      0.8233     1.0000     0.1767     0.9625     0.9157     0.0468
 10 C      6.1452     6.0000    -0.1452     4.1487     3.7214     0.4272
 11 N      7.0954     7.0000    -0.0954     3.3484     2.8747     0.4737
 12 C      6.2808     6.0000    -0.2808     3.9304     3.6488     0.2817
 13 H      0.8281     1.0000     0.1719     0.9632     0.9163     0.0469
 14 H      0.8274     1.0000     0.1726     0.9635     0.9167     0.0468
 15 H      0.8278     1.0000     0.1722     0.9631     0.9160     0.0471
 16 C      6.1456     6.0000    -0.1456     4.1473     3.7202     0.4272
 17 N      7.0902     7.0000    -0.0902     3.3459     2.8729     0.4729

  Mayer bond orders larger than 0.100000
B(  0-C ,  1-H ) :   0.9154 B(  0-C ,  2-H ) :   0.9147 B(  0-C ,  3-H ) :   0.9165 
B(  0-C ,  4-C ) :   0.9027 B(  4-C ,  5-N ) :   2.8411 B(  6-C ,  7-H ) :   0.9158 
B(  6-C ,  8-H ) :   0.9166 B(  6-C ,  9-H ) :   0.9152 B(  6-C , 10-C ) :   0.9018 
B( 10-C , 11-N ) :   2.8385 B( 12-C , 13-H ) :   0.9170 B( 12-C , 14-H ) :   0.9161 
B( 12-C , 15-H ) :   0.9168 B( 12-C , 16-C ) :   0.9027 B( 16-C , 17-N ) :   2.8368 



----------------------------------
MP2 DERIVATIVE INTEGRAL GENERATION
----------------------------------


Input Wavefunction Amplitudes       ... 12mecn.remya.etal.2.mol2,5,6-orca.engrad-mp2.def2tzvp.frozencore.mp2tsaa.tmp
Input Correlated Electron Density   ... 12mecn.remya.etal.2.mol2,5,6-orca.engrad-mp2.def2tzvp.frozencore.pmp2re
Input Energy Weighted Density       ... 12mecn.remya.etal.2.mol2,5,6-orca.engrad-mp2.def2tzvp.frozencore.wmp2.tmp
Input SCF Electron Density          ... 12mecn.remya.etal.2.mol2,5,6-orca.engrad-mp2.def2tzvp.frozencore.scfp

One-Electron Terms    ...
                        ... One-Electron Terms done
Prescreening matrices              ... done

Batch handling in the gradient evaluation:
Memory available                      ... 8000.0 MB
Memory per occupied orbital in Q2     ...   20.3 MB
Memory per occupied orbital in Q3     ...    0.1 MB
Total memory requirement per |i>      ...   20.4 MB
Max. Number of orbitals possible      ...    391
Number of orbitals treated per batch  ...     24
Number of batches to be done          ...      1
Batch   0: i=    9 ...    32

---------------------------------------
MP2 TOTAL ENERGY:     -397.450781062 Eh
---------------------------------------

The final MP2 gradient
  0:  -0.00066250  -0.00119830   0.00762056
  1:   0.00306538  -0.00133611   0.00062780
  2:  -0.00123321   0.00340641   0.00063374
  3:  -0.00158662  -0.00130336  -0.00074268
  4:   0.00032181   0.00011753  -0.00348425
  5:  -0.00012559  -0.00004107  -0.00469502
  6:  -0.00044740   0.00097984  -0.00724458
  7:  -0.00348026   0.00062309  -0.00094600
  8:   0.00338820   0.00164103  -0.00071233
  9:   0.00081697  -0.00320361  -0.00024153
 10:  -0.00030627  -0.00010423   0.00612172
 11:   0.00023553   0.00037001   0.00305533
 12:   0.00211726  -0.00200189  -0.00765030
 13:   0.00004298   0.00189462   0.00013676
 14:   0.00084193  -0.00237032   0.00041593
 15:  -0.00233907   0.00176747  -0.00084756
 16:  -0.00071241   0.00068630   0.00335360
 17:   0.00006325   0.00007260   0.00459881

-----------------------------------
NORM OF THE MP2 GRADIENT:  0.019590
-----------------------------------

-------------------------   --------------------
FINAL SINGLE POINT ENERGY      -397.450781061871
-------------------------   --------------------


                            ***************************************
                            *     ORCA property calculations      *
                            ***************************************

                                    ---------------------
                                    Active property flags
                                    ---------------------
   (+) Dipole Moment


------------------------------------------------------------------------------
                       ORCA ELECTRIC PROPERTIES CALCULATION
------------------------------------------------------------------------------

Dipole Moment Calculation                       ... on
Quadrupole Moment Calculation                   ... off
Polarizability Calculation                      ... off
GBWName                                         ... 12mecn.remya.etal.2.mol2,5,6-orca.engrad-mp2.def2tzvp.frozencore.gbw
Electron density file                           ... 12mecn.remya.etal.2.mol2,5,6-orca.engrad-mp2.def2tzvp.frozencore.scfp
The origin for moment calculation is the CENTER OF MASS  = (-0.546149, -2.432552  0.195189)

-------------
DIPOLE MOMENT
-------------
                                X             Y             Z
Electronic contribution:      0.01850       0.00779      -3.00184
Nuclear contribution   :     -0.03234      -0.03997       4.65005
                        -----------------------------------------
Total Dipole Moment    :     -0.01383      -0.03217       1.64822
                        -----------------------------------------
Magnitude (a.u.)       :      1.64859
Magnitude (Debye)      :      4.19038



--------------------
Rotational spectrum 
--------------------
 
Rotational constants in cm-1:     0.017168     0.007612     0.005843 
Rotational constants in MHz :   514.691604   228.205384   175.170471 

 Dipole components along the rotational axes: 
x,y,z [a.u.] :     0.009438     0.177823     1.638943 
x,y,z [Debye]:     0.023990     0.451990     4.165862 

 

                         *** MP2 UNRELAXED DENSITY ***

------------------------------------------------------------------------------
                       ORCA ELECTRIC PROPERTIES CALCULATION
------------------------------------------------------------------------------

Dipole Moment Calculation                       ... on
Quadrupole Moment Calculation                   ... off
Polarizability Calculation                      ... off
GBWName                                         ... 12mecn.remya.etal.2.mol2,5,6-orca.engrad-mp2.def2tzvp.frozencore.gbw
Electron density file                           ... 12mecn.remya.etal.2.mol2,5,6-orca.engrad-mp2.def2tzvp.frozencore.pmp2ur
The origin for moment calculation is the CENTER OF MASS  = (-0.546149, -2.432552  0.195189)

-------------
DIPOLE MOMENT
-------------
                                X             Y             Z
Electronic contribution:      0.01885       0.00904      -3.03732
Nuclear contribution   :     -0.03234      -0.03997       4.65005
                        -----------------------------------------
Total Dipole Moment    :     -0.01349      -0.03092       1.61273
                        -----------------------------------------
Magnitude (a.u.)       :      1.61309
Magnitude (Debye)      :      4.10014



--------------------
Rotational spectrum 
--------------------
 
Rotational constants in cm-1:     0.017168     0.007612     0.005843 
Rotational constants in MHz :   514.691604   228.205384   175.170471 

 Dipole components along the rotational axes: 
x,y,z [a.u.] :     0.009144     0.174542     1.603590 
x,y,z [Debye]:     0.023242     0.443651     4.076001 

 

                           *** MP2 RELAXED DENSITY ***

------------------------------------------------------------------------------
                       ORCA ELECTRIC PROPERTIES CALCULATION
------------------------------------------------------------------------------

Dipole Moment Calculation                       ... on
Quadrupole Moment Calculation                   ... off
Polarizability Calculation                      ... off
GBWName                                         ... 12mecn.remya.etal.2.mol2,5,6-orca.engrad-mp2.def2tzvp.frozencore.gbw
Electron density file                           ... 12mecn.remya.etal.2.mol2,5,6-orca.engrad-mp2.def2tzvp.frozencore.pmp2re
The origin for moment calculation is the CENTER OF MASS  = (-0.546149, -2.432552  0.195189)

-------------
DIPOLE MOMENT
-------------
                                X             Y             Z
Electronic contribution:      0.01960       0.01201      -3.13773
Nuclear contribution   :     -0.03234      -0.03997       4.65005
                        -----------------------------------------
Total Dipole Moment    :     -0.01274      -0.02796       1.51232
                        -----------------------------------------
Magnitude (a.u.)       :      1.51263
Magnitude (Debye)      :      3.84481



--------------------
Rotational spectrum 
--------------------
 
Rotational constants in cm-1:     0.017168     0.007612     0.005843 
Rotational constants in MHz :   514.691604   228.205384   175.170471 

 Dipole components along the rotational axes: 
x,y,z [a.u.] :     0.008236     0.164657     1.503621 
x,y,z [Debye]:     0.020934     0.418525     3.821901 

 

Timings for individual modules:

Sum of individual times         ...       98.527 sec (=   1.642 min)
GTO integral calculation        ...        1.302 sec (=   0.022 min)   1.3 %
SCF iterations                  ...       20.395 sec (=   0.340 min)  20.7 %
MP2 module                      ...       76.830 sec (=   1.280 min)  78.0 %
                             ****ORCA TERMINATED NORMALLY****
TOTAL RUN TIME: 0 days 0 hours 1 minutes 39 seconds 938 msec
