7
Energy:   -449.02916642
O   -0.96068603  -0.11632857  -1.42779224
H   -1.75294059   0.41890416  -1.38207025
H   -0.64906101  -0.00749524  -2.32627819
O    1.03775843   0.02646870   1.37890774
H    1.27996444   0.95183428   1.41449769
H    0.93472282  -0.23005154   2.29532079
Ca   0.07688043  -1.12154043   0.08359517
