7
Energy:   -444.57613901
O    0.90521902  -0.06420118   1.63647822
H    1.78670219  -0.20649160   1.98140241
H    0.46184630   0.44616504   2.31410555
O   -0.89297466  -0.02355053  -1.65929677
H   -1.06099694  -0.19222617  -2.58641536
H   -1.21672562   0.86553992  -1.51460629
Ca   0.01155484  -0.87682369  -0.17958789
