7
Energy:   -440.73291262
O   -0.28259647  -1.19650503   1.42782392
H    0.34822413  -1.47860135   2.09018249
H   -1.05963096  -1.73029569   1.59370570
O    0.24395028   1.30960736  -1.44423189
H   -0.25001365   1.79887873  -2.10214147
H    0.84714532   0.76663881  -1.95174814
Ca   0.19630179   0.52849209   0.44598117
