7
Energy:   -127.48712528
O   -0.97380496   1.23597138  -0.04792475
H   -0.35068452   0.73844072   0.48161845
H   -1.09693403   0.70557624  -0.83516809
C    0.97149103  -1.22481998   0.26360986
O   -0.20612406  -1.56334033  -0.34924007
O    0.72866159  -0.28744135   1.23286420
O    1.83719499  -0.70877116  -0.66484610
