7
Energy:   -125.42385162
O    0.60527159  -0.62487064   1.22861260
H    0.45261467  -1.41139637   0.70487126
H    0.32779934   0.09680522   0.66432106
C   -0.60491417   0.87715975  -1.14085419
O    0.57375463   0.36880372  -1.61967814
O   -0.38751218   1.46293548   0.07844969
O   -1.51722375  -0.13626495  -1.00505353
