7
Energy:   -127.14769826
O   -1.50039098  -0.18181622  -0.34464368
H   -1.37877828   0.52181420   0.29280940
H   -0.61179626  -0.44021374  -0.58931079
C    1.53131236   0.17086775   0.16673322
O    0.73020932   1.22248813   0.52629807
O    1.01779057  -0.43289629  -0.95079223
O    1.58272552  -0.73542279   1.19326834
