7
Energy:   -125.52149431
O    0.28185958  -1.59288241   0.13665686
H   -0.64822211  -1.37497700   0.07585273
H    0.72633359  -0.74529885   0.15329486
C   -0.12586902   1.58832090   0.04740688
O   -1.13004125   0.81880112   0.57317852
O   -0.38924088   1.84262136  -1.27284512
O    1.06548415   0.91990184   0.15545222
