31
Energy:   -385.71888885
Na  -0.21009217  -0.71432768   0.53373442
C    3.56005413   1.24935755  -2.10163731
H    3.24867757   1.65124870  -3.04314054
H    4.22827667   0.43018381  -2.26696162
H    4.05963696   2.00886515  -1.53731090
C    2.32743467   0.75680848  -1.32083984
N    1.40969346   0.39008331  -0.73950064
C   -2.50899791   3.22073839  -2.25250645
H   -1.95029608   4.12487749  -2.12887422
H   -3.54316913   3.41056924  -2.05412998
H   -2.39743608   2.86694051  -3.25613990
C   -1.98524213   2.15544201  -1.27147459
N   -1.59528214   1.36228044  -0.54105178
C   -4.18826372  -2.51285237  -1.79511139
H   -4.28483542  -1.71722684  -2.50402191
H   -5.08590410  -2.58678334  -1.21746525
H   -4.02071524  -3.43388992  -2.31329709
C   -2.99848400  -2.22594694  -0.86038711
N   -2.11263891  -2.01233281  -0.16444240
C    2.74180266  -4.58354456   2.09770595
H    2.21510535  -5.49996165   1.93136340
H    2.94793428  -4.47513744   3.14205107
H    3.66210207  -4.59698293   1.55202518
C    1.87863287  -3.40127090   1.61941011
N    1.23596373  -2.52101442   1.26329712
C    0.69166329   3.22720630   3.44101283
H    1.42944333   3.03634585   4.19211407
H   -0.17688930   3.65648464   3.89514452
H    1.08816816   3.90718451   2.71622829
C    0.30920672   1.90540011   2.74952504
N    0.02445042   0.92125532   2.23468095
