31
Energy:   -400.02911870
Na   0.00095356   0.00078327   0.00064325
C    2.89560983  -4.16839796  -0.07965160
H    3.04721588  -4.47754942  -1.09273657
H    2.40842574  -4.95134381   0.46306984
H    3.84118148  -3.95522466   0.37350455
C    2.01767345  -2.90340216  -0.05488579
N    1.36400991  -1.96155529  -0.03644651
C    3.45345328   2.34235287   2.90913080
H    3.12073774   3.33531701   3.12872762
H    4.38753104   2.38601775   2.38904310
H    3.57851366   1.79807311   3.82182929
C    2.40794592   1.63373674   2.02800792
N    1.62951816   1.10613981   1.37197189
C   -3.48177307   0.60906934   3.64315103
H   -4.39861656   0.94660104   3.20683631
H   -3.13550923   1.33337288   4.35052987
H   -3.64550983  -0.32449077   4.13969396
C   -2.42490446   0.42444871   2.53836871
N   -1.63801774   0.28699026   1.71580806
C   -3.45051127  -2.34676580  -2.90436691
H   -3.80954750  -3.21806237  -2.39757755
H   -3.00037683  -2.63363993  -3.83171868
H   -4.26769909  -1.68283328  -3.09488403
C   -2.40548314  -1.63543101  -2.02486760
N   -1.62741220  -1.10580992  -1.37004039
C    0.58219375   3.56270851  -3.56889659
H    1.26417113   4.30977503  -3.22004325
H   -0.36470611   4.01444946  -3.77915797
H    0.96933960   3.11460334  -4.46008621
C    0.40628318   2.48225646  -2.48571663
N    0.27530975   1.67781080  -1.67923991
