31
Energy:   -400.02926018
Na   0.00028152   0.00018393  -0.00040579
C    2.14619558   1.27275133  -4.43186466
H    2.89533589   2.01830467  -4.26501381
H    1.39825258   1.66009114  -5.09174968
H    2.59609746   0.40719990  -4.87153284
C    1.49694881   0.88797843  -3.08946814
N    1.01355507   0.60149751  -2.08999290
C   -2.14693192  -1.27338902   4.43016503
H   -3.19557609  -1.06418173   4.39172164
H   -1.69881199  -0.70639992   5.21922205
H   -1.99791846  -2.31724910   4.61196221
C   -1.49709278  -0.88815271   3.08818811
N   -1.01325799  -0.60132677   2.08902529
C   -1.52558927   4.79836192   0.64485262
H   -1.19156161   5.15357769   1.59729551
H   -2.59388980   4.84148470   0.60273975
H   -1.11310241   5.41133595  -0.12910896
C   -1.06245714   3.34282521   0.44858364
N   -0.71763422   2.25911196   0.30245247
C   -2.99456205  -3.31388365  -2.41187253
H   -2.39271261  -4.07238757  -2.86722870
H   -3.55613538  -2.80348013  -3.16620848
H   -3.66590420  -3.76425227  -1.71089684
C   -2.08629708  -2.30860861  -1.67969985
N   -1.41005252  -1.56013565  -1.13456401
C    4.52054445  -1.48406752   1.76915169
H    5.26369671  -1.34452658   1.01208285
H    4.47572662  -2.51862380   2.03856539
H    4.77487103  -0.90197296   2.63018769
C    3.14942229  -1.03369469   1.23176139
N    2.12855951  -0.69837165   0.83164988
