29
Energy:   -771.41370589
O   -1.00190529  -2.43914504   2.35090611
H   -1.15602381  -1.53769494   2.63351369
H   -0.88245888  -2.37646222   1.40325888
O    1.47218166  -3.18112622   1.13331376
H    0.96522753  -3.07381321   1.93812012
H    0.89922080  -2.84820828   0.44257983
O   -0.92141230   2.90769820  -0.95555891
H   -1.03007106   2.10810462  -0.44070434
H   -0.19901304   2.71249198  -1.55243888
O    0.67479564   1.91949418  -3.00916435
H    0.90817176   1.16665655  -2.46602262
H   -0.22721433   1.74924720  -3.28050514
O   -2.10931885   1.73775364  -3.16844514
H   -1.93399239   2.27802093  -2.39798831
H   -1.97740874   0.83907506  -2.86643789
O    1.25670129   0.86586643   1.87986089
H    0.50468073   0.87772636   1.28778297
H    1.89643242   0.30282376   1.44401817
O   -1.29200330   0.24411825   2.85732892
H   -0.36038433   0.42960893   2.97527447
H   -1.42996658   0.29985442   1.91176482
O    2.83082717  -0.87291163   0.41400064
H    2.44771681  -1.69946438   0.70771624
H    2.25990986  -0.58323580  -0.29759839
S   -0.47185545  -0.55764080  -0.84936868
O   -0.92340920   0.41901827   0.18132830
O    0.89034636  -0.18458912  -1.32406717
O   -0.43422978  -1.92395959  -0.25619307
O   -1.42012919  -0.54103278  -1.99854278
