29
Energy:   -777.00589969
O    0.87646396  -1.34867400  -2.53850709
H    0.17432954  -0.74696762  -2.78587025
H    0.97201373  -1.23043705  -1.59345571
O   -1.59104379   0.01457353   3.07495004
H   -0.88374853   0.53707220   2.69684899
H   -2.16423850  -0.18480718   2.33472912
O    2.12646896   1.07283229  -3.00475985
H    1.93177377   0.13717144  -2.95123975
H    1.98061026   1.39947950  -2.11692051
O    2.23833312   3.19940693   1.62524079
H    2.24789747   2.91371137   0.71172099
H    1.58569701   2.63904851   2.04511744
O   -0.65851984   0.90098634  -3.11270746
H   -0.91747126   0.98512421  -2.19504912
H    0.25131452   1.19763650  -3.13349120
O    0.29171041  -1.94985618   2.55446760
H   -0.31125093  -1.28614833   2.88937262
H    0.66163948  -1.56016976   1.76230043
O   -1.14426066  -2.69702880   0.36262278
H   -0.82218782  -2.70593959   1.26396707
H   -0.57768001  -2.07116592  -0.08850236
O   -2.86591165  -0.57733470   0.68393996
H   -2.38394164  -1.39394062   0.55320535
H   -2.32407736   0.09094155   0.26435171
S    0.38418625   0.77174796   0.20109871
O   -0.95259696   0.98008860  -0.42316471
O    0.32904403   1.16719612   1.63660562
O    0.76283595  -0.66550274   0.09605178
O    1.39746199   1.60520984  -0.50509785
