29
Energy:   -770.92402539
O    0.82411764   1.90776613   1.62919276
H    0.83307421   1.42478211   0.80282840
H   -0.06358454   2.26038401   1.69146092
O    2.97815253  -1.54086206  -0.36501688
H    2.09370152  -1.71282461  -0.04189593
H    2.92173168  -0.67525855  -0.76971318
O   -3.80735803   0.99400927  -0.79022766
H   -3.26735255   0.20373921  -0.78026972
H   -3.28248854   1.64913755  -0.33028114
O    2.17840170  -1.98930183  -2.98105245
H    2.56815501  -2.08362756  -2.11189949
H    1.24863383  -1.83714393  -2.81190299
O    0.35038273  -0.57149053   2.75041892
H    0.60754102   0.30689427   2.47016617
H    0.38185393  -1.09723575   1.95114839
O   -2.31712512  -0.16668335   2.19539388
H   -2.33499277  -0.51097236   1.30243382
H   -1.43192412  -0.35459837   2.50738585
O   -1.81204580   2.15065138   0.79937109
H   -1.21847334   1.75648493   0.16020257
H   -2.10835849   1.41597359   1.33665982
O    2.38723733   0.62951189  -2.02038522
H    2.23929680  -0.15273781  -2.55182746
H    1.55089276   0.78264060  -1.58071352
S   -0.43910350  -0.80340428  -0.70532628
O   -0.22324597  -1.33104153  -2.08195421
O    0.33624740  -1.62296434   0.26794258
O    0.01952568   0.61268454  -0.63860477
O   -1.88894112  -0.87229577  -0.36868871
