29
Energy:   -774.21637457
O    0.26655021   0.47478232   3.61666029
H    0.84927663   0.99784525   3.06614514
H   -0.17527166  -0.11506010   3.00583199
O    2.86167945  -1.19155601  -1.54885370
H    2.41365451  -0.94662229  -0.73921614
H    2.27535528  -1.82272160  -1.96608962
O   -0.99134378   2.58299675   0.70976121
H   -0.92320119   1.87030551   0.07441907
H   -1.48495985   2.20795106   1.43908675
O    0.93352940   0.32950117  -2.87617839
H    1.70459561   0.01924141  -2.40138621
H    0.26122356   0.43027169  -2.20232231
O    1.54931785   1.87038796   1.62439115
H    0.72864380   2.23910321   1.29762670
H    1.60133271   1.00450297   1.21970671
O   -2.25239687   1.26358568   2.78155864
H   -2.07279826   0.50893703   2.22077204
H   -1.49791512   1.31124614   3.36868522
O   -2.64738755  -1.36380751  -2.02489857
H   -2.28418615  -0.51294152  -1.77924912
H   -2.07623185  -2.00130131  -1.59639574
O    0.77498391  -2.46958189  -2.80965441
H    0.65997169  -1.56026812  -3.08561184
H    0.33357457  -2.52074728  -1.96185033
S   -0.24325816  -0.77226566   0.19287935
O   -0.42993099  -2.10655141  -0.44346551
O    1.20596195  -0.54491054   0.45397459
O   -0.75613660   0.28887909  -0.71872777
O   -0.99292700  -0.72647977   1.47973611
