10
Energy:   -254.20735414
O   -1.08611115   1.30512307   0.86403312
H   -0.25909438   0.92914862   1.16555980
H   -1.09233680   1.14551761  -0.07974609
O    0.88253917  -1.30731863   1.04776364
H    1.14335405  -0.62297461   0.43141900
H    0.14189668  -1.74173003   0.62471839
C    0.24836005   0.10753218  -1.74885031
O   -0.12847065  -1.18954740  -1.51963086
O    1.16165022   0.49157024  -0.80253398
O   -0.85186265   0.92144082  -1.67925896
