10
Energy:   -253.43055127
O   -0.80026262   1.43345668   0.82630443
H    0.03257398   1.06174217   1.11689584
H   -0.93046124   1.07378026  -0.05114245
O   -0.89091394  -0.78333153  -1.49651690
H   -1.07446730  -1.47757793  -0.86361726
H   -0.03631513  -0.44029201  -1.23533381
C    1.59768176  -0.52026590   0.59862918
O    0.54678992  -1.36813360   0.83037278
O    1.60614420   0.46657898   1.54897878
O    1.46455889   0.04250331  -0.64368693
