31
Energy:   -191.08607761
C    0.09421346  -0.68924481  -3.39192779
H   -0.79016526  -0.96656445  -2.85726129
H   -0.17684772  -0.13905139  -4.26869009
H    0.71323413  -0.08080561  -2.76621680
C    0.86625754  -1.95767892  -3.80012240
N    1.44107945  -2.90208578  -4.10404183
C   -0.84326967   2.67771249   2.26440453
H   -0.66580042   2.83919529   3.30715481
H    0.07864484   2.43338875   1.77934924
H   -1.53576815   1.87139261   2.14114380
C   -1.42888138   3.95744165   1.63914282
N   -1.86489591   4.91025818   1.17360707
C    1.41659576  -3.21458144  -0.41242034
H    0.36270277  -3.05502860  -0.31886480
H    1.60885423  -3.84021863  -1.25889177
H    1.90935123  -2.27406667  -0.54479523
C    1.94750679  -3.89740779   0.86173885
N    2.34279418  -4.40580305   1.81040829
C    0.79667470  -1.43993329   3.29194567
H    1.27457839  -2.34851543   3.59358575
H    1.43059106  -0.91293269   2.60980235
H   -0.13220891  -1.66775830   2.81218522
C    0.53338253  -0.56284183   4.53008452
N    0.33734954   0.09019263   5.45193517
C   -1.59546625   2.63678960  -1.75255431
H   -1.99696481   3.58117094  -1.44949824
H   -0.60895287   2.52413082  -1.35380822
H   -2.22039023   1.84937438  -1.38602139
C   -1.53802680   2.57302007  -3.29016094
N   -1.49526051   2.52554075  -4.43497897
Cl  -0.26091173  -0.11508948   0.12376633
