31
Energy:   -192.21207471
C    0.23787111  -1.70599522  -3.06318448
H    1.18216251  -1.23052941  -2.89842341
H    0.38757493  -2.75535588  -3.20923264
H   -0.39285939  -1.55063252  -2.21292537
C   -0.42888494  -1.10362071  -4.31385682
N   -0.92531514  -0.65512551  -5.24503923
C   -0.69274374   3.08920592   1.56434053
H   -1.11743806   4.00846668   1.21866066
H   -1.24168814   2.26672922   1.15557260
H    0.32832329   3.02773600   1.25042546
C   -0.76100515   3.03837985   3.10198713
N   -0.81182888   3.00053754   4.24683493
C    1.13789866  -3.21047297   0.59150511
H    0.24032964  -2.63368499   0.67265720
H    1.97188347  -2.55473580   0.45230312
H    1.27774553  -3.78038937   1.48623258
C    1.02813725  -4.16413596  -0.61268729
N    0.94641490  -4.87418140  -1.50926327
C    0.64222790  -0.27160008   3.39769392
H    0.49305260   0.38229317   4.23140282
H   -0.21321602  -0.23242458   2.75614885
H    1.51050516   0.03655829   2.85360558
C    0.83845875  -1.71262124   3.90420303
N    0.98456154  -2.78552699   4.28132209
C   -1.01994186   2.24171294  -2.52072294
H   -1.25169869   2.16389699  -3.56242042
H   -1.41579182   1.39314422  -2.00290730
H    0.04191839   2.27402788  -2.39302161
C   -1.64494335   3.52850727  -1.95051816
N   -2.11028537   4.48658414  -1.52597479
Cl   0.77857491   0.28325253  -0.14471788
