31
Energy:   -191.10072588
C   -0.30779303  -2.31670876  -2.69993036
H    0.65379141  -1.87833222  -2.53235485
H   -0.20351824  -3.37662112  -2.80294325
H   -0.94793049  -2.10025580  -1.87030922
C   -0.92051522  -1.73369124  -3.98688882
N   -1.37671474  -1.29960819  -4.94508789
C   -0.21080730   3.43485159   0.85910692
H   -0.53919868   4.34022301   0.39288607
H   -0.98342622   2.69778980   0.79055755
H    0.66805691   3.07737237   0.36442985
C    0.10891758   3.70711486   2.34074409
N    0.34696728   3.90982725   3.44389031
C    0.23829848  -3.24542625   1.42205859
H   -0.56666458  -2.54454088   1.34659768
H    1.16726458  -2.74079579   1.25692478
H    0.23915273  -3.68386158   2.39810820
C    0.05859700  -4.34945073   0.36355147
N   -0.07519892  -5.17144714  -0.42455520
C    0.87586916   0.28971264   3.46894578
H    0.92148169   1.08551777   4.18274819
H   -0.09862777   0.26154778   3.02796782
H    1.60807443   0.45260743   2.70589936
C    1.15894061  -1.04956459   4.17450020
N    1.36970017  -2.04671737   4.69981754
C   -0.51216257   1.85962271  -3.01622088
H   -0.53872855   1.54515895  -4.03862343
H   -1.28895991   1.36562971  -2.47082571
H    0.43711196   1.60932454  -2.59062978
C   -0.72216601   3.38344107  -2.94221976
N   -0.87852311   4.51799310  -2.88712256
Cl   0.31871133  -0.00071292  -0.03102269
