43
Energy:   -477.60330297
C   -2.04292287   0.30150260  -3.43538271
H   -2.07978106  -0.42119149  -4.22357996
H   -1.77465856   1.25563357  -3.83857927
H   -3.00314694   0.36894950  -2.96813573
C   -0.99396797  -0.12866735  -2.39315077
N   -0.21297337  -0.44894844  -1.61716171
C    0.51482228  -5.98650477  -0.28363439
H   -0.43107712  -6.15312074   0.18797310
H    1.26321410  -6.58012744   0.19846612
H    0.45200125  -6.26113648  -1.31587953
C    0.88950154  -4.49706241  -0.17059942
N    1.16846728  -3.38810487  -0.08643975
C    0.60512178   3.41328404  -0.55044866
H    1.62553186   3.72343731  -0.63686858
H    0.02432264   4.20966521  -0.13409726
H    0.22509615   3.16325108  -1.51893362
C    0.51936334   2.18056001   0.36859265
N    0.45551228   1.26274093   1.05286069
C   -4.83232463   4.61532918  -1.59588223
H   -4.54018866   5.42946561  -2.22575414
H   -5.12232780   4.99220795  -0.63736272
H   -5.65712721   4.09861482  -2.04041126
C   -3.64829299   3.64483831  -1.42909929
N   -2.76672762   2.92226374  -1.30492181
C   -3.19080426   0.40750660   2.03616642
H   -2.74237876   1.37384911   1.93618190
H   -3.44471732   0.23648873   3.06143718
H   -4.07611391   0.36140895   1.43699957
C   -2.19657089  -0.67082210   1.56679745
N   -1.45631896  -1.47368683   1.21733092
C    5.34531329  -0.83378247  -1.68411404
H    5.21944830  -0.85295055  -2.74651263
H    5.76351876  -1.76299778  -1.35767538
H    6.00321386  -0.03324124  -1.41728137
C    3.97767410  -0.62099992  -1.00892027
N    2.95940456  -0.46257364  -0.50620782
C    2.94177487  -0.97101466   5.06972117
H    3.39350802  -0.00137563   5.09496995
H    3.68710720  -1.71659702   5.25271231
H    2.18439379  -1.03136985   5.82313357
C    2.30895690  -1.20662284   3.68565824
N    1.83779515  -1.38204383   2.65516047
Na   0.84735760  -1.07605488   0.48287259
