43
Energy:   -477.49081938
C   -1.31555140   2.00949068   4.90948951
H   -0.42204954   2.22290684   5.45813160
H   -1.86019305   1.23204666   5.40329652
H   -1.92050567   2.89046304   4.85641281
C   -0.94696675   1.55332672   3.48553031
N   -0.67253872   1.21369192   2.42532796
C    1.46787440  -3.55796374   2.26352747
H    0.84438646  -2.74640259   2.57582779
H    2.47817799  -3.36567990   2.55884536
H    1.12908901  -4.46428483   2.72037058
C    1.39874656  -3.69832548   0.73149617
N    1.34727775  -3.80283118  -0.40917078
C    2.38533673   4.97747564  -1.03662107
H    3.23011517   4.62696955  -1.59195435
H    2.72252663   5.49028362  -0.16013374
H    1.81250920   5.64716848  -1.64348120
C    1.50862775   3.78002305  -0.62541716
N    0.85587806   2.88846517  -0.31925716
C    0.38938833  -1.93834586  -3.92699267
H    0.53524631  -1.55984186  -4.91712416
H   -0.52043340  -2.50029301  -3.89040144
H    1.21049532  -2.57141902  -3.66260513
C    0.30714461  -0.76317063  -2.93512617
N    0.24591043   0.11180075  -2.19663647
C   -4.48117376   3.40874479  -1.00604589
H   -4.19342455   4.42902268  -0.86067183
H   -5.29804675   3.17253751  -0.35656630
H   -4.78073199   3.26408342  -2.02302034
C   -3.28848900   2.48847183  -0.68635738
N   -2.40048098   1.80328678  -0.44833476
C    3.88456903  -1.37702972  -0.88016012
H    4.80936705  -1.27512301  -0.35170594
H    3.97011316  -0.91450225  -1.84122705
H    3.65649528  -2.41519714  -1.00300097
C    2.75868529  -0.69520678  -0.08072076
N    1.92041367  -0.18755861   0.51449818
C   -2.28081551  -3.83606544  -0.29750739
H   -2.75398908  -3.81983391  -1.25706119
H   -2.99928585  -4.10042143   0.45003215
H   -1.48950533  -4.55627754  -0.30217943
C   -1.70463318  -2.44238219   0.01435944
N   -1.27563924  -1.40472166   0.24655847
Na  -0.26392043   0.78261866   0.09577653
