43
Energy:   -482.85134247
C   -2.07582683  -0.39675837   5.13681976
H   -2.79521682   0.30821788   5.49791077
H   -1.20549369  -0.36845479   5.75860608
H   -2.49780891  -1.37979546   5.15845968
C   -1.68573269  -0.03729397   3.69106324
N   -1.39528988   0.23034362   2.61463180
C    4.18878619   0.55478170   0.07821157
H    4.23511432   1.54598808  -0.32211803
H    4.37840437  -0.15374740  -0.70084591
H    4.92538659   0.44566949   0.84659525
C    2.78904347   0.30497729   0.66975030
N    1.74687138   0.11898656   1.11017776
C   -0.05562069   5.47395169   1.13233844
H    0.74541083   5.67177813   1.81359712
H   -0.97795765   5.80804355   1.55962787
H    0.12083138   5.99358360   0.21378172
C   -0.13499075   3.96050277   0.85889237
N   -0.19408536   2.83367126   0.65529934
C    1.93744792  -0.11408054  -3.97746013
H    2.59328866   0.69758441  -4.21404647
H    1.30148123  -0.31432655  -4.81432750
H    2.51562354  -0.98579292  -3.75222786
C    1.07670191   0.26054807  -2.75665314
N    0.43583738   0.53947611  -1.84770684
C   -5.25776420   1.39835274  -1.28456906
H   -5.25280850   1.78292904  -2.28305627
H   -5.67470561   2.12877373  -0.62309789
H   -5.84794896   0.50655714  -1.24876900
C   -3.81538530   1.07710857  -0.85104249
N   -2.74146864   0.83792769  -0.52826224
C    2.37934474  -3.62947729   0.99893218
H    3.33762840  -3.62657276   1.47494076
H    2.04583530  -4.63856205   0.87476094
H    1.67848198  -3.09420404   1.60488022
C    2.48885555  -2.95172205  -0.37956527
N    2.57039133  -2.44710247  -1.40591929
C   -0.90480512  -3.43570825  -2.28843901
H   -1.27022342  -4.40815744  -2.03209505
H    0.07998657  -3.52128767  -2.69802488
H   -1.55462083  -2.98987570  -3.01222901
C   -0.86099084  -2.55460201  -1.02616642
N   -0.82836912  -1.89857836  -0.08634710
Na  -0.54363924   0.46634694   0.38369168
