43
Energy:   -477.71191720
C    5.51225991  -1.72691224  -3.77455458
H    5.40407721  -2.73021500  -4.13033579
H    6.44180819  -1.63162454  -3.25324916
H    5.49745948  -1.05087776  -4.60380570
C    4.35140698  -1.39303304  -2.81928229
N    3.48709920  -1.14444480  -2.10803865
C    0.51059833  -2.13773688  -3.36086221
H   -0.20098988  -2.71604305  -3.91231881
H    1.27428368  -2.78224167  -2.97837383
H    0.95124167  -1.40576234  -4.00502509
C   -0.19858088  -1.43129811  -2.19055922
N   -0.72659704  -0.90532233  -1.31921544
C   -1.18157213   2.86584742   5.04952320
H   -0.68948877   3.78321316   4.80214851
H   -0.57309320   2.30674121   5.72926781
H   -2.12461347   3.07927170   5.50780499
C   -1.40828495   2.04304859   3.76764825
N   -1.57708294   1.43043747   2.81323408
C   -5.08719597  -2.69271028   2.10105442
H   -5.60101562  -3.18664840   1.30298507
H   -5.79452342  -2.17292443   2.71294464
H   -4.56774736  -3.41698642   2.69308170
C   -4.07727291  -1.68749369   1.51693542
N   -3.32533928  -0.93906424   1.08203228
C    2.63421314  -2.28219847   1.73448769
H    3.10020587  -1.90785435   0.84700956
H    2.63639496  -3.35200728   1.71440180
H    3.17465167  -1.94047402   2.59242107
C    1.18256167  -1.77307607   1.80591885
N    0.10174118  -1.39401130   1.85910259
C   -4.31612465   3.64317103  -1.32819681
H   -4.20077855   4.64372975  -0.96697984
H   -5.25532401   3.25088085  -0.99817851
H   -4.28614221   3.64442781  -2.39777550
C   -3.17354209   2.76590865  -0.78366415
N   -2.32283744   2.11274694  -0.37823483
C    3.04730554   2.12650846  -1.11491318
H    3.89786763   1.60944084  -0.72237606
H    3.20230111   3.18201940  -1.03262022
H    2.91430856   1.86469526  -2.14382753
C    1.79146821   1.72836718  -0.31744461
N    0.85644023   1.43193290   0.27630699
Na  -1.28154765   0.28857214   0.73152310
