
                                 *****************
                                 * O   R   C   A *
                                 *****************

           --- An Ab Initio, DFT and Semiempirical electronic structure package ---

                  #######################################################
                  #                        -***-                        #
                  #          Department of theory and spectroscopy      #
                  #               Directorship: Frank Neese             #
                  #        Max Planck Institute fuer Kohlenforschung    #
                  #                Kaiser Wilhelm Platz 1               #
                  #                 D-45470 Muelheim/Ruhr               #
                  #                      Germany                        #
                  #                                                     #
                  #                  All rights reserved                #
                  #                        -***-                        #
                  #######################################################


                         Program Version 4.2.0 -  RELEASE  -


 With contributions from (in alphabetic order):
   Daniel Aravena         : Magnetic Suceptibility
   Michael Atanasov       : Ab Initio Ligand Field Theory (pilot matlab implementation)
   Alexander A. Auer      : GIAO ZORA, VPT2
   Ute Becker             : Parallelization
   Giovanni Bistoni       : ED, misc. LED, open-shell LED, HFLED
   Martin Brehm           : Molecular dynamics
   Dmytro Bykov           : SCF Hessian
   Vijay G. Chilkuri      : MRCI spin determinant printing, contributions to CSF-ICE
   Dipayan Datta          : RHF DLPNO-CCSD density
   Achintya Kumar Dutta   : EOM-CC, STEOM-CC
   Dmitry Ganyushin       : Spin-Orbit,Spin-Spin,Magnetic field MRCI
   Miquel Garcia          : C-PCM Hessian, Gaussian charge scheme
   Yang Guo               : DLPNO-NEVPT2, CIM, IAO-localization
   Andreas Hansen         : Spin unrestricted coupled pair/coupled cluster methods
   Benjamin Helmich-Paris : CASSCF linear response (MC-RPA)
   Lee Huntington         : MR-EOM, pCC
   Robert Izsak           : Overlap fitted RIJCOSX, COSX-SCS-MP3, EOM
   Christian Kollmar      : KDIIS, OOCD, Brueckner-CCSD(T), CCSD density
   Simone Kossmann        : Meta GGA functionals, TD-DFT gradient, OOMP2, MP2 Hessian
   Martin Krupicka        : AUTO-CI
   Lucas Lang             : DCDCAS
   Dagmar Lenk            : GEPOL surface, SMD
   Dimitrios Liakos       : Extrapolation schemes; Compound Job, initial MDCI parallelization
   Dimitrios Manganas     : Further ROCIS development; embedding schemes
   Dimitrios Pantazis     : SARC Basis sets
   Taras Petrenko         : DFT Hessian,TD-DFT gradient, ASA, ECA, R-Raman, ABS, FL, XAS/XES, NRVS
   Peter Pinski           : DLPNO-MP2, DLPNO-MP2 Gradient
   Christoph Reimann      : Effective Core Potentials
   Marius Retegan         : Local ZFS, SOC
   Christoph Riplinger    : Optimizer, TS searches, QM/MM, DLPNO-CCSD(T), (RO)-DLPNO pert. Triples
   Tobias Risthaus        : Range-separated hybrids, TD-DFT gradient, RPA, STAB
   Michael Roemelt        : Original ROCIS implementation
   Masaaki Saitow         : Open-shell DLPNO-CCSD energy and density
   Barbara Sandhoefer     : DKH picture change effects
   Avijit Sen             : IP-ROCIS
   Kantharuban Sivalingam : CASSCF convergence, NEVPT2, FIC-MRCI
   Bernardo de Souza      : ESD, SOC TD-DFT
   Georgi Stoychev        : AutoAux, RI-MP2 NMR
   Willem Van den Heuvel  : Paramagnetic NMR
   Boris Wezisla          : Elementary symmetry handling
   Frank Wennmohs         : Technical directorship


 We gratefully acknowledge several colleagues who have allowed us to
 interface, adapt or use parts of their codes:
   Stefan Grimme, W. Hujo, H. Kruse,             : VdW corrections, initial TS optimization,
                  C. Bannwarth                     DFT functionals, gCP, sTDA/sTD-DF
   Ed Valeev, F. Pavosevic, A. Kumar             : LibInt (2-el integral package), F12 methods
   Garnet Chan, S. Sharma, J. Yang, R. Olivares  : DMRG
   Ulf Ekstrom                                   : XCFun DFT Library
   Mihaly Kallay                                 : mrcc  (arbitrary order and MRCC methods)
   Andreas Klamt, Michael Diedenhofen            : otool_cosmo (COSMO solvation model)
   Jiri Pittner, Ondrej Demel                    : Mk-CCSD
   Frank Weinhold                                : gennbo (NPA and NBO analysis)
   Christopher J. Cramer and Donald G. Truhlar   : smd solvation model
   Lars Goerigk                                  : TD-DFT with DH, B97 family of functionals
   V. Asgeirsson, H. Jonsson                     : NEB implementation
   FAccTs GmbH                                   : IRC, NEB, NEB-TS, Multilevel, MM, QM/MM, CI optimization
   S Lehtola, MJT Oliveira, MAL Marques          : LibXC Library


 Your calculation uses the libint2 library for the computation of 2-el integrals
 For citations please refer to: http://libint.valeyev.net

 Your ORCA version has been built with support for libXC version: 4.2.3
 For citations please refer to: https://tddft.org/programs/libxc/

 This ORCA versions uses:
   CBLAS   interface :  Fast vector & matrix operations
   LAPACKE interface :  Fast linear algebra routines
   SCALAPACK package :  Parallel linear algebra routines


----- Orbital basis set information -----
Your calculation utilizes the basis: def2-TZVP
   F. Weigend and R. Ahlrichs, Phys. Chem. Chem. Phys. 7, 3297 (2005).

================================================================================
                                        WARNINGS
                       Please study these warnings very carefully!
================================================================================


WARNING: The frozen-core approximation for MP2-gradient calculations is turned on by default.

INFO   : the flag for use of LIBINT has been found!

================================================================================
                                       INPUT FILE
================================================================================
NAME = 12h2o.su.etal.mol8,11-orca.engrad-mp2.def2tzvp.frozencore.inp
|  1> # 12h2o.su.etal.mol8,11
|  2> ! MP2 def2-TZVP EnGrad TightSCF
|  3> 
|  4> %pal
|  5>     nprocs 6
|  6> end
|  7> 
|  8> %maxcore 8000
|  9> 
| 10> %scf
| 11>     ConvForced true
| 12> end
| 13> 
| 14> *xyz 0 1
| 15> O   1.752130000   0.741530000  -2.896280000
| 16> H   2.036450000   0.920500000  -1.984040000
| 17> H   0.921210000   1.242140000  -2.984230000
| 18> O  -0.741530000   1.752130000   2.896280000
| 19> H  -0.920500000   2.036450000   1.984040000
| 20> H  -1.242140000   0.921210000   2.984230000
| 21> *
| 22> 
| 23>                          ****END OF INPUT****
================================================================================

                     *******************************
                     * Energy+Gradient Calculation *
                     *******************************

---------------------------------
CARTESIAN COORDINATES (ANGSTROEM)
---------------------------------
  O      1.752130    0.741530   -2.896280
  H      2.036450    0.920500   -1.984040
  H      0.921210    1.242140   -2.984230
  O     -0.741530    1.752130    2.896280
  H     -0.920500    2.036450    1.984040
  H     -1.242140    0.921210    2.984230

----------------------------
CARTESIAN COORDINATES (A.U.)
----------------------------
  NO LB      ZA    FRAG     MASS         X           Y           Z
   0 O     8.0000    0    15.999    3.311046    1.401289   -5.473176
   1 H     1.0000    0     1.008    3.848333    1.739493   -3.749292
   2 H     1.0000    0     1.008    1.740835    2.347304   -5.639377
   3 O     8.0000    0    15.999   -1.401289    3.311046    5.473176
   4 H     1.0000    0     1.008   -1.739493    3.848333    3.749292
   5 H     1.0000    0     1.008   -2.347304    1.740835    5.639377

--------------------------------
INTERNAL COORDINATES (ANGSTROEM)
--------------------------------
 O      0   0   0     0.000000000000     0.00000000     0.00000000
 H      1   0   0     0.972136791249     0.00000000     0.00000000
 H      1   2   0     0.974050112161   103.86323780     0.00000000
 O      2   1   3     5.676821702300   133.67542488    34.22801697
 H      4   2   1     0.972136791249    47.63988797   320.98877584
 H      4   2   1     0.974050112161   101.78018452    59.09867632

---------------------------
INTERNAL COORDINATES (A.U.)
---------------------------
 O      0   0   0     0.000000000000     0.00000000     0.00000000
 H      1   0   0     1.837072300170     0.00000000     0.00000000
 H      1   2   0     1.840687952699   103.86323780     0.00000000
 O      2   1   3    10.727638328447   133.67542488    34.22801697
 H      4   2   1     1.837072300170    47.63988797   320.98877584
 H      4   2   1     1.840687952699   101.78018452    59.09867632

---------------------
BASIS SET INFORMATION
---------------------
There are 2 groups of distinct atoms

 Group   1 Type O   : 11s6p2d1f contracted to 5s3p2d1f pattern {62111/411/11/1}
 Group   2 Type H   : 5s1p contracted to 3s1p pattern {311/1}

Atom   0O    basis set group =>   1
Atom   1H    basis set group =>   2
Atom   2H    basis set group =>   2
Atom   3O    basis set group =>   1
Atom   4H    basis set group =>   2
Atom   5H    basis set group =>   2


           ************************************************************
           *        Program running with 6 parallel MPI-processes     *
           *              working on a common directory               *
           ************************************************************
------------------------------------------------------------------------------
                           ORCA GTO INTEGRAL CALCULATION
------------------------------------------------------------------------------

                         BASIS SET STATISTICS AND STARTUP INFO

 # of primitive gaussian shells          ...   64
 # of primitive gaussian functions       ...  124
 # of contracted shells                  ...   38
 # of contracted basis functions         ...   86
 Highest angular momentum                ...    3
 Maximum contraction depth               ...    6
 Integral package used                   ... LIBINT
 Integral threshhold            Thresh   ...  2.500e-11
 Primitive cut-off              TCut     ...  2.500e-12


------------------------------ INTEGRAL EVALUATION ----------------------------


 * One electron integrals 
 Pre-screening matrix                    ... done
 Shell pair data                         ... done (   0.000 sec)



           ************************************************************
           *        Program running with 6 parallel MPI-processes     *
           *              working on a common directory               *
           ************************************************************
-------------------------------------------------------------------------------
                                 ORCA SCF
-------------------------------------------------------------------------------

------------
SCF SETTINGS
------------
Hamiltonian:
 Ab initio Hamiltonian  Method          .... Hartree-Fock(GTOs)


General Settings:
 Integral files         IntName         .... 12h2o.su.etal.mol8,11-orca.engrad-mp2.def2tzvp.frozencore
 Hartree-Fock type      HFTyp           .... RHF
 Total Charge           Charge          ....    0
 Multiplicity           Mult            ....    1
 Number of Electrons    NEL             ....   20
 Basis Dimension        Dim             ....   86
 Nuclear Repulsion      ENuc            ....     26.5888594650 Eh

Convergence Acceleration:
 DIIS                   CNVDIIS         .... on
   Start iteration      DIISMaxIt       ....    12
   Startup error        DIISStart       ....  0.200000
   # of expansion vecs  DIISMaxEq       ....     5
   Bias factor          DIISBfac        ....   1.050
   Max. coefficient     DIISMaxC        ....  10.000
 Newton-Raphson         CNVNR           .... off
 SOSCF                  CNVSOSCF        .... on
   Start iteration      SOSCFMaxIt      ....   150
   Startup grad/error   SOSCFStart      ....  0.003300
 Level Shifting         CNVShift        .... on
   Level shift para.    LevelShift      ....    0.2500
   Turn off err/grad.   ShiftErr        ....    0.0010
 Zerner damping         CNVZerner       .... off
 Static damping         CNVDamp         .... on
   Fraction old density DampFac         ....    0.7000
   Max. Damping (<1)    DampMax         ....    0.9800
   Min. Damping (>=0)   DampMin         ....    0.0000
   Turn off err/grad.   DampErr         ....    0.1000
 Fernandez-Rico         CNVRico         .... off

SCF Procedure:
 Maximum # iterations   MaxIter         ....   125
 SCF integral mode      SCFMode         .... Direct
   Integral package                     .... LIBINT
 Reset frequency        DirectResetFreq ....    20
 Integral Threshold     Thresh          ....  2.500e-11 Eh
 Primitive CutOff       TCut            ....  2.500e-12 Eh

Convergence Tolerance:
 Convergence Check Mode ConvCheckMode   .... Total+1el-Energy
 Convergence forced     ConvForced      .... 1
 Energy Change          TolE            ....  1.000e-08 Eh
 1-El. energy change                    ....  1.000e-05 Eh
 Orbital Gradient       TolG            ....  1.000e-05
 Orbital Rotation angle TolX            ....  1.000e-05
 DIIS Error             TolErr          ....  5.000e-07


Diagonalization of the overlap matrix:
Smallest eigenvalue                        ... 8.802e-03
Time for diagonalization                   ...    0.453 sec
Threshold for overlap eigenvalues          ... 1.000e-08
Number of eigenvalues below threshold      ... 0
Time for construction of square roots      ...    0.001 sec
Total time needed                          ...    0.454 sec

-------------------
DFT GRID GENERATION
-------------------

General Integration Accuracy     IntAcc      ...  4.340
Radial Grid Type                 RadialGrid  ... Gauss-Chebyshev
Angular Grid (max. acc.)         AngularGrid ... Lebedev-110
Angular grid pruning method      GridPruning ... 3 (G Style)
Weight generation scheme         WeightScheme... Becke
Basis function cutoff            BFCut       ...    1.0000e-11
Integration weight cutoff        WCut        ...    1.0000e-14
Grids for H and He will be reduced by one unit

# of grid points (after initial pruning)     ...   6608 (   0.0 sec)
# of grid points (after weights+screening)   ...   6551 (   0.0 sec)
nearest neighbour list constructed           ...    0.0 sec
Grid point re-assignment to atoms done       ...    0.0 sec
Grid point division into batches done        ...    0.0 sec
Reduced shell lists constructed in    0.0 sec

Total number of grid points                  ...     6551
Total number of batches                      ...      105
Average number of points per batch           ...       62
Average number of grid points per atom       ...     1092
Average number of shells per batch           ...    20.16 (53.05%)
Average number of basis functions per batch  ...    43.53 (50.61%)
Average number of large shells per batch     ...    16.89 (83.81%)
Average number of large basis fcns per batch ...    37.95 (87.18%)
Maximum spatial batch extension              ...  14.92, 15.94, 15.31 au
Average spatial batch extension              ...   0.68,  0.70,  0.69 au

Time for grid setup =    0.131 sec

------------------------------
INITIAL GUESS: MODEL POTENTIAL
------------------------------
Loading Hartree-Fock densities                     ... done
Calculating cut-offs                               ... done
Setting up the integral package                    ... done
Initializing the effective Hamiltonian             ... done
Starting the Coulomb interaction                   ... done (   0.0 sec)
Reading the grid                                   ... done
Mapping shells                                     ... done
Starting the XC term evaluation                    ... done (   0.0 sec)
Transforming the Hamiltonian                       ... done (   0.0 sec)
Diagonalizing the Hamiltonian                      ... done (   0.0 sec)
Back transforming the eigenvectors                 ... done (   0.0 sec)
Now organizing SCF variables                       ... done
                      ------------------
                      INITIAL GUESS DONE (   0.2 sec)
                      ------------------
--------------
SCF ITERATIONS
--------------
ITER       Energy         Delta-E        Max-DP      RMS-DP      [F,P]     Damp
               ***  Starting incremental Fock matrix formation  ***
  0   -151.9108712931   0.000000000000 0.04276414  0.00174253  0.3419673 0.7000
  1   -151.9922164876  -0.081345194422 0.02816780  0.00119387  0.2156992 0.7000
                               ***Turning on DIIS***
  2   -152.0344503658  -0.042233878298 0.01602829  0.00064663  0.1637931 0.7000
  3   -152.3869301884  -0.352479822546 0.00692280  0.00027229  0.1218772 0.7000
  4   -152.3129373118   0.073992876568 0.01473707  0.00061603  0.0862147 0.0000
  5   -152.1313140681   0.181623243727 0.00177178  0.00009794  0.0052689 0.0000
                      *** Initiating the SOSCF procedure ***
                           *** Shutting down DIIS ***
                      *** Re-Reading the Fockian *** 
                      *** Removing any level shift *** 
ITER      Energy       Delta-E        Grad      Rot      Max-DP    RMS-DP
  6   -152.11863517   0.0126788972  0.001166  0.001166  0.000965  0.000056
               *** Restarting incremental Fock matrix formation ***
  7   -152.11485651   0.0037786642  0.000281  0.000396  0.000290  0.000024
  8   -152.11485897  -0.0000024656  0.000226  0.000357  0.000378  0.000020
  9   -152.11485954  -0.0000005715  0.000069  0.000056  0.000068  0.000003
 10   -152.11485959  -0.0000000477  0.000008  0.000006  0.000006  0.000000
                  ***Gradient check signals convergence***
              ***Rediagonalizing the Fockian in SOSCF/NRSCF***

               *****************************************************
               *                     SUCCESS                       *
               *           SCF CONVERGED AFTER  11 CYCLES          *
               *****************************************************


----------------
TOTAL SCF ENERGY
----------------

Total Energy       :         -152.11485959 Eh           -4139.25577 eV

Components:
Nuclear Repulsion  :           26.58885947 Eh             723.51965 eV
Electronic Energy  :         -178.70371906 Eh           -4862.77541 eV
One Electron Energy:         -262.54087498 Eh           -7144.10041 eV
Two Electron Energy:           83.83715592 Eh            2281.32499 eV

Virial components:
Potential Energy   :         -304.00260354 Eh           -8272.33140 eV
Kinetic Energy     :          151.88774395 Eh            4133.07563 eV
Virial Ratio       :            2.00149529


---------------
SCF CONVERGENCE
---------------

  Last Energy change         ...   -9.4292e-10  Tolerance :   1.0000e-08
  Last MAX-Density change    ...    2.5139e-06  Tolerance :   1.0000e-07
  Last RMS-Density change    ...    1.8479e-07  Tolerance :   5.0000e-09
  Last Orbital Gradient      ...    2.1471e-06  Tolerance :   1.0000e-05
  Last Orbital Rotation      ...    2.9916e-06  Tolerance :   1.0000e-05

             **** THE GBW FILE WAS UPDATED (12h2o.su.etal.mol8,11-orca.engrad-mp2.def2tzvp.frozencore.gbw) ****
             **** DENSITY FILE WAS UPDATED (12h2o.su.etal.mol8,11-orca.engrad-mp2.def2tzvp.frozencore.scfp) ****
             **** ENERGY FILE WAS UPDATED (12h2o.su.etal.mol8,11-orca.engrad-mp2.def2tzvp.frozencore.en.tmp) ****
             **** THE GBW FILE WAS UPDATED (12h2o.su.etal.mol8,11-orca.engrad-mp2.def2tzvp.frozencore.gbw) ****
             **** DENSITY FILE WAS UPDATED (12h2o.su.etal.mol8,11-orca.engrad-mp2.def2tzvp.frozencore.scfp) ****
----------------
ORBITAL ENERGIES
----------------

  NO   OCC          E(Eh)            E(eV) 
   0   2.0000     -20.568238      -559.6902 
   1   2.0000     -20.565668      -559.6203 
   2   2.0000      -1.347485       -36.6669 
   3   2.0000      -1.344928       -36.5974 
   4   2.0000      -0.710303       -19.3283 
   5   2.0000      -0.707689       -19.2572 
   6   2.0000      -0.584772       -15.9124 
   7   2.0000      -0.582219       -15.8430 
   8   2.0000      -0.512284       -13.9400 
   9   2.0000      -0.509706       -13.8698 
  10   0.0000       0.113783         3.0962 
  11   0.0000       0.128217         3.4890 
  12   0.0000       0.189424         5.1545 
  13   0.0000       0.195574         5.3218 
  14   0.0000       0.513344        13.9688 
  15   0.0000       0.516104        14.0439 
  16   0.0000       0.559365        15.2211 
  17   0.0000       0.563733        15.3400 
  18   0.0000       0.592264        16.1163 
  19   0.0000       0.594912        16.1884 
  20   0.0000       0.629534        17.1305 
  21   0.0000       0.635152        17.2834 
  22   0.0000       0.753523        20.5044 
  23   0.0000       0.763625        20.7793 
  24   0.0000       0.765885        20.8408 
  25   0.0000       0.777498        21.1568 
  26   0.0000       1.399064        38.0705 
  27   0.0000       1.401573        38.1387 
  28   0.0000       1.433380        39.0043 
  29   0.0000       1.435997        39.0755 
  30   0.0000       1.541158        41.9370 
  31   0.0000       1.543706        42.0064 
  32   0.0000       1.777657        48.3725 
  33   0.0000       1.780862        48.4597 
  34   0.0000       1.897554        51.6351 
  35   0.0000       1.901631        51.7460 
  36   0.0000       2.015723        54.8506 
  37   0.0000       2.018210        54.9183 
  38   0.0000       2.279747        62.0351 
  39   0.0000       2.290947        62.3398 
  40   0.0000       2.339538        63.6621 
  41   0.0000       2.342110        63.7321 
  42   0.0000       2.374377        64.6101 
  43   0.0000       2.377022        64.6820 
  44   0.0000       2.572942        70.0133 
  45   0.0000       2.576717        70.1160 
  46   0.0000       2.669008        72.6274 
  47   0.0000       2.671618        72.6984 
  48   0.0000       2.943480        80.0962 
  49   0.0000       2.945754        80.1581 
  50   0.0000       2.946952        80.1906 
  51   0.0000       2.950827        80.2961 
  52   0.0000       3.018863        82.1474 
  53   0.0000       3.021426        82.2172 
  54   0.0000       3.132403        85.2370 
  55   0.0000       3.138650        85.4070 
  56   0.0000       4.003443       108.9392 
  57   0.0000       4.012646       109.1897 
  58   0.0000       4.296636       116.9174 
  59   0.0000       4.299458       116.9942 
  60   0.0000       5.542371       150.8156 
  61   0.0000       5.544933       150.8853 
  62   0.0000       5.646387       153.6460 
  63   0.0000       5.648927       153.7151 
  64   0.0000       5.815440       158.2462 
  65   0.0000       5.818035       158.3168 
  66   0.0000       5.845364       159.0604 
  67   0.0000       5.847953       159.1309 
  68   0.0000       5.888461       160.2332 
  69   0.0000       5.891064       160.3040 
  70   0.0000       6.481874       176.3808 
  71   0.0000       6.484430       176.4503 
  72   0.0000       6.687619       181.9794 
  73   0.0000       6.690258       182.0512 
  74   0.0000       6.822646       185.6536 
  75   0.0000       6.825204       185.7232 
  76   0.0000       6.879989       187.2140 
  77   0.0000       6.882595       187.2849 
  78   0.0000       6.939039       188.8208 
  79   0.0000       6.941597       188.8905 
  80   0.0000       7.353451       200.0976 
  81   0.0000       7.356426       200.1785 
  82   0.0000       7.497614       204.0205 
  83   0.0000       7.500203       204.0909 
  84   0.0000      44.798277      1219.0231 
  85   0.0000      44.817866      1219.5561 

                    ********************************
                    * MULLIKEN POPULATION ANALYSIS *
                    ********************************

-----------------------
MULLIKEN ATOMIC CHARGES
-----------------------
   0 O :   -0.689528
   1 H :    0.345773
   2 H :    0.343755
   3 O :   -0.689358
   4 H :    0.342471
   5 H :    0.346886
Sum of atomic charges:   -0.0000000

--------------------------------
MULLIKEN REDUCED ORBITAL CHARGES
--------------------------------
  0 O s       :     3.814798  s :     3.814798
      pz      :     1.500904  p :     4.846631
      px      :     1.528436
      py      :     1.817291
      dz2     :     0.012273  d :     0.026554
      dxz     :     0.001240
      dyz     :     0.003143
      dx2y2   :     0.002187
      dxy     :     0.007712
      f0      :     0.000271  f :     0.001545
      f+1     :     0.000385
      f-1     :     0.000177
      f+2     :     0.000057
      f-2     :     0.000057
      f+3     :     0.000071
      f-3     :     0.000527
  1 H s       :     0.609338  s :     0.609338
      pz      :     0.018933  p :     0.044889
      px      :     0.012281
      py      :     0.013675
  2 H s       :     0.611529  s :     0.611529
      pz      :     0.010685  p :     0.044716
      px      :     0.018250
      py      :     0.015781
  3 O s       :     3.814686  s :     3.814686
      pz      :     1.498031  p :     4.846583
      px      :     1.817980
      py      :     1.530571
      dz2     :     0.012284  d :     0.026544
      dxz     :     0.003140
      dyz     :     0.001247
      dx2y2   :     0.002173
      dxy     :     0.007701
      f0      :     0.000271  f :     0.001545
      f+1     :     0.000177
      f-1     :     0.000385
      f+2     :     0.000057
      f-2     :     0.000057
      f+3     :     0.000527
      f-3     :     0.000071
  4 H s       :     0.612597  s :     0.612597
      pz      :     0.018898  p :     0.044932
      px      :     0.013730
      py      :     0.012304
  5 H s       :     0.608467  s :     0.608467
      pz      :     0.010640  p :     0.044646
      px      :     0.015737
      py      :     0.018269


                     *******************************
                     * LOEWDIN POPULATION ANALYSIS *
                     *******************************

----------------------
LOEWDIN ATOMIC CHARGES
----------------------
   0 O :   -0.330511
   1 H :    0.165062
   2 H :    0.165449
   3 O :   -0.330527
   4 H :    0.163675
   5 H :    0.166852

-------------------------------
LOEWDIN REDUCED ORBITAL CHARGES
-------------------------------
  0 O s       :     3.474845  s :     3.474845
      pz      :     1.508444  p :     4.819410
      px      :     1.523169
      py      :     1.787798
      dz2     :     0.016864  d :     0.034017
      dxz     :     0.002094
      dyz     :     0.002574
      dx2y2   :     0.002364
      dxy     :     0.010121
      f0      :     0.000490  f :     0.002239
      f+1     :     0.000599
      f-1     :     0.000334
      f+2     :     0.000027
      f-2     :     0.000047
      f+3     :     0.000003
      f-3     :     0.000737
  1 H s       :     0.677527  s :     0.677527
      pz      :     0.080202  p :     0.157410
      px      :     0.035207
      py      :     0.042001
  2 H s       :     0.678094  s :     0.678094
      pz      :     0.029784  p :     0.156457
      px      :     0.071752
      py      :     0.054921
  3 O s       :     3.474800  s :     3.474800
      pz      :     1.507162  p :     4.819485
      px      :     1.788164
      py      :     1.524158
      dz2     :     0.016912  d :     0.034004
      dxz     :     0.002579
      dyz     :     0.002121
      dx2y2   :     0.002341
      dxy     :     0.010050
      f0      :     0.000493  f :     0.002239
      f+1     :     0.000334
      f-1     :     0.000601
      f+2     :     0.000027
      f-2     :     0.000048
      f+3     :     0.000734
      f-3     :     0.000003
  4 H s       :     0.678996  s :     0.678996
      pz      :     0.080029  p :     0.157329
      px      :     0.042073
      py      :     0.035226
  5 H s       :     0.676651  s :     0.676651
      pz      :     0.029701  p :     0.156497
      px      :     0.054906
      py      :     0.071890


                      *****************************
                      * MAYER POPULATION ANALYSIS *
                      *****************************

  NA   - Mulliken gross atomic population
  ZA   - Total nuclear charge
  QA   - Mulliken gross atomic charge
  VA   - Mayer's total valence
  BVA  - Mayer's bonded valence
  FA   - Mayer's free valence

  ATOM       NA         ZA         QA         VA         BVA        FA
  0 O      8.6895     8.0000    -0.6895     1.7811     1.7811    -0.0000
  1 H      0.6542     1.0000     0.3458     0.8944     0.8944     0.0000
  2 H      0.6562     1.0000     0.3438     0.8956     0.8956    -0.0000
  3 O      8.6894     8.0000    -0.6894     1.7812     1.7812    -0.0000
  4 H      0.6575     1.0000     0.3425     0.8966     0.8966    -0.0000
  5 H      0.6531     1.0000     0.3469     0.8935     0.8935    -0.0000

  Mayer bond orders larger than 0.100000
B(  0-O ,  1-H ) :   0.8899 B(  0-O ,  2-H ) :   0.8912 B(  3-O ,  4-H ) :   0.8922 
B(  3-O ,  5-H ) :   0.8891 

-------
TIMINGS
-------

Total SCF time: 0 days 0 hours 0 min 1 sec 

Total time                  ....       1.922 sec
Sum of individual times     ....       1.308 sec  ( 68.0%)

Fock matrix formation       ....       1.073 sec  ( 55.8%)
Diagonalization             ....       0.008 sec  (  0.4%)
Density matrix formation    ....       0.002 sec  (  0.1%)
Population analysis         ....       0.002 sec  (  0.1%)
Initial guess               ....       0.086 sec  (  4.5%)
Orbital Transformation      ....       0.000 sec  (  0.0%)
Orbital Orthonormalization  ....       0.000 sec  (  0.0%)
DIIS solution               ....       0.003 sec  (  0.2%)
SOSCF solution              ....       0.003 sec  (  0.1%)


           ************************************************************
           *        Program running with 6 parallel MPI-processes     *
           *              working on a common directory               *
           ************************************************************

------------------------------------------------------------------------------
                                ORCA  MP2 
------------------------------------------------------------------------------

Freezing NCore=4 chemical core electrons
MP2 will be done in the AO integral direct mode
The Q1-step will be done using symmetric double matrices
Dimension of the basis                    ...   86
Memory devoted for MP2                    ... 8000 MB   
Memory needed for all in one shot         ...    6 MB
Number of MOs that can be treated together... 3258      
MP2 density construction                  ... relaxed
The MP2 gradient is requested => amplitudes will be stored on disk
Total number of MOs              ...    8
Number of MOs treated per batch  ...    2 
Number of batches necessary      ...    1 
OPERATORS   0/  0 PASS   0
-----------------------------------------------
 MP2 CORRELATION ENERGY   :     -0.510581661 Eh
-----------------------------------------------


---------------------
MP2 DENSITY FORMATION
---------------------

Completing the external part of the density      ... done
Storing the unrelaxed density                    ... done

Calculating G(D)                                 ... done
Completing the Lagrangian                        ... done
Solving the Z-vector equations                   ... 

------------------------------------------------------------------------------
                           ORCA CP-SCF CALCULATION
------------------------------------------------------------------------------

Input orbitals are from        ... 12h2o.su.etal.mol8,11-orca.engrad-mp2.def2tzvp.frozencore.gbw
Input Perturbation             ... 12h2o.su.etal.mol8,11-orca.engrad-mp2.def2tzvp.frozencore.pin.tmp
Wavefunction output            ... 12h2o.su.etal.mol8,11-orca.engrad-mp2.def2tzvp.frozencore.pout.tmp
Perturbation mode              ... Real perturbation (singlet)
Solver                         ... POPLE
Max. number of iterations      ... 128
Convergence tolerance          ... 1.000e-08
Integral handling              ... Direct
Number of perturbations        ... 1
Number of operators            ... 1
Orbital ranges used for CP-SCF:
 Operator 0:  Orbitals   0...  9  to  10... 85
Variables per vector in CP-SCF ... 760
Number of vectors sought       ... 1
     CP-SCF ITERATION   0: 
     CP-SCF ITERATION   1:      0.000210731495
     CP-SCF ITERATION   2:      0.000003915046
     CP-SCF ITERATION   3:      0.000000107784
     CP-SCF ITERATION   4:      0.000000001393
                                                 ... done
Finalizing the relaxed density                   ... done
Transforming P to the AO basis                   ... done
Storing the relaxed density                      ... done

------------------------------------
ENERGY WEIGHTED DENSITY FINALIZATION
------------------------------------

Gathering the parts of the W-matrix              ...                                                      done
Forming the Z-density                            ... done
Transforming Z to the AO basis                   ... done
Calculating G(Z)                                 ... done
Finalizing the W-matrix                          ...                                                      done
Transforming W to the AO basis and storing       ... done

                *********************************************
                * UNRELAXED MP2 DENSITY POPULATION ANALYSIS *
                *********************************************

------------------------------------------------------------------------------
                           ORCA POPULATION ANALYSIS
------------------------------------------------------------------------------
Input electron density              ... 12h2o.su.etal.mol8,11-orca.engrad-mp2.def2tzvp.frozencore.pmp2ur
BaseName (.gbw .S,...)              ... 12h2o.su.etal.mol8,11-orca.engrad-mp2.def2tzvp.frozencore

                    ********************************
                    * MULLIKEN POPULATION ANALYSIS *
                    ********************************

-----------------------
MULLIKEN ATOMIC CHARGES
-----------------------
   0 O :   -0.684848
   1 H :    0.343446
   2 H :    0.341403
   3 O :   -0.684678
   4 H :    0.340142
   5 H :    0.344536
Sum of atomic charges:   -0.0000000

--------------------------------
MULLIKEN REDUCED ORBITAL CHARGES
--------------------------------
  0 O s       :     3.809977  s :     3.809977
      pz      :     1.492128  p :     4.817992
      px      :     1.519690
      py      :     1.806175
      dz2     :     0.017223  d :     0.052790
      dxz     :     0.006540
      dyz     :     0.008519
      dx2y2   :     0.007620
      dxy     :     0.012888
      f0      :     0.000645  f :     0.004089
      f+1     :     0.000747
      f-1     :     0.000546
      f+2     :     0.000414
      f-2     :     0.000419
      f+3     :     0.000438
      f-3     :     0.000879
  1 H s       :     0.610016  s :     0.610016
      pz      :     0.019028  p :     0.046538
      px      :     0.012970
      py      :     0.014541
  2 H s       :     0.612224  s :     0.612224
      pz      :     0.011473  p :     0.046373
      px      :     0.018433
      py      :     0.016467
  3 O s       :     3.809867  s :     3.809867
      pz      :     1.489275  p :     4.817942
      px      :     1.806859
      py      :     1.521807
      dz2     :     0.017232  d :     0.052781
      dxz     :     0.008515
      dyz     :     0.006546
      dx2y2   :     0.007607
      dxy     :     0.012880
      f0      :     0.000645  f :     0.004089
      f+1     :     0.000546
      f-1     :     0.000748
      f+2     :     0.000414
      f-2     :     0.000420
      f+3     :     0.000879
      f-3     :     0.000438
  4 H s       :     0.613264  s :     0.613264
      pz      :     0.018997  p :     0.046594
      px      :     0.014599
      py      :     0.012998
  5 H s       :     0.609173  s :     0.609173
      pz      :     0.011425  p :     0.046291
      px      :     0.016419
      py      :     0.018447


                     *******************************
                     * LOEWDIN POPULATION ANALYSIS *
                     *******************************

----------------------
LOEWDIN ATOMIC CHARGES
----------------------
   0 O :   -0.327837
   1 H :    0.163745
   2 H :    0.164092
   3 O :   -0.327853
   4 H :    0.162341
   5 H :    0.165512

-------------------------------
LOEWDIN REDUCED ORBITAL CHARGES
-------------------------------
  0 O s       :     3.471071  s :     3.471071
      pz      :     1.499331  p :     4.790469
      px      :     1.514150
      py      :     1.776988
      dz2     :     0.022516  d :     0.061321
      dxz     :     0.007327
      dyz     :     0.007890
      dx2y2   :     0.007781
      dxy     :     0.015807
      f0      :     0.000905  f :     0.004975
      f+1     :     0.001015
      f-1     :     0.000727
      f+2     :     0.000389
      f-2     :     0.000417
      f+3     :     0.000375
      f-3     :     0.001147
  1 H s       :     0.675655  s :     0.675655
      pz      :     0.081821  p :     0.160599
      px      :     0.035947
      py      :     0.042831
  2 H s       :     0.676236  s :     0.676236
      pz      :     0.030521  p :     0.159672
      px      :     0.073158
      py      :     0.055993
  3 O s       :     3.471027  s :     3.471027
      pz      :     1.498052  p :     4.790542
      px      :     1.777355
      py      :     1.515136
      dz2     :     0.022563  d :     0.061308
      dxz     :     0.007896
      dyz     :     0.007354
      dx2y2   :     0.007759
      dxy     :     0.015737
      f0      :     0.000907  f :     0.004976
      f+1     :     0.000727
      f-1     :     0.001016
      f+2     :     0.000389
      f-2     :     0.000417
      f+3     :     0.001144
      f-3     :     0.000375
  4 H s       :     0.677111  s :     0.677111
      pz      :     0.081669  p :     0.160548
      px      :     0.042907
      py      :     0.035972
  5 H s       :     0.674806  s :     0.674806
      pz      :     0.030434  p :     0.159682
      px      :     0.055970
      py      :     0.073278


                      *****************************
                      * MAYER POPULATION ANALYSIS *
                      *****************************

  NA   - Mulliken gross atomic population
  ZA   - Total nuclear charge
  QA   - Mulliken gross atomic charge
  VA   - Mayer's total valence
  BVA  - Mayer's bonded valence
  FA   - Mayer's free valence

  ATOM       NA         ZA         QA         VA         BVA        FA
  0 O      8.6848     8.0000    -0.6848     2.0827     1.6989     0.3838
  1 H      0.6566     1.0000     0.3434     0.9003     0.8531     0.0472
  2 H      0.6586     1.0000     0.3414     0.9016     0.8540     0.0476
  3 O      8.6847     8.0000    -0.6847     2.0828     1.6991     0.3838
  4 H      0.6599     1.0000     0.3401     0.9025     0.8550     0.0475
  5 H      0.6555     1.0000     0.3445     0.8994     0.8521     0.0473

  Mayer bond orders larger than 0.100000
B(  0-O ,  1-H ) :   0.8490 B(  0-O ,  2-H ) :   0.8499 B(  3-O ,  4-H ) :   0.8510 
B(  3-O ,  5-H ) :   0.8481 


                *******************************************
                * RELAXED MP2 DENSITY POPULATION ANALYSIS *
                *******************************************

------------------------------------------------------------------------------
                           ORCA POPULATION ANALYSIS
------------------------------------------------------------------------------
Input electron density              ... 12h2o.su.etal.mol8,11-orca.engrad-mp2.def2tzvp.frozencore.pmp2re
BaseName (.gbw .S,...)              ... 12h2o.su.etal.mol8,11-orca.engrad-mp2.def2tzvp.frozencore

                    ********************************
                    * MULLIKEN POPULATION ANALYSIS *
                    ********************************

-----------------------
MULLIKEN ATOMIC CHARGES
-----------------------
   0 O :   -0.672165
   1 H :    0.337056
   2 H :    0.335109
   3 O :   -0.671987
   4 H :    0.333863
   5 H :    0.338123
Sum of atomic charges:   -0.0000000

--------------------------------
MULLIKEN REDUCED ORBITAL CHARGES
--------------------------------
  0 O s       :     3.815259  s :     3.815259
      pz      :     1.485834  p :     4.802454
      px      :     1.515343
      py      :     1.801278
      dz2     :     0.015835  d :     0.050437
      dxz     :     0.006469
      dyz     :     0.008473
      dx2y2   :     0.007545
      dxy     :     0.012116
      f0      :     0.000627  f :     0.004014
      f+1     :     0.000725
      f-1     :     0.000536
      f+2     :     0.000415
      f-2     :     0.000418
      f+3     :     0.000439
      f-3     :     0.000855
  1 H s       :     0.615653  s :     0.615653
      pz      :     0.018270  p :     0.047291
      px      :     0.013528
      py      :     0.015493
  2 H s       :     0.617759  s :     0.617759
      pz      :     0.012167  p :     0.047132
      px      :     0.017925
      py      :     0.017039
  3 O s       :     3.815148  s :     3.815148
      pz      :     1.482996  p :     4.802395
      px      :     1.801960
      py      :     1.517439
      dz2     :     0.015841  d :     0.050429
      dxz     :     0.008470
      dyz     :     0.006473
      dx2y2   :     0.007533
      dxy     :     0.012112
      f0      :     0.000627  f :     0.004014
      f+1     :     0.000536
      f-1     :     0.000725
      f+2     :     0.000415
      f-2     :     0.000418
      f+3     :     0.000855
      f-3     :     0.000439
  4 H s       :     0.618778  s :     0.618778
      pz      :     0.018243  p :     0.047359
      px      :     0.015557
      py      :     0.013559
  5 H s       :     0.614842  s :     0.614842
      pz      :     0.012114  p :     0.047035
      px      :     0.016984
      py      :     0.017936


                     *******************************
                     * LOEWDIN POPULATION ANALYSIS *
                     *******************************

----------------------
LOEWDIN ATOMIC CHARGES
----------------------
   0 O :   -0.331191
   1 H :    0.165400
   2 H :    0.165791
   3 O :   -0.331205
   4 H :    0.164043
   5 H :    0.167161

-------------------------------
LOEWDIN REDUCED ORBITAL CHARGES
-------------------------------
  0 O s       :     3.473357  s :     3.473357
      pz      :     1.501061  p :     4.792904
      px      :     1.516440
      py      :     1.775403
      dz2     :     0.021723  d :     0.059937
      dxz     :     0.007176
      dyz     :     0.007908
      dx2y2   :     0.007711
      dxy     :     0.015417
      f0      :     0.000905  f :     0.004992
      f+1     :     0.001024
      f-1     :     0.000725
      f+2     :     0.000391
      f-2     :     0.000417
      f+3     :     0.000375
      f-3     :     0.001155
  1 H s       :     0.673841  s :     0.673841
      pz      :     0.080989  p :     0.160759
      px      :     0.036047
      py      :     0.043723
  2 H s       :     0.674340  s :     0.674340
      pz      :     0.030805  p :     0.159870
      px      :     0.072462
      py      :     0.056603
  3 O s       :     3.473309  s :     3.473309
      pz      :     1.499816  p :     4.792979
      px      :     1.775768
      py      :     1.517396
      dz2     :     0.021767  d :     0.059924
      dxz     :     0.007914
      dyz     :     0.007201
      dx2y2   :     0.007690
      dxy     :     0.015353
      f0      :     0.000908  f :     0.004993
      f+1     :     0.000724
      f-1     :     0.001025
      f+2     :     0.000391
      f-2     :     0.000417
      f+3     :     0.001152
      f-3     :     0.000375
  4 H s       :     0.675209  s :     0.675209
      pz      :     0.080865  p :     0.160747
      px      :     0.043805
      py      :     0.036077
  5 H s       :     0.673002  s :     0.673002
      pz      :     0.030713  p :     0.159837
      px      :     0.056565
      py      :     0.072559


                      *****************************
                      * MAYER POPULATION ANALYSIS *
                      *****************************

  NA   - Mulliken gross atomic population
  ZA   - Total nuclear charge
  QA   - Mulliken gross atomic charge
  VA   - Mayer's total valence
  BVA  - Mayer's bonded valence
  FA   - Mayer's free valence

  ATOM       NA         ZA         QA         VA         BVA        FA
  0 O      8.6722     8.0000    -0.6722     2.0867     1.7076     0.3791
  1 H      0.6629     1.0000     0.3371     0.9049     0.8576     0.0473
  2 H      0.6649     1.0000     0.3351     0.9060     0.8584     0.0477
  3 O      8.6720     8.0000    -0.6720     2.0869     1.7078     0.3791
  4 H      0.6661     1.0000     0.3339     0.9070     0.8594     0.0476
  5 H      0.6619     1.0000     0.3381     0.9040     0.8566     0.0474

  Mayer bond orders larger than 0.100000
B(  0-O ,  1-H ) :   0.8534 B(  0-O ,  2-H ) :   0.8542 B(  3-O ,  4-H ) :   0.8552 
B(  3-O ,  5-H ) :   0.8525 


----------------------------------
MP2 DERIVATIVE INTEGRAL GENERATION
----------------------------------


Input Wavefunction Amplitudes       ... 12h2o.su.etal.mol8,11-orca.engrad-mp2.def2tzvp.frozencore.mp2tsaa.tmp
Input Correlated Electron Density   ... 12h2o.su.etal.mol8,11-orca.engrad-mp2.def2tzvp.frozencore.pmp2re
Input Energy Weighted Density       ... 12h2o.su.etal.mol8,11-orca.engrad-mp2.def2tzvp.frozencore.wmp2.tmp
Input SCF Electron Density          ... 12h2o.su.etal.mol8,11-orca.engrad-mp2.def2tzvp.frozencore.scfp

One-Electron Terms    ...
                        ... One-Electron Terms done
Prescreening matrices              ... done

Batch handling in the gradient evaluation:
Memory available                      ... 8000.0 MB
Memory per occupied orbital in Q2     ...    0.5 MB
Memory per occupied orbital in Q3     ...    0.0 MB
Total memory requirement per |i>      ...    0.5 MB
Max. Number of orbitals possible      ...  16543
Number of orbitals treated per batch  ...      8
Number of batches to be done          ...      1
Batch   0: i=    2 ...     9

---------------------------------------
MP2 TOTAL ENERGY:     -152.625441253 Eh
---------------------------------------

The final MP2 gradient
  0:   0.00738110  -0.00765223  -0.00820521
  1:   0.00207454   0.00190124   0.00865683
  2:  -0.00954661   0.00573314  -0.00044188
  3:   0.00739684   0.00698996   0.00844862
  4:  -0.00159146   0.00235511  -0.00895019
  5:  -0.00571442  -0.00932722   0.00049182

-----------------------------------
NORM OF THE MP2 GRADIENT:  0.027757
-----------------------------------

-------------------------   --------------------
FINAL SINGLE POINT ENERGY      -152.625441253087
-------------------------   --------------------


                            ***************************************
                            *     ORCA property calculations      *
                            ***************************************

                                    ---------------------
                                    Active property flags
                                    ---------------------
   (+) Dipole Moment


------------------------------------------------------------------------------
                       ORCA ELECTRIC PROPERTIES CALCULATION
------------------------------------------------------------------------------

Dipole Moment Calculation                       ... on
Quadrupole Moment Calculation                   ... off
Polarizability Calculation                      ... off
GBWName                                         ... 12h2o.su.etal.mol8,11-orca.engrad-mp2.def2tzvp.frozencore.gbw
Electron density file                           ... 12h2o.su.etal.mol8,11-orca.engrad-mp2.def2tzvp.frozencore.scfp
The origin for moment calculation is the CENTER OF MASS  = ( 0.890053,  2.363198 -0.000000)

-------------
DIPOLE MOMENT
-------------
                                X             Y             Z
Electronic contribution:      0.14595      -0.01815       0.00556
Nuclear contribution   :     -1.02062       0.11069       0.00000
                        -----------------------------------------
Total Dipole Moment    :     -0.87467       0.09254       0.00556
                        -----------------------------------------
Magnitude (a.u.)       :      0.87957
Magnitude (Debye)      :      2.23570



--------------------
Rotational spectrum 
--------------------
 
Rotational constants in cm-1:     6.630700     0.046937     0.046870 
Rotational constants in MHz : 198783.384328  1407.135931  1405.140390 

 Dipole components along the rotational axes: 
x,y,z [a.u.] :     0.365205     0.748671     0.282426 
x,y,z [Debye]:     0.928278     1.902971     0.717870 

 

                         *** MP2 UNRELAXED DENSITY ***

------------------------------------------------------------------------------
                       ORCA ELECTRIC PROPERTIES CALCULATION
------------------------------------------------------------------------------

Dipole Moment Calculation                       ... on
Quadrupole Moment Calculation                   ... off
Polarizability Calculation                      ... off
GBWName                                         ... 12h2o.su.etal.mol8,11-orca.engrad-mp2.def2tzvp.frozencore.gbw
Electron density file                           ... 12h2o.su.etal.mol8,11-orca.engrad-mp2.def2tzvp.frozencore.pmp2ur
The origin for moment calculation is the CENTER OF MASS  = ( 0.890053,  2.363198 -0.000000)

-------------
DIPOLE MOMENT
-------------
                                X             Y             Z
Electronic contribution:      0.15610      -0.01924       0.00562
Nuclear contribution   :     -1.02062       0.11069       0.00000
                        -----------------------------------------
Total Dipole Moment    :     -0.86453       0.09145       0.00562
                        -----------------------------------------
Magnitude (a.u.)       :      0.86937
Magnitude (Debye)      :      2.20976



--------------------
Rotational spectrum 
--------------------
 
Rotational constants in cm-1:     6.630700     0.046937     0.046870 
Rotational constants in MHz : 198783.384328  1407.135931  1405.140390 

 Dipole components along the rotational axes: 
x,y,z [a.u.] :     0.361078     0.739927     0.279163 
x,y,z [Debye]:     0.917786     1.880746     0.709577 

 

                           *** MP2 RELAXED DENSITY ***

------------------------------------------------------------------------------
                       ORCA ELECTRIC PROPERTIES CALCULATION
------------------------------------------------------------------------------

Dipole Moment Calculation                       ... on
Quadrupole Moment Calculation                   ... off
Polarizability Calculation                      ... off
GBWName                                         ... 12h2o.su.etal.mol8,11-orca.engrad-mp2.def2tzvp.frozencore.gbw
Electron density file                           ... 12h2o.su.etal.mol8,11-orca.engrad-mp2.def2tzvp.frozencore.pmp2re
The origin for moment calculation is the CENTER OF MASS  = ( 0.890053,  2.363198 -0.000000)

-------------
DIPOLE MOMENT
-------------
                                X             Y             Z
Electronic contribution:      0.16701      -0.02025       0.00553
Nuclear contribution   :     -1.02062       0.11069       0.00000
                        -----------------------------------------
Total Dipole Moment    :     -0.85362       0.09043       0.00553
                        -----------------------------------------
Magnitude (a.u.)       :      0.85841
Magnitude (Debye)      :      2.18191



--------------------
Rotational spectrum 
--------------------
 
Rotational constants in cm-1:     6.630700     0.046937     0.046870 
Rotational constants in MHz : 198783.384328  1407.135931  1405.140390 

 Dipole components along the rotational axes: 
x,y,z [a.u.] :     0.356529     0.730651     0.275511 
x,y,z [Debye]:     0.906226     1.857168     0.700294 

 

Timings for individual modules:

Sum of individual times         ...       23.914 sec (=   0.399 min)
GTO integral calculation        ...        6.757 sec (=   0.113 min)  28.3 %
SCF iterations                  ...        7.714 sec (=   0.129 min)  32.3 %
MP2 module                      ...        9.443 sec (=   0.157 min)  39.5 %
                             ****ORCA TERMINATED NORMALLY****
TOTAL RUN TIME: 0 days 0 hours 0 minutes 33 seconds 923 msec
