31
Energy:   -382.76613727
Na  -0.74026278   0.05674216  -0.05068398
C    4.07056377   1.42115303   0.46509163
H    4.67671188   0.53960904   0.48419238
H    4.33650764   2.05470352   1.28532741
H    4.22954475   1.94344455  -0.45514513
C    2.58658681   1.02636823   0.58152771
N    1.48169852   0.73243299   0.66821967
C    2.60177692  -3.75499227  -0.28861768
H    2.42691356  -4.70143247   0.17890123
H    3.48016103  -3.30817666   0.12815116
H    2.73834187  -3.89654045  -1.34038439
C    1.39267936  -2.83218112  -0.04757274
N    0.49245126  -2.14510627   0.13189618
C   -2.30951488   2.40585390   4.03719202
H   -1.74336720   3.30939131   4.12661877
H   -2.00878363   1.71944975   4.80093881
H   -3.35116107   2.62548591   4.14505346
C   -2.05798021   1.77723730   2.65401760
N   -1.87070122   1.30920366   1.62418137
C   -0.08529810   4.02101422  -3.32952758
H    0.87355397   4.38152640  -3.02044206
H   -0.82014514   4.78290261  -3.17324258
H   -0.05230593   3.76493256  -4.36790747
C   -0.45518261   2.77416039  -2.50482098
N   -0.73057844   1.84582104  -1.89078943
C   -3.35739720  -4.13986021  -0.85485209
H   -4.19432018  -4.30370852  -0.20862160
H   -2.56306890  -4.80406661  -0.58509016
H   -3.64773118  -4.32402784  -1.86810801
C   -2.87822798  -2.68301413  -0.71486510
N   -2.52146471  -1.59832601  -0.61063842
