31
Energy:   -383.29236346
Na   0.27135926  -0.49018504   0.37956524
C   -0.16681396   3.60767001  -2.72352684
H   -0.80821250   4.42921815  -2.48152120
H   -0.52016943   3.12928691  -3.61301468
H    0.82831453   3.96705738  -2.88308596
C   -0.16735291   2.59651790  -1.56198859
N   -0.16775419   1.84366919  -0.69717055
C   -3.77476593   0.10258058  -2.25027380
H   -3.44222816   0.72154620  -3.05724366
H   -4.31507216   0.69739892  -1.54376165
H   -4.41332163  -0.66705165  -2.63081545
C   -2.55668965  -0.53666705  -1.55799304
N   -1.64977649  -1.01261596  -1.04255855
C    2.98130632  -0.07463752  -3.66097488
H    2.44876392  -0.49901226  -4.48632623
H    4.00028336  -0.39992238  -3.68880746
H    2.94582369   0.99288031  -3.72458107
C    2.33227137  -0.53211660  -2.34148007
N    1.84903536  -0.87273056  -1.35905621
C    3.49011638  -2.41193738   3.89656933
H    4.28174788  -2.90446458   3.37155819
H    3.01781157  -3.10475745   4.56127047
H    3.88982488  -1.59406925   4.45890725
C    2.45524137  -1.88304116   2.88617213
N    1.68472989  -1.48925389   2.13388548
C   -2.70433764  -0.74798771   4.35118896
H   -2.59446688  -0.02541681   5.13267466
H   -2.37187397  -1.70349469   4.69957585
H   -3.73361915  -0.81082576   4.06565430
C   -1.85957110  -0.32229333   3.13597137
N   -1.23060401  -0.00534452   2.23118664
