31
Energy:   -400.02932027
Na  -0.00004662  -0.00002764   0.00002044
C    2.68257742   4.31960989   0.08141048
H    2.12142176   5.07853221   0.58543569
H    2.88512834   4.63260604  -0.92153798
H    3.60562398   4.15654140   0.59744614
C    1.87020168   3.01154296   0.05678137
N    1.26535102   2.03762768   0.03844387
C   -3.74178790   2.37039726  -2.47942485
H   -4.25383931   1.67046188  -3.10615765
H   -3.33064569   3.15375598  -3.08126394
H   -4.42964351   2.78666627  -1.77339803
C   -2.60655418   1.65121253  -1.72734924
N   -1.76132108   1.11574680  -1.16739476
C   -2.68261255  -4.31969727  -0.08135056
H   -3.62005768  -4.16669710   0.41128293
H   -2.13583672  -5.08865814   0.42326261
H   -2.85636708  -4.61259779  -1.09570638
C   -1.87026272  -3.01161417  -0.05672611
N   -1.26543134  -2.03768685  -0.03839209
C    0.01418349  -0.10456919   5.07506382
H   -0.87884300  -0.57915802   5.42459109
H    0.05758304   0.89576685   5.45234803
H    0.86691111  -0.65241717   5.41801758
C    0.00972082  -0.07276055   3.53539882
N    0.00639815  -0.04907757   2.38904825
C    3.72769067  -2.26570878  -2.59571753
H    3.73285117  -3.31216392  -2.37254678
H    4.66773983  -1.83703239  -2.31743132
H    3.56821530  -2.12545484  -3.64442890
C    2.59681863  -1.57842878  -1.80807889
N    1.75483299  -1.06671758  -1.22164611
