31
Energy:   -383.58430881
Na  -0.29361135  -0.48020650   0.53479377
C    3.67629980  -0.67732317   3.81966806
H    3.64857021   0.21632981   4.40747382
H    4.57419496  -0.69387526   3.23793840
H    3.65410368  -1.52999390   4.46570138
C    2.45585551  -0.71248439   2.88111629
N    1.54717925  -0.73866351   2.18232184
C   -3.01192539   3.02692386  -1.87363800
H   -3.25249763   3.62769074  -1.02152044
H   -3.89984224   2.84081442  -2.44097039
H   -2.30017434   3.54243709  -2.48401136
C   -2.41213309   1.68817106  -1.40503355
N   -1.96556045   0.69140875  -1.05613624
C    2.69481348  -1.11637240  -3.49878231
H    2.11795358  -1.24474201  -4.39077675
H    3.18043776  -2.03745001  -3.25244071
H    3.43100047  -0.35606509  -3.65645478
C    1.76656397  -0.70022632  -2.34259232
N    1.07544002  -0.39038665  -1.48175631
C   -1.92759793  -5.14180806  -0.70034717
H   -2.56395145  -4.95128259  -1.53918828
H   -2.47141410  -5.68551469   0.04365966
H   -1.08310181  -5.71762825  -1.01682230
C   -1.44447803  -3.80473819  -0.10836801
N   -1.08477331  -2.80922889   0.33238738
C   -1.18479589   4.34662058   1.83410322
H   -0.61830576   5.05023034   1.26058564
H   -1.05306471   4.54799040   2.87669431
H   -2.22111539   4.43330517   1.58225653
C   -0.69818635   2.91936293   1.52145844
N   -0.33588344   1.85670473   1.28868018
