4
Energy:   -229.59224480
O  -0.116519510   0.070389450  -0.084602250
H  -0.891359110   0.632065630  -0.065229140
H   0.112534590   0.009377020  -1.011987580
Ca   1.081730690  -0.846312550   1.362657730
