4
Energy:   -224.61851818
O  -0.121485710  -0.002899890  -0.122761490
H  -0.841206020  -0.003524640  -0.753819430
H   0.669416010   0.032025970  -0.660800990
Ca   0.405649350  -0.027092500   1.809801960
