4
Energy:   -228.43141486
O  -0.039003570   0.156882860  -0.023291360
H  -0.780476120   0.646409180   0.332818570
H   0.221886540   0.649052630  -0.801710990
Ca   0.698117090  -1.734896460   0.569535870
