4
Energy:   -223.83057570
O  -0.167718290   0.050805250   0.123206570
H   0.360158910   0.228418440   0.901686540
H  -0.752940030  -0.659252910   0.386957920
Ca   0.735558490   0.397383340  -1.668475780
