4
Energy:   -221.31927658
O   0.129791140  -0.117598650  -0.023440340
H   0.318795230  -0.050081110  -0.959362710
H   0.753770070  -0.766833950   0.301175850
Ca  -1.436219210   1.126579250   0.783322120
