4
Energy:   -237.13475444
O  -0.103959470  -0.058493190  -0.057883640
H  -0.952221920  -0.266511850   0.333793400
H  -0.174453790  -0.367416920  -0.961115910
Ca   1.452206610   0.817090010   0.808575030
