4
Energy:   -229.51060813
O   0.060482540  -0.060413470   0.161952220
H  -0.661541490  -0.461553590   0.645687430
H   0.447265490   0.560500560   0.779282410
Ca   0.136225820  -0.006253720  -1.889823940
