4
Energy:   -233.07660483
O   0.069355640   0.106093550   0.089487260
H  -0.572351670   0.474945800   0.696439980
H   0.915642380   0.272532980   0.504611960
Ca  -0.508190620  -1.028189670  -1.510864690
