4
Energy:   -229.67057767
O   0.136664610  -0.030028560  -0.091832140
H   0.338114770  -0.811736690  -0.606207580
H   0.976327030   0.231615080   0.285979300
Ca  -1.721045990   0.706753270   0.521374400
