4
Energy:   -224.41556552
O   0.155520720  -0.030338810   0.086509750
H   0.465933230  -0.834307340   0.503055710
H   0.383334810   0.663789860   0.704990130
Ca  -1.229208980   0.245255930  -1.513561190
