4
Energy:   -232.06797499
O   0.007964720   0.064147870  -0.137011390
H  -0.049529560  -0.763955010  -0.613636910
H   0.209402590   0.714703640  -0.809641910
Ca  -0.194228990  -0.056316200   1.844420240
