4
Energy:   -235.68171491
O  -0.086242130  -0.009210020   0.114382640
H  -0.384952130   0.830484350   0.463549580
H  -0.256955900  -0.635883120   0.817496760
Ca   0.874484190  -0.203450480  -1.644516280
