4
Energy:   -234.64674835
O  -0.016727400   0.061423400  -0.138988360
H  -0.761104580  -0.076943430  -0.724641060
H   0.739810550   0.120904660  -0.722378580
Ca   0.053192120  -0.156709720   1.874647950
