4
Energy:   -223.32460210
O   0.088205630  -0.103244360  -0.122217550
H   0.244766870  -0.769675040  -0.791239650
H   0.053680500   0.720880750  -0.607869350
Ca  -0.490480710   0.235096220   1.791356280
