4
Energy:   -229.95927373
O  -0.014237550  -0.131702540   0.108109900
H  -0.819852680   0.192581460   0.510671690
H   0.459371080  -0.553505250   0.825054240
Ca   0.431457530   0.636812450  -1.695256030
