4
Energy:   -235.53518881
O   0.021077800  -0.039140250  -0.134529550
H  -0.575657770   0.433429030  -0.714888740
H   0.604758620  -0.514406410  -0.725859090
Ca  -0.069585290   0.159603110   1.859797220
