4
Energy:   -223.87562287
O   0.179539860   0.005331460   0.079172800
H   0.069167430  -0.480885310   0.896267050
H   0.976243270  -0.355981570  -0.309348010
Ca  -1.492349060   0.934698000  -0.800127210
