4
Energy:   -235.04187906
O   0.096370610  -0.047320040   0.100051760
H   0.528483790   0.530429410   0.729111060
H   0.634802310  -0.838683190   0.091833820
Ca  -1.480268770   0.430238990  -1.100523580
