4
Energy:   -223.89211345
O  -0.148063670  -0.121065260  -0.104717290
H  -0.813300530  -0.110181980   0.583449350
H   0.163305720  -1.026017540  -0.123219370
Ca   0.991421440   1.492781660  -0.336520550
