4
Energy:   -222.08663208
O   0.109965470   0.046687410  -0.189337850
H   0.904125730   0.297706080   0.282394030
H  -0.175472590   0.850573830  -0.623530880
Ca  -1.013706660  -1.376695310   0.715007130
