4
Energy:   -223.33736279
O  -0.116197180  -0.182045510   0.005003900
H   0.360425270  -0.499232300   0.772112390
H  -1.025073050  -0.115401240   0.297809380
Ca   0.952375800   1.010797020  -1.215611350
