4
Energy:   -232.82707501
O  -0.078049980  -0.013158930   0.137696440
H  -0.750813940  -0.681366520   0.268536500
H   0.332085170   0.085923740   0.996884210
Ca   0.608448370   0.694615510  -1.667549090
