4
Energy:   -224.70175583
O   0.039433680   0.151476480  -0.079479560
H   0.853736020   0.278932620  -0.566201730
H  -0.602502490   0.691941440  -0.539965640
Ca  -0.352165850  -1.359328970   1.386380580
