4
Energy:   -226.72163516
O  -0.061082400   0.150760280   0.055526530
H   0.672563100   0.253786900   0.661646680
H  -0.695158310   0.812580820   0.331521400
Ca   0.132013900  -1.465797950  -1.217142500
