4
Energy:   -225.30653792
O  -0.090163020   0.049967040   0.139411090
H   0.432980080   0.842632260   0.020100640
H  -0.504982260   0.162668490   0.994662650
Ca   0.238461460  -1.221132680  -1.387794810
