4
Energy:   -230.97736224
O  -0.065375300  -0.133172520  -0.053729430
H  -0.706882350  -0.672134190  -0.516569420
H   0.563785430  -0.760967890   0.301603650
Ca   0.275428000   1.848806100   0.336186820
