4
Energy:   -229.05441287
O   0.053922550  -0.080183490   0.127003960
H   0.594798870   0.085577300   0.899149030
H  -0.292042480  -0.962518670   0.261259960
Ca  -0.435552490   1.129038530  -1.530447170
