4
Energy:   -223.06933087
O   0.137820350   0.009375090   0.175667480
H  -0.299359800   0.735400030   0.620631690
H  -0.019311100  -0.747568830   0.740094150
Ca   0.119109260  -0.002623370  -1.841275010
