4
Energy:   -226.07042166
O  -0.100668830  -0.041836330  -0.129802920
H  -0.383452200  -0.685592400  -0.779297750
H  -0.849631860   0.546304980  -0.032973040
Ca   1.566497690   0.230079450   1.142624410
