4
Energy:   -230.08576778
O  -0.084625300   0.083530650   0.109188910
H   0.081977750   0.924403130  -0.316732150
H  -0.761860120   0.273389530   0.758448830
Ca   0.914499990  -1.496800010  -0.688684560
