4
Energy:   -230.78276690
O   0.126085940  -0.104156420  -0.055828140
H   0.909702930   0.304930510  -0.423012220
H  -0.096080400  -0.797690480  -0.677024150
Ca  -1.137666860   0.737485470   1.338217230
