4
Energy:   -229.27631890
O  -0.111659100  -0.124332340  -0.067522440
H  -0.119862140  -0.590741400  -0.903361630
H  -0.895427490   0.424641300  -0.091332340
Ca   1.339989730   0.404195510   1.239784320
