4
Energy:   -234.87955835
O  -0.002661380   0.109915470   0.099101210
H   0.714912400   0.017471780   0.725817950
H  -0.645601450   0.657636140   0.549503240
Ca  -0.073542200  -0.953219820  -1.611407810
