4
Energy:   -223.14230567
O   0.118335400   0.092448110   0.141870680
H  -0.079850730  -0.530758960   0.840846400
H   1.074350930   0.136329360   0.123415630
Ca  -1.328182320   0.283694060  -1.335118250
