4
Energy:   -232.32148024
O  -0.014387760   0.008743870   0.151124680
H  -0.426416650  -0.642874790   0.718449240
H   0.351688630   0.655253370   0.754652140
Ca   0.109386010  -0.029212280  -1.925233920
