4
Energy:   -231.93412812
O   0.136837110  -0.059732540   0.081414610
H   0.147863860  -0.898595520   0.542304140
H   0.473143410   0.569257790   0.719772730
Ca  -0.939144310   0.475669030  -1.565623070
