4
Energy:   -228.45357744
O   0.095564110  -0.145397540   0.010247050
H   0.927813390  -0.241698540  -0.452699060
H   0.258658690  -0.517334640   0.877019690
Ca  -1.505016320   1.109768380  -0.496509390
