4
Energy:   -224.51622939
O   0.134400200  -0.108598360  -0.018955910
H   1.067253410  -0.002590330   0.167535460
H   0.105407990  -0.706688510  -0.765735310
Ca  -1.557166920   0.989468010   0.707835300
