4
Energy:   -225.69355146
O   0.122215280  -0.084496220   0.073753640
H   0.802478620   0.298607730   0.627563180
H   0.425104430  -0.976494490  -0.096037710
Ca  -1.597868990   0.912023810  -0.728191710
