4
Energy:   -232.68065925
O   0.052091350   0.074532770  -0.130905270
H   0.380318750  -0.365847850  -0.914846290
H  -0.402368650   0.848723740  -0.463059300
Ca  -0.065973490  -0.674673190   1.782589760
