4
Energy:   -222.25657280
O   0.142420440  -0.004030610   0.118334500
H  -0.328704410  -0.735374840   0.517594850
H   1.032993790  -0.076170700   0.461710050
Ca  -1.042824740   0.922462440  -1.311040260
