4
Energy:   -223.91624570
O  -0.053078140   0.157249480   0.063855830
H   0.468325330   0.445814050  -0.685210770
H  -0.538235270   0.937166260   0.333270440
Ca   0.171426250  -1.834257780   0.285629910
