4
Energy:   -233.08557020
O  -0.140228690  -0.057841720   0.007928090
H  -0.375895210  -0.557530130   0.789595940
H  -0.832219190  -0.257863950  -0.622446490
Ca   1.607323080   1.020648920  -0.202372980
