4
Energy:   -233.45500753
O   0.075243960   0.069561870   0.109681830
H  -0.187965730   0.945958570   0.390540050
H   0.713242800  -0.211178010   0.765711140
Ca  -0.723742520  -0.950155560  -1.495547750
