4
Energy:   -232.84248071
O   0.065624370   0.078718020  -0.122883510
H  -0.369022630  -0.136133590  -0.948203220
H   0.344358820   0.988365710  -0.228145270
Ca  -0.086626250  -1.098610440   1.541241170
