4
Energy:   -227.90836238
O   0.075754690   0.129639640  -0.059244870
H  -0.123850990   1.050999150   0.106544390
H   0.719913150   0.147230750  -0.767045880
Ca  -0.804479660  -1.577706200   0.848375270
