4
Energy:   -228.46487387
O   0.032700180   0.137140860   0.107660440
H  -0.466773760   0.747349740   0.650249380
H   0.623604340  -0.300525510   0.720451000
Ca  -0.233935120  -0.743193470  -1.733923780
