4
Energy:   -229.05709873
O   0.142568180  -0.047713540   0.057736510
H   0.558343040  -0.679479890   0.644451420
H   0.821441510   0.605534600  -0.111466680
Ca  -1.805049080   0.166622440  -0.701904290
