
                                 *****************
                                 * O   R   C   A *
                                 *****************

           --- An Ab Initio, DFT and Semiempirical electronic structure package ---

                  #######################################################
                  #                        -***-                        #
                  #          Department of theory and spectroscopy      #
                  #               Directorship: Frank Neese             #
                  #        Max Planck Institute fuer Kohlenforschung    #
                  #                Kaiser Wilhelm Platz 1               #
                  #                 D-45470 Muelheim/Ruhr               #
                  #                      Germany                        #
                  #                                                     #
                  #                  All rights reserved                #
                  #                        -***-                        #
                  #######################################################


                         Program Version 4.2.0 -  RELEASE  -


 With contributions from (in alphabetic order):
   Daniel Aravena         : Magnetic Suceptibility
   Michael Atanasov       : Ab Initio Ligand Field Theory (pilot matlab implementation)
   Alexander A. Auer      : GIAO ZORA, VPT2
   Ute Becker             : Parallelization
   Giovanni Bistoni       : ED, misc. LED, open-shell LED, HFLED
   Martin Brehm           : Molecular dynamics
   Dmytro Bykov           : SCF Hessian
   Vijay G. Chilkuri      : MRCI spin determinant printing, contributions to CSF-ICE
   Dipayan Datta          : RHF DLPNO-CCSD density
   Achintya Kumar Dutta   : EOM-CC, STEOM-CC
   Dmitry Ganyushin       : Spin-Orbit,Spin-Spin,Magnetic field MRCI
   Miquel Garcia          : C-PCM Hessian, Gaussian charge scheme
   Yang Guo               : DLPNO-NEVPT2, CIM, IAO-localization
   Andreas Hansen         : Spin unrestricted coupled pair/coupled cluster methods
   Benjamin Helmich-Paris : CASSCF linear response (MC-RPA)
   Lee Huntington         : MR-EOM, pCC
   Robert Izsak           : Overlap fitted RIJCOSX, COSX-SCS-MP3, EOM
   Christian Kollmar      : KDIIS, OOCD, Brueckner-CCSD(T), CCSD density
   Simone Kossmann        : Meta GGA functionals, TD-DFT gradient, OOMP2, MP2 Hessian
   Martin Krupicka        : AUTO-CI
   Lucas Lang             : DCDCAS
   Dagmar Lenk            : GEPOL surface, SMD
   Dimitrios Liakos       : Extrapolation schemes; Compound Job, initial MDCI parallelization
   Dimitrios Manganas     : Further ROCIS development; embedding schemes
   Dimitrios Pantazis     : SARC Basis sets
   Taras Petrenko         : DFT Hessian,TD-DFT gradient, ASA, ECA, R-Raman, ABS, FL, XAS/XES, NRVS
   Peter Pinski           : DLPNO-MP2, DLPNO-MP2 Gradient
   Christoph Reimann      : Effective Core Potentials
   Marius Retegan         : Local ZFS, SOC
   Christoph Riplinger    : Optimizer, TS searches, QM/MM, DLPNO-CCSD(T), (RO)-DLPNO pert. Triples
   Tobias Risthaus        : Range-separated hybrids, TD-DFT gradient, RPA, STAB
   Michael Roemelt        : Original ROCIS implementation
   Masaaki Saitow         : Open-shell DLPNO-CCSD energy and density
   Barbara Sandhoefer     : DKH picture change effects
   Avijit Sen             : IP-ROCIS
   Kantharuban Sivalingam : CASSCF convergence, NEVPT2, FIC-MRCI
   Bernardo de Souza      : ESD, SOC TD-DFT
   Georgi Stoychev        : AutoAux, RI-MP2 NMR
   Willem Van den Heuvel  : Paramagnetic NMR
   Boris Wezisla          : Elementary symmetry handling
   Frank Wennmohs         : Technical directorship


 We gratefully acknowledge several colleagues who have allowed us to
 interface, adapt or use parts of their codes:
   Stefan Grimme, W. Hujo, H. Kruse,             : VdW corrections, initial TS optimization,
                  C. Bannwarth                     DFT functionals, gCP, sTDA/sTD-DF
   Ed Valeev, F. Pavosevic, A. Kumar             : LibInt (2-el integral package), F12 methods
   Garnet Chan, S. Sharma, J. Yang, R. Olivares  : DMRG
   Ulf Ekstrom                                   : XCFun DFT Library
   Mihaly Kallay                                 : mrcc  (arbitrary order and MRCC methods)
   Andreas Klamt, Michael Diedenhofen            : otool_cosmo (COSMO solvation model)
   Jiri Pittner, Ondrej Demel                    : Mk-CCSD
   Frank Weinhold                                : gennbo (NPA and NBO analysis)
   Christopher J. Cramer and Donald G. Truhlar   : smd solvation model
   Lars Goerigk                                  : TD-DFT with DH, B97 family of functionals
   V. Asgeirsson, H. Jonsson                     : NEB implementation
   FAccTs GmbH                                   : IRC, NEB, NEB-TS, Multilevel, MM, QM/MM, CI optimization
   S Lehtola, MJT Oliveira, MAL Marques          : LibXC Library


 Your calculation uses the libint2 library for the computation of 2-el integrals
 For citations please refer to: http://libint.valeyev.net

 Your ORCA version has been built with support for libXC version: 4.2.3
 For citations please refer to: https://tddft.org/programs/libxc/

 This ORCA versions uses:
   CBLAS   interface :  Fast vector & matrix operations
   LAPACKE interface :  Fast linear algebra routines
   SCALAPACK package :  Parallel linear algebra routines


----- Orbital basis set information -----
Your calculation utilizes the basis: def2-TZVP
   F. Weigend and R. Ahlrichs, Phys. Chem. Chem. Phys. 7, 3297 (2005).

================================================================================
                                        WARNINGS
                       Please study these warnings very carefully!
================================================================================


WARNING: The frozen-core approximation for MP2-gradient calculations is turned on by default.

INFO   : the flag for use of LIBINT has been found!

================================================================================
                                       INPUT FILE
================================================================================
NAME = 12h2o.su.etal.mol1,2,3,4,6,7,8,10-orca.engrad-mp2.def2tzvp.frozencore.inp
|  1> # 12h2o.su.etal.mol1,2,3,4,6,7,8,10
|  2> ! MP2 def2-TZVP EnGrad TightSCF
|  3> 
|  4> %pal
|  5>     nprocs 6
|  6> end
|  7> 
|  8> %maxcore 8000
|  9> 
| 10> %scf
| 11>     ConvForced true
| 12> end
| 13> 
| 14> *xyz 0 1
| 15> O  -1.794470000  -0.923410000   2.768350000
| 16> H  -2.338250000  -1.359750000   3.430940000
| 17> H  -0.879480000  -1.303000000   2.865760000
| 18> O   0.923410000  -1.794470000  -2.768350000
| 19> H   1.359750000  -2.338250000  -3.430940000
| 20> H   1.303000000  -0.879480000  -2.865760000
| 21> O  -1.752130000  -0.741530000  -2.896280000
| 22> H  -2.036450000  -0.920500000  -1.984040000
| 23> H  -0.921210000  -1.242140000  -2.984230000
| 24> O  -0.885520000   1.737840000   0.052730000
| 25> H  -1.032320000   2.090180000  -0.841890000
| 26> H  -1.284090000   0.839590000   0.017130000
| 27> O   1.737840000   0.885520000  -0.052730000
| 28> H   2.090180000   1.032320000   0.841890000
| 29> H   0.839590000   1.284090000  -0.017130000
| 30> O  -1.737840000  -0.885520000  -0.052730000
| 31> H  -2.090180000  -1.032320000   0.841890000
| 32> H  -0.839590000  -1.284090000  -0.017130000
| 33> O   1.752130000   0.741530000  -2.896280000
| 34> H   2.036450000   0.920500000  -1.984040000
| 35> H   0.921210000   1.242140000  -2.984230000
| 36> O  -0.923410000   1.794470000  -2.768350000
| 37> H  -1.359750000   2.338250000  -3.430940000
| 38> H  -1.303000000   0.879480000  -2.865760000
| 39> *
| 40> 
| 41>                          ****END OF INPUT****
================================================================================

                     *******************************
                     * Energy+Gradient Calculation *
                     *******************************

---------------------------------
CARTESIAN COORDINATES (ANGSTROEM)
---------------------------------
  O     -1.794470   -0.923410    2.768350
  H     -2.338250   -1.359750    3.430940
  H     -0.879480   -1.303000    2.865760
  O      0.923410   -1.794470   -2.768350
  H      1.359750   -2.338250   -3.430940
  H      1.303000   -0.879480   -2.865760
  O     -1.752130   -0.741530   -2.896280
  H     -2.036450   -0.920500   -1.984040
  H     -0.921210   -1.242140   -2.984230
  O     -0.885520    1.737840    0.052730
  H     -1.032320    2.090180   -0.841890
  H     -1.284090    0.839590    0.017130
  O      1.737840    0.885520   -0.052730
  H      2.090180    1.032320    0.841890
  H      0.839590    1.284090   -0.017130
  O     -1.737840   -0.885520   -0.052730
  H     -2.090180   -1.032320    0.841890
  H     -0.839590   -1.284090   -0.017130
  O      1.752130    0.741530   -2.896280
  H      2.036450    0.920500   -1.984040
  H      0.921210    1.242140   -2.984230
  O     -0.923410    1.794470   -2.768350
  H     -1.359750    2.338250   -3.430940
  H     -1.303000    0.879480   -2.865760

----------------------------
CARTESIAN COORDINATES (A.U.)
----------------------------
  NO LB      ZA    FRAG     MASS         X           Y           Z
   0 O     8.0000    0    15.999   -3.391057   -1.744992    5.231423
   1 H     1.0000    0     1.008   -4.418652   -2.569555    6.483537
   2 H     1.0000    0     1.008   -1.661976   -2.462313    5.415502
   3 O     8.0000    0    15.999    1.744992   -3.391057   -5.231423
   4 H     1.0000    0     1.008    2.569555   -4.418652   -6.483537
   5 H     1.0000    0     1.008    2.462313   -1.661976   -5.415502
   6 O     8.0000    0    15.999   -3.311046   -1.401289   -5.473176
   7 H     1.0000    0     1.008   -3.848333   -1.739493   -3.749292
   8 H     1.0000    0     1.008   -1.740835   -2.347304   -5.639377
   9 O     8.0000    0    15.999   -1.673390    3.284042    0.099645
  10 H     1.0000    0     1.008   -1.950802    3.949868   -1.590942
  11 H     1.0000    0     1.008   -2.426578    1.586595    0.032371
  12 O     8.0000    0    15.999    3.284042    1.673390   -0.099645
  13 H     1.0000    0     1.008    3.949868    1.950802    1.590942
  14 H     1.0000    0     1.008    1.586595    2.426578   -0.032371
  15 O     8.0000    0    15.999   -3.284042   -1.673390   -0.099645
  16 H     1.0000    0     1.008   -3.949868   -1.950802    1.590942
  17 H     1.0000    0     1.008   -1.586595   -2.426578   -0.032371
  18 O     8.0000    0    15.999    3.311046    1.401289   -5.473176
  19 H     1.0000    0     1.008    3.848333    1.739493   -3.749292
  20 H     1.0000    0     1.008    1.740835    2.347304   -5.639377
  21 O     8.0000    0    15.999   -1.744992    3.391057   -5.231423
  22 H     1.0000    0     1.008   -2.569555    4.418652   -6.483537
  23 H     1.0000    0     1.008   -2.462313    1.661976   -5.415502

--------------------------------
INTERNAL COORDINATES (ANGSTROEM)
--------------------------------
 O      0   0   0     0.000000000000     0.00000000     0.00000000
 H      1   0   0     0.961828878803     0.00000000     0.00000000
 H      1   2   0     0.995381322057   106.21731035     0.00000000
 O      3   1   2     5.935920367146   102.58474291   140.89009172
 H      4   3   1     0.961828878803   146.97742434   224.01286022
 H      4   3   1     0.995381322057    97.62005672    87.72090689
 O      4   3   1     2.878117964938    74.30903121   359.04191204
 H      7   4   3     0.972136791249    99.37069922   345.64431536
 H      7   4   3     0.974050112161    12.30570018   233.12878636
 O      8   7   4     3.541164138161   107.84672602    83.70571148
 H     10   8   7     0.972645187106    72.17296994    29.09453504
 H     10   8   7     0.983350632989    33.04029707   190.88793319
 O     10   8   7     2.760360281485    93.15949665   286.74623630
 H     13  10   8     0.972645187106   105.22009255   219.29662971
 H     13  10   8     0.983350632989     5.92595386   143.65078242
 O     12  10   8     1.785153773264   170.81379649    88.00403199
 H     16  12  10     0.972645187106   101.65007623   109.44492584
 H     16  12  10     0.983350632989    99.09581498     3.33484705
 O      6   4   3     1.682356278379   171.61043709   321.17145860
 H     19   6   4     0.972136791249   103.79460456    70.64587838
 H     19   6   4     0.974050112161   105.61118924   321.69395179
 O     21  19   6     1.937600461318   161.54375213    39.05245435
 H     22  21  19     0.961828878803   121.08403650   202.75419110
 H     22  21  19     0.995381322057    95.17003195   315.21089530

---------------------------
INTERNAL COORDINATES (A.U.)
---------------------------
 O      0   0   0     0.000000000000     0.00000000     0.00000000
 H      1   0   0     1.817593168635     0.00000000     0.00000000
 H      1   2   0     1.880998097508   106.21731035     0.00000000
 O      3   1   2    11.217263846671   102.58474291   140.89009172
 H      4   3   1     1.817593168635   146.97742434   224.01286022
 H      4   3   1     1.880998097508    97.62005672    87.72090689
 O      4   3   1     5.438854734852    74.30903121   359.04191204
 H      7   4   3     1.837072300170    99.37069922   345.64431536
 H      7   4   3     1.840687952699    12.30570018   233.12878636
 O      8   7   4     6.691830416388   107.84672602    83.70571148
 H     10   8   7     1.838033029106    72.17296994    29.09453504
 H     10   8   7     1.858263389967    33.04029707   190.88793319
 O     10   8   7     5.216324962960    93.15949665   286.74623630
 H     13  10   8     1.838033029106   105.22009255   219.29662971
 H     13  10   8     1.858263389967     5.92595386   143.65078242
 O     12  10   8     3.373451738406   170.81379649    88.00403199
 H     16  12  10     1.838033029106   101.65007623   109.44492584
 H     16  12  10     1.858263389967    99.09581498     3.33484705
 O      6   4   3     3.179192625819   171.61043709   321.17145860
 H     19   6   4     1.837072300170   103.79460456    70.64587838
 H     19   6   4     1.840687952699   105.61118924   321.69395179
 O     21  19   6     3.661534228851   161.54375213    39.05245435
 H     22  21  19     1.817593168635   121.08403650   202.75419110
 H     22  21  19     1.880998097508    95.17003195   315.21089530

---------------------
BASIS SET INFORMATION
---------------------
There are 2 groups of distinct atoms

 Group   1 Type O   : 11s6p2d1f contracted to 5s3p2d1f pattern {62111/411/11/1}
 Group   2 Type H   : 5s1p contracted to 3s1p pattern {311/1}

Atom   0O    basis set group =>   1
Atom   1H    basis set group =>   2
Atom   2H    basis set group =>   2
Atom   3O    basis set group =>   1
Atom   4H    basis set group =>   2
Atom   5H    basis set group =>   2
Atom   6O    basis set group =>   1
Atom   7H    basis set group =>   2
Atom   8H    basis set group =>   2
Atom   9O    basis set group =>   1
Atom  10H    basis set group =>   2
Atom  11H    basis set group =>   2
Atom  12O    basis set group =>   1
Atom  13H    basis set group =>   2
Atom  14H    basis set group =>   2
Atom  15O    basis set group =>   1
Atom  16H    basis set group =>   2
Atom  17H    basis set group =>   2
Atom  18O    basis set group =>   1
Atom  19H    basis set group =>   2
Atom  20H    basis set group =>   2
Atom  21O    basis set group =>   1
Atom  22H    basis set group =>   2
Atom  23H    basis set group =>   2


           ************************************************************
           *        Program running with 6 parallel MPI-processes     *
           *              working on a common directory               *
           ************************************************************
------------------------------------------------------------------------------
                           ORCA GTO INTEGRAL CALCULATION
------------------------------------------------------------------------------

                         BASIS SET STATISTICS AND STARTUP INFO

 # of primitive gaussian shells          ...  256
 # of primitive gaussian functions       ...  496
 # of contracted shells                  ...  152
 # of contracted basis functions         ...  344
 Highest angular momentum                ...    3
 Maximum contraction depth               ...    6
 Integral package used                   ... LIBINT
 Integral threshhold            Thresh   ...  2.500e-11
 Primitive cut-off              TCut     ...  2.500e-12


------------------------------ INTEGRAL EVALUATION ----------------------------


 * One electron integrals 
 Pre-screening matrix                    ... done
 Shell pair data                         ... done (   0.002 sec)



           ************************************************************
           *        Program running with 6 parallel MPI-processes     *
           *              working on a common directory               *
           ************************************************************
-------------------------------------------------------------------------------
                                 ORCA SCF
-------------------------------------------------------------------------------

------------
SCF SETTINGS
------------
Hamiltonian:
 Ab initio Hamiltonian  Method          .... Hartree-Fock(GTOs)


General Settings:
 Integral files         IntName         .... 12h2o.su.etal.mol1,2,3,4,6,7,8,10-orca.engrad-mp2.def2tzvp.frozencore
 Hartree-Fock type      HFTyp           .... RHF
 Total Charge           Charge          ....    0
 Multiplicity           Mult            ....    1
 Number of Electrons    NEL             ....   80
 Basis Dimension        Dim             ....  344
 Nuclear Repulsion      ENuc            ....    475.5405985865 Eh

Convergence Acceleration:
 DIIS                   CNVDIIS         .... on
   Start iteration      DIISMaxIt       ....    12
   Startup error        DIISStart       ....  0.200000
   # of expansion vecs  DIISMaxEq       ....     5
   Bias factor          DIISBfac        ....   1.050
   Max. coefficient     DIISMaxC        ....  10.000
 Newton-Raphson         CNVNR           .... off
 SOSCF                  CNVSOSCF        .... on
   Start iteration      SOSCFMaxIt      ....   150
   Startup grad/error   SOSCFStart      ....  0.003300
 Level Shifting         CNVShift        .... on
   Level shift para.    LevelShift      ....    0.2500
   Turn off err/grad.   ShiftErr        ....    0.0010
 Zerner damping         CNVZerner       .... off
 Static damping         CNVDamp         .... on
   Fraction old density DampFac         ....    0.7000
   Max. Damping (<1)    DampMax         ....    0.9800
   Min. Damping (>=0)   DampMin         ....    0.0000
   Turn off err/grad.   DampErr         ....    0.1000
 Fernandez-Rico         CNVRico         .... off

SCF Procedure:
 Maximum # iterations   MaxIter         ....   125
 SCF integral mode      SCFMode         .... Direct
   Integral package                     .... LIBINT
 Reset frequency        DirectResetFreq ....    20
 Integral Threshold     Thresh          ....  2.500e-11 Eh
 Primitive CutOff       TCut            ....  2.500e-12 Eh

Convergence Tolerance:
 Convergence Check Mode ConvCheckMode   .... Total+1el-Energy
 Convergence forced     ConvForced      .... 1
 Energy Change          TolE            ....  1.000e-08 Eh
 1-El. energy change                    ....  1.000e-05 Eh
 Orbital Gradient       TolG            ....  1.000e-05
 Orbital Rotation angle TolX            ....  1.000e-05
 DIIS Error             TolErr          ....  5.000e-07


Diagonalization of the overlap matrix:
Smallest eigenvalue                        ... 3.611e-03
Time for diagonalization                   ...    0.016 sec
Threshold for overlap eigenvalues          ... 1.000e-08
Number of eigenvalues below threshold      ... 0
Time for construction of square roots      ...    0.009 sec
Total time needed                          ...    0.025 sec

-------------------
DFT GRID GENERATION
-------------------

General Integration Accuracy     IntAcc      ...  4.340
Radial Grid Type                 RadialGrid  ... Gauss-Chebyshev
Angular Grid (max. acc.)         AngularGrid ... Lebedev-110
Angular grid pruning method      GridPruning ... 3 (G Style)
Weight generation scheme         WeightScheme... Becke
Basis function cutoff            BFCut       ...    1.0000e-11
Integration weight cutoff        WCut        ...    1.0000e-14
Grids for H and He will be reduced by one unit

# of grid points (after initial pruning)     ...  26432 (   0.0 sec)
# of grid points (after weights+screening)   ...  24562 (   0.0 sec)
nearest neighbour list constructed           ...    0.0 sec
Grid point re-assignment to atoms done       ...    0.0 sec
Grid point division into batches done        ...    0.0 sec
Reduced shell lists constructed in    0.1 sec

Total number of grid points                  ...    24562
Total number of batches                      ...      397
Average number of points per batch           ...       61
Average number of grid points per atom       ...     1023
Average number of shells per batch           ...    61.56 (40.50%)
Average number of basis functions per batch  ...   119.29 (34.68%)
Average number of large shells per batch     ...    39.03 (63.40%)
Average number of large basis fcns per batch ...    75.26 (63.09%)
Maximum spatial batch extension              ...  14.53, 20.63, 13.04 au
Average spatial batch extension              ...   0.59,  0.66,  0.57 au

Time for grid setup =    0.093 sec

------------------------------
INITIAL GUESS: MODEL POTENTIAL
------------------------------
Loading Hartree-Fock densities                     ... done
Calculating cut-offs                               ... done
Setting up the integral package                    ... done
Initializing the effective Hamiltonian             ... done
Starting the Coulomb interaction                   ... done (   0.0 sec)
Reading the grid                                   ... done
Mapping shells                                     ... done
Starting the XC term evaluation                    ... done (   0.0 sec)
Transforming the Hamiltonian                       ... done (   0.0 sec)
Diagonalizing the Hamiltonian                      ... done (   0.0 sec)
Back transforming the eigenvectors                 ... done (   0.0 sec)
Now organizing SCF variables                       ... done
                      ------------------
                      INITIAL GUESS DONE (   0.3 sec)
                      ------------------
--------------
SCF ITERATIONS
--------------
ITER       Energy         Delta-E        Max-DP      RMS-DP      [F,P]     Damp
               ***  Starting incremental Fock matrix formation  ***
  0   -607.8593047785   0.000000000000 0.04166029  0.00082129  0.3268550 0.7000
  1   -608.1193026273  -0.259997848856 0.02797238  0.00057021  0.2165295 0.7000
                               ***Turning on DIIS***
  2   -608.2579567121  -0.138654084750 0.01608621  0.00032116  0.1635024 0.7000
  3   -609.5822054779  -1.324248765766 0.00754921  0.00014901  0.1213390 0.7000
  4   -609.3167362408   0.265469237074 0.01702901  0.00034400  0.0858293 0.0000
  5   -608.5749857696   0.741750471192 0.00207131  0.00005451  0.0054590 0.0000
                      *** Initiating the SOSCF procedure ***
                           *** Shutting down DIIS ***
                      *** Re-Reading the Fockian *** 
                      *** Removing any level shift *** 
ITER      Energy       Delta-E        Grad      Rot      Max-DP    RMS-DP
  6   -608.53842647   0.0365593031  0.000829  0.000829  0.001418  0.000034
               *** Restarting incremental Fock matrix formation ***
  7   -608.52661985   0.0118066118  0.000330  0.000466  0.000673  0.000015
  8   -608.52663114  -0.0000112835  0.000143  0.000343  0.000554  0.000013
  9   -608.52663393  -0.0000027951  0.000080  0.000052  0.000110  0.000002
 10   -608.52663416  -0.0000002270  0.000012  0.000011  0.000019  0.000000
                  ***Gradient check signals convergence***
              ***Rediagonalizing the Fockian in SOSCF/NRSCF***

               *****************************************************
               *                     SUCCESS                       *
               *           SCF CONVERGED AFTER  11 CYCLES          *
               *****************************************************


----------------
TOTAL SCF ENERGY
----------------

Total Energy       :         -608.52663417 Eh          -16558.85155 eV

Components:
Nuclear Repulsion  :          475.54059859 Eh           12940.11755 eV
Electronic Energy  :        -1084.06723275 Eh          -29498.96910 eV
One Electron Energy:        -1789.06500091 Eh          -48682.93367 eV
Two Electron Energy:          704.99776815 Eh           19183.96457 eV

Virial components:
Potential Energy   :        -1216.29353248 Eh          -33097.02964 eV
Kinetic Energy     :          607.76689831 Eh           16538.17809 eV
Virial Ratio       :            2.00125004


---------------
SCF CONVERGENCE
---------------

  Last Energy change         ...   -6.2046e-09  Tolerance :   1.0000e-08
  Last MAX-Density change    ...    5.5406e-06  Tolerance :   1.0000e-07
  Last RMS-Density change    ...    1.2277e-07  Tolerance :   5.0000e-09
  Last Orbital Gradient      ...    1.9519e-06  Tolerance :   1.0000e-05
  Last Orbital Rotation      ...    2.4311e-06  Tolerance :   1.0000e-05

             **** THE GBW FILE WAS UPDATED (12h2o.su.etal.mol1,2,3,4,6,7,8,10-orca.engrad-mp2.def2tzvp.frozencore.gbw) ****
             **** DENSITY FILE WAS UPDATED (12h2o.su.etal.mol1,2,3,4,6,7,8,10-orca.engrad-mp2.def2tzvp.frozencore.scfp) ****
             **** ENERGY FILE WAS UPDATED (12h2o.su.etal.mol1,2,3,4,6,7,8,10-orca.engrad-mp2.def2tzvp.frozencore.en.tmp) ****
             **** THE GBW FILE WAS UPDATED (12h2o.su.etal.mol1,2,3,4,6,7,8,10-orca.engrad-mp2.def2tzvp.frozencore.gbw) ****
             **** DENSITY FILE WAS UPDATED (12h2o.su.etal.mol1,2,3,4,6,7,8,10-orca.engrad-mp2.def2tzvp.frozencore.scfp) ****
----------------
ORBITAL ENERGIES
----------------

  NO   OCC          E(Eh)            E(eV) 
   0   2.0000     -20.606424      -560.7293 
   1   2.0000     -20.587632      -560.2180 
   2   2.0000     -20.555387      -559.3405 
   3   2.0000     -20.545738      -559.0780 
   4   2.0000     -20.541480      -558.9621 
   5   2.0000     -20.534739      -558.7787 
   6   2.0000     -20.533797      -558.7530 
   7   2.0000     -20.530068      -558.6516 
   8   2.0000      -1.386257       -37.7220 
   9   2.0000      -1.372293       -37.3420 
  10   2.0000      -1.351781       -36.7838 
  11   2.0000      -1.334278       -36.3076 
  12   2.0000      -1.331891       -36.2426 
  13   2.0000      -1.326248       -36.0891 
  14   2.0000      -1.313451       -35.7408 
  15   2.0000      -1.308326       -35.6013 
  16   2.0000      -0.751949       -20.4616 
  17   2.0000      -0.736700       -20.0466 
  18   2.0000      -0.720590       -19.6082 
  19   2.0000      -0.707224       -19.2445 
  20   2.0000      -0.699076       -19.0228 
  21   2.0000      -0.695922       -18.9370 
  22   2.0000      -0.693364       -18.8674 
  23   2.0000      -0.686737       -18.6871 
  24   2.0000      -0.636553       -17.3215 
  25   2.0000      -0.619414       -16.8551 
  26   2.0000      -0.600268       -16.3341 
  27   2.0000      -0.588054       -16.0018 
  28   2.0000      -0.584250       -15.8983 
  29   2.0000      -0.563970       -15.3464 
  30   2.0000      -0.562426       -15.3044 
  31   2.0000      -0.546476       -14.8704 
  32   2.0000      -0.533799       -14.5254 
  33   2.0000      -0.520645       -14.1675 
  34   2.0000      -0.501005       -13.6331 
  35   2.0000      -0.493583       -13.4311 
  36   2.0000      -0.492703       -13.4071 
  37   2.0000      -0.484492       -13.1837 
  38   2.0000      -0.479042       -13.0354 
  39   2.0000      -0.476875       -12.9764 
  40   0.0000       0.088707         2.4139 
  41   0.0000       0.132660         3.6099 
  42   0.0000       0.150637         4.0990 
  43   0.0000       0.160808         4.3758 
  44   0.0000       0.173964         4.7338 
  45   0.0000       0.186225         5.0674 
  46   0.0000       0.234096         6.3701 
  47   0.0000       0.244227         6.6458 
  48   0.0000       0.252085         6.8596 
  49   0.0000       0.264209         7.1895 
  50   0.0000       0.314988         8.5713 
  51   0.0000       0.322214         8.7679 
  52   0.0000       0.326935         8.8964 
  53   0.0000       0.349731         9.5167 
  54   0.0000       0.358026         9.7424 
  55   0.0000       0.366312         9.9679 
  56   0.0000       0.419802        11.4234 
  57   0.0000       0.458430        12.4745 
  58   0.0000       0.504405        13.7256 
  59   0.0000       0.506055        13.7704 
  60   0.0000       0.510950        13.9037 
  61   0.0000       0.524930        14.2841 
  62   0.0000       0.535163        14.5625 
  63   0.0000       0.545257        14.8372 
  64   0.0000       0.548205        14.9174 
  65   0.0000       0.552815        15.0429 
  66   0.0000       0.559085        15.2135 
  67   0.0000       0.563805        15.3419 
  68   0.0000       0.573298        15.6002 
  69   0.0000       0.592257        16.1161 
  70   0.0000       0.611176        16.6309 
  71   0.0000       0.622095        16.9281 
  72   0.0000       0.629487        17.1292 
  73   0.0000       0.638180        17.3658 
  74   0.0000       0.645951        17.5772 
  75   0.0000       0.662287        18.0217 
  76   0.0000       0.675534        18.3822 
  77   0.0000       0.697846        18.9894 
  78   0.0000       0.715902        19.4807 
  79   0.0000       0.726650        19.7732 
  80   0.0000       0.744837        20.2680 
  81   0.0000       0.753860        20.5136 
  82   0.0000       0.761734        20.7278 
  83   0.0000       0.766878        20.8678 
  84   0.0000       0.777051        21.1446 
  85   0.0000       0.787582        21.4312 
  86   0.0000       0.797469        21.7002 
  87   0.0000       0.803929        21.8760 
  88   0.0000       0.834204        22.6998 
  89   0.0000       0.842437        22.9239 
  90   0.0000       0.867358        23.6020 
  91   0.0000       0.878597        23.9078 
  92   0.0000       0.883502        24.0413 
  93   0.0000       0.908565        24.7233 
  94   0.0000       0.921623        25.0786 
  95   0.0000       0.943930        25.6856 
  96   0.0000       0.983006        26.7490 
  97   0.0000       0.996592        27.1186 
  98   0.0000       1.017948        27.6998 
  99   0.0000       1.058912        28.8145 
 100   0.0000       1.088002        29.6060 
 101   0.0000       1.095805        29.8184 
 102   0.0000       1.118240        30.4289 
 103   0.0000       1.224745        33.3270 
 104   0.0000       1.353623        36.8339 
 105   0.0000       1.369477        37.2654 
 106   0.0000       1.392754        37.8988 
 107   0.0000       1.397531        38.0288 
 108   0.0000       1.414654        38.4947 
 109   0.0000       1.419338        38.6221 
 110   0.0000       1.431700        38.9585 
 111   0.0000       1.444235        39.2996 
 112   0.0000       1.449153        39.4335 
 113   0.0000       1.451858        39.5071 
 114   0.0000       1.456013        39.6201 
 115   0.0000       1.483303        40.3627 
 116   0.0000       1.503060        40.9003 
 117   0.0000       1.533671        41.7333 
 118   0.0000       1.538918        41.8761 
 119   0.0000       1.548856        42.1465 
 120   0.0000       1.569818        42.7169 
 121   0.0000       1.586628        43.1743 
 122   0.0000       1.587907        43.2092 
 123   0.0000       1.610841        43.8332 
 124   0.0000       1.613150        43.8960 
 125   0.0000       1.650308        44.9072 
 126   0.0000       1.660609        45.1875 
 127   0.0000       1.677683        45.6521 
 128   0.0000       1.790968        48.7347 
 129   0.0000       1.831097        49.8267 
 130   0.0000       1.848358        50.2964 
 131   0.0000       1.869648        50.8757 
 132   0.0000       1.897945        51.6457 
 133   0.0000       1.912174        52.0329 
 134   0.0000       1.927933        52.4617 
 135   0.0000       1.935358        52.6638 
 136   0.0000       1.949905        53.0596 
 137   0.0000       1.952655        53.1344 
 138   0.0000       1.972758        53.6815 
 139   0.0000       1.993706        54.2515 
 140   0.0000       2.010071        54.6968 
 141   0.0000       2.019330        54.9488 
 142   0.0000       2.033764        55.3415 
 143   0.0000       2.050491        55.7967 
 144   0.0000       2.057834        55.9965 
 145   0.0000       2.094278        56.9882 
 146   0.0000       2.108098        57.3643 
 147   0.0000       2.145332        58.3774 
 148   0.0000       2.149453        58.4896 
 149   0.0000       2.180421        59.3323 
 150   0.0000       2.214740        60.2661 
 151   0.0000       2.227429        60.6114 
 152   0.0000       2.251682        61.2714 
 153   0.0000       2.264300        61.6147 
 154   0.0000       2.278103        61.9903 
 155   0.0000       2.288629        62.2768 
 156   0.0000       2.304050        62.6964 
 157   0.0000       2.314047        62.9684 
 158   0.0000       2.333863        63.5076 
 159   0.0000       2.341304        63.7101 
 160   0.0000       2.354973        64.0821 
 161   0.0000       2.363627        64.3176 
 162   0.0000       2.390504        65.0489 
 163   0.0000       2.398394        65.2636 
 164   0.0000       2.408581        65.5408 
 165   0.0000       2.427287        66.0498 
 166   0.0000       2.432131        66.1816 
 167   0.0000       2.458394        66.8963 
 168   0.0000       2.481522        67.5257 
 169   0.0000       2.490730        67.7762 
 170   0.0000       2.529293        68.8256 
 171   0.0000       2.550981        69.4157 
 172   0.0000       2.568532        69.8933 
 173   0.0000       2.581490        70.2459 
 174   0.0000       2.584895        70.3386 
 175   0.0000       2.614074        71.1326 
 176   0.0000       2.627250        71.4911 
 177   0.0000       2.634190        71.6800 
 178   0.0000       2.645605        71.9906 
 179   0.0000       2.655555        72.2613 
 180   0.0000       2.664614        72.5078 
 181   0.0000       2.675978        72.8171 
 182   0.0000       2.680000        72.9265 
 183   0.0000       2.696956        73.3879 
 184   0.0000       2.708395        73.6992 
 185   0.0000       2.716707        73.9254 
 186   0.0000       2.745073        74.6972 
 187   0.0000       2.758295        75.0570 
 188   0.0000       2.768989        75.3480 
 189   0.0000       2.796595        76.0992 
 190   0.0000       2.820402        76.7471 
 191   0.0000       2.850119        77.5557 
 192   0.0000       2.872722        78.1707 
 193   0.0000       2.920590        79.4733 
 194   0.0000       2.946212        80.1705 
 195   0.0000       2.961635        80.5902 
 196   0.0000       2.963779        80.6485 
 197   0.0000       2.995164        81.5026 
 198   0.0000       3.005363        81.7801 
 199   0.0000       3.021145        82.2095 
 200   0.0000       3.032231        82.5112 
 201   0.0000       3.036559        82.6290 
 202   0.0000       3.043161        82.8086 
 203   0.0000       3.049373        82.9777 
 204   0.0000       3.066472        83.4429 
 205   0.0000       3.084272        83.9273 
 206   0.0000       3.102792        84.4313 
 207   0.0000       3.130123        85.1750 
 208   0.0000       3.149430        85.7003 
 209   0.0000       3.164962        86.1230 
 210   0.0000       3.177943        86.4762 
 211   0.0000       3.224730        87.7494 
 212   0.0000       3.245110        88.3039 
 213   0.0000       3.278412        89.2101 
 214   0.0000       3.306065        89.9626 
 215   0.0000       3.312295        90.1321 
 216   0.0000       3.325358        90.4876 
 217   0.0000       3.344182        90.9998 
 218   0.0000       3.359791        91.4246 
 219   0.0000       3.409416        92.7749 
 220   0.0000       3.456701        94.0616 
 221   0.0000       3.505945        95.4016 
 222   0.0000       3.530048        96.0575 
 223   0.0000       3.572019        97.1996 
 224   0.0000       3.955017       107.6215 
 225   0.0000       4.048307       110.1600 
 226   0.0000       4.068091       110.6984 
 227   0.0000       4.079834       111.0179 
 228   0.0000       4.112665       111.9113 
 229   0.0000       4.147497       112.8591 
 230   0.0000       4.159508       113.1860 
 231   0.0000       4.218257       114.7846 
 232   0.0000       4.269629       116.1825 
 233   0.0000       4.291122       116.7674 
 234   0.0000       4.340431       118.1091 
 235   0.0000       4.344364       118.2161 
 236   0.0000       4.368034       118.8602 
 237   0.0000       4.380647       119.2035 
 238   0.0000       4.407849       119.9437 
 239   0.0000       4.417633       120.2099 
 240   0.0000       5.509901       149.9320 
 241   0.0000       5.518506       150.1662 
 242   0.0000       5.549576       151.0116 
 243   0.0000       5.553686       151.1235 
 244   0.0000       5.563646       151.3945 
 245   0.0000       5.566121       151.4619 
 246   0.0000       5.567710       151.5051 
 247   0.0000       5.568101       151.5157 
 248   0.0000       5.595536       152.2623 
 249   0.0000       5.645497       153.6218 
 250   0.0000       5.651374       153.7817 
 251   0.0000       5.667220       154.2129 
 252   0.0000       5.673325       154.3790 
 253   0.0000       5.702061       155.1610 
 254   0.0000       5.704501       155.2274 
 255   0.0000       5.716027       155.5410 
 256   0.0000       5.771401       157.0478 
 257   0.0000       5.793285       157.6433 
 258   0.0000       5.804755       157.9554 
 259   0.0000       5.817551       158.3036 
 260   0.0000       5.832909       158.7215 
 261   0.0000       5.835526       158.7927 
 262   0.0000       5.841345       158.9511 
 263   0.0000       5.848266       159.1394 
 264   0.0000       5.850361       159.1964 
 265   0.0000       5.856647       159.3675 
 266   0.0000       5.864304       159.5758 
 267   0.0000       5.868708       159.6957 
 268   0.0000       5.876032       159.8950 
 269   0.0000       5.880641       160.0204 
 270   0.0000       5.882696       160.0763 
 271   0.0000       5.896878       160.4622 
 272   0.0000       5.899556       160.5351 
 273   0.0000       5.908379       160.7752 
 274   0.0000       5.914301       160.9363 
 275   0.0000       5.916281       160.9902 
 276   0.0000       5.929595       161.3525 
 277   0.0000       5.930293       161.3715 
 278   0.0000       5.937736       161.5740 
 279   0.0000       5.956195       162.0763 
 280   0.0000       6.388750       173.8467 
 281   0.0000       6.443225       175.3291 
 282   0.0000       6.483500       176.4250 
 283   0.0000       6.488963       176.5737 
 284   0.0000       6.494825       176.7332 
 285   0.0000       6.504340       176.9921 
 286   0.0000       6.512594       177.2167 
 287   0.0000       6.524537       177.5417 
 288   0.0000       6.654897       181.0889 
 289   0.0000       6.668059       181.4471 
 290   0.0000       6.685983       181.9348 
 291   0.0000       6.717808       182.8009 
 292   0.0000       6.735328       183.2776 
 293   0.0000       6.752772       183.7523 
 294   0.0000       6.767444       184.1515 
 295   0.0000       6.799680       185.0287 
 296   0.0000       6.839547       186.1135 
 297   0.0000       6.850820       186.4203 
 298   0.0000       6.853328       186.4885 
 299   0.0000       6.864235       186.7853 
 300   0.0000       6.867423       186.8721 
 301   0.0000       6.876294       187.1135 
 302   0.0000       6.885963       187.3766 
 303   0.0000       6.895341       187.6318 
 304   0.0000       6.913008       188.1125 
 305   0.0000       6.916774       188.2150 
 306   0.0000       6.928069       188.5223 
 307   0.0000       6.936324       188.7470 
 308   0.0000       6.945153       188.9872 
 309   0.0000       6.949047       189.0932 
 310   0.0000       6.957623       189.3265 
 311   0.0000       6.971744       189.7108 
 312   0.0000       6.985084       190.0738 
 313   0.0000       7.006814       190.6651 
 314   0.0000       7.008973       190.7239 
 315   0.0000       7.025253       191.1669 
 316   0.0000       7.041736       191.6154 
 317   0.0000       7.083185       192.7433 
 318   0.0000       7.116953       193.6621 
 319   0.0000       7.145974       194.4518 
 320   0.0000       7.340936       199.7570 
 321   0.0000       7.370150       200.5520 
 322   0.0000       7.404196       201.4784 
 323   0.0000       7.420717       201.9280 
 324   0.0000       7.452471       202.7921 
 325   0.0000       7.468998       203.2418 
 326   0.0000       7.504455       204.2066 
 327   0.0000       7.514914       204.4912 
 328   0.0000       7.525732       204.7856 
 329   0.0000       7.565230       205.8604 
 330   0.0000       7.583463       206.3565 
 331   0.0000       7.591079       206.5638 
 332   0.0000       7.600577       206.8222 
 333   0.0000       7.606699       206.9888 
 334   0.0000       7.615715       207.2341 
 335   0.0000       7.639975       207.8943 
 336   0.0000      44.829782      1219.8804 
 337   0.0000      44.985589      1224.1201 
 338   0.0000      44.990343      1224.2495 
 339   0.0000      45.021218      1225.0896 
 340   0.0000      45.027794      1225.2686 
 341   0.0000      45.069164      1226.3943 
 342   0.0000      45.078465      1226.6474 
 343   0.0000      45.197641      1229.8903 

                    ********************************
                    * MULLIKEN POPULATION ANALYSIS *
                    ********************************

-----------------------
MULLIKEN ATOMIC CHARGES
-----------------------
   0 O :   -0.717616
   1 H :    0.366555
   2 H :    0.365025
   3 O :   -0.784041
   4 H :    0.345697
   5 H :    0.415565
   6 O :   -0.768542
   7 H :    0.397846
   8 H :    0.394010
   9 O :   -0.772558
  10 H :    0.392678
  11 H :    0.389067
  12 O :   -0.768119
  13 H :    0.343504
  14 H :    0.392641
  15 O :   -0.771502
  16 H :    0.407611
  17 H :    0.374686
  18 O :   -0.768977
  19 H :    0.403199
  20 H :    0.387023
  21 O :   -0.796085
  22 H :    0.357294
  23 H :    0.415041
Sum of atomic charges:   -0.0000000

--------------------------------
MULLIKEN REDUCED ORBITAL CHARGES
--------------------------------
  0 O s       :     3.810081  s :     3.810081
      pz      :     1.718101  p :     4.881400
      px      :     1.358410
      py      :     1.804889
      dz2     :     0.003894  d :     0.024619
      dxz     :     0.004226
      dyz     :     0.005803
      dx2y2   :     0.002503
      dxy     :     0.008192
      f0      :     0.000083  f :     0.001517
      f+1     :     0.000328
      f-1     :     0.000186
      f+2     :     0.000071
      f-2     :     0.000350
      f+3     :     0.000100
      f-3     :     0.000398
  1 H s       :     0.588053  s :     0.588053
      pz      :     0.016981  p :     0.045393
      px      :     0.013489
      py      :     0.014923
  2 H s       :     0.593265  s :     0.593265
      pz      :     0.010752  p :     0.041710
      px      :     0.017760
      py      :     0.013198
  3 O s       :     3.806195  s :     3.806195
      pz      :     1.730431  p :     4.954000
      px      :     1.781447
      py      :     1.442121
      dz2     :     0.003971  d :     0.022432
      dxz     :     0.005084
      dyz     :     0.004877
      dx2y2   :     0.002217
      dxy     :     0.006284
      f0      :     0.000089  f :     0.001414
      f+1     :     0.000176
      f-1     :     0.000330
      f+2     :     0.000060
      f-2     :     0.000355
      f+3     :     0.000323
      f-3     :     0.000080
  4 H s       :     0.608576  s :     0.608576
      pz      :     0.017130  p :     0.045727
      px      :     0.014923
      py      :     0.013674
  5 H s       :     0.528147  s :     0.528147
      pz      :     0.010205  p :     0.056287
      px      :     0.012998
      py      :     0.033084
  6 O s       :     3.791883  s :     3.791883
      pz      :     1.567274  p :     4.951539
      px      :     1.597928
      py      :     1.786338
      dz2     :     0.011702  d :     0.023785
      dxz     :     0.001226
      dyz     :     0.002189
      dx2y2   :     0.002225
      dxy     :     0.006444
      f0      :     0.000230  f :     0.001335
      f+1     :     0.000377
      f-1     :     0.000147
      f+2     :     0.000050
      f-2     :     0.000054
      f+3     :     0.000044
      f-3     :     0.000433
  7 H s       :     0.554409  s :     0.554409
      pz      :     0.024484  p :     0.047745
      px      :     0.011139
      py      :     0.012122
  8 H s       :     0.556404  s :     0.556404
      pz      :     0.009582  p :     0.049586
      px      :     0.024565
      py      :     0.015438
  9 O s       :     3.798009  s :     3.798009
      pz      :     1.600216  p :     4.949357
      px      :     1.836031
      py      :     1.513111
      dz2     :     0.011153  d :     0.023882
      dxz     :     0.002094
      dyz     :     0.002829
      dx2y2   :     0.003286
      dxy     :     0.004519
      f0      :     0.000148  f :     0.001310
      f+1     :     0.000106
      f-1     :     0.000449
      f+2     :     0.000066
      f-2     :     0.000039
      f+3     :     0.000408
      f-3     :     0.000095
 10 H s       :     0.558856  s :     0.558856
      pz      :     0.024894  p :     0.048466
      px      :     0.012609
      py      :     0.010963
 11 H s       :     0.557800  s :     0.557800
      pz      :     0.009642  p :     0.053133
      px      :     0.014904
      py      :     0.028587
 12 O s       :     3.809297  s :     3.809297
      pz      :     1.531803  p :     4.934550
      px      :     1.520478
      py      :     1.882269
      dz2     :     0.010224  d :     0.022831
      dxz     :     0.002590
      dyz     :     0.002278
      dx2y2   :     0.002799
      dxy     :     0.004939
      f0      :     0.000207  f :     0.001441
      f+1     :     0.000435
      f-1     :     0.000124
      f+2     :     0.000078
      f-2     :     0.000037
      f+3     :     0.000115
      f-3     :     0.000445
 13 H s       :     0.611483  s :     0.611483
      pz      :     0.018482  p :     0.045012
      px      :     0.012286
      py      :     0.014244
 14 H s       :     0.553753  s :     0.553753
      pz      :     0.008744  p :     0.053606
      px      :     0.029529
      py      :     0.015333
 15 O s       :     3.803373  s :     3.803373
      pz      :     1.613079  p :     4.943260
      px      :     1.475590
      py      :     1.854591
      dz2     :     0.010390  d :     0.023484
      dxz     :     0.002503
      dyz     :     0.002051
      dx2y2   :     0.003454
      dxy     :     0.005087
      f0      :     0.000167  f :     0.001384
      f+1     :     0.000438
      f-1     :     0.000113
      f+2     :     0.000069
      f-2     :     0.000036
      f+3     :     0.000109
      f-3     :     0.000453
 16 H s       :     0.544040  s :     0.544040
      pz      :     0.025201  p :     0.048349
      px      :     0.010799
      py      :     0.012350
 17 H s       :     0.583543  s :     0.583543
      pz      :     0.009234  p :     0.041771
      px      :     0.018670
      py      :     0.013868
 18 O s       :     3.792138  s :     3.792138
      pz      :     1.576608  p :     4.951755
      px      :     1.589599
      py      :     1.785548
      dz2     :     0.011570  d :     0.023745
      dxz     :     0.001179
      dyz     :     0.002182
      dx2y2   :     0.002269
      dxy     :     0.006545
      f0      :     0.000227  f :     0.001340
      f+1     :     0.000377
      f-1     :     0.000148
      f+2     :     0.000051
      f-2     :     0.000054
      f+3     :     0.000046
      f-3     :     0.000437
 19 H s       :     0.549191  s :     0.549191
      pz      :     0.024843  p :     0.047609
      px      :     0.010966
      py      :     0.011801
 20 H s       :     0.563348  s :     0.563348
      pz      :     0.009826  p :     0.049629
      px      :     0.024131
      py      :     0.015672
 21 O s       :     3.806371  s :     3.806371
      pz      :     1.724243  p :     4.966512
      px      :     1.795392
      py      :     1.446876
      dz2     :     0.003590  d :     0.021823
      dxz     :     0.004997
      dyz     :     0.004410
      dx2y2   :     0.002167
      dxy     :     0.006659
      f0      :     0.000080  f :     0.001380
      f+1     :     0.000169
      f-1     :     0.000314
      f+2     :     0.000061
      f-2     :     0.000346
      f+3     :     0.000328
      f-3     :     0.000081
 22 H s       :     0.597330  s :     0.597330
      pz      :     0.016893  p :     0.045376
      px      :     0.014759
      py      :     0.013724
 23 H s       :     0.529192  s :     0.529192
      pz      :     0.009741  p :     0.055767
      px      :     0.012956
      py      :     0.033071


                     *******************************
                     * LOEWDIN POPULATION ANALYSIS *
                     *******************************

----------------------
LOEWDIN ATOMIC CHARGES
----------------------
   0 O :   -0.313361
   1 H :    0.165673
   2 H :    0.186756
   3 O :   -0.352431
   4 H :    0.152976
   5 H :    0.157004
   6 O :   -0.301483
   7 H :    0.159243
   8 H :    0.158360
   9 O :   -0.328728
  10 H :    0.154434
  11 H :    0.149272
  12 O :   -0.351222
  13 H :    0.160853
  14 H :    0.154124
  15 O :   -0.297683
  16 H :    0.163917
  17 H :    0.180141
  18 O :   -0.302759
  19 H :    0.163165
  20 H :    0.155207
  21 O :   -0.328069
  22 H :    0.157166
  23 H :    0.157443

-------------------------------
LOEWDIN REDUCED ORBITAL CHARGES
-------------------------------
  0 O s       :     3.467950  s :     3.467950
      pz      :     1.681472  p :     4.811305
      px      :     1.354888
      py      :     1.774945
      dz2     :     0.005270  d :     0.032009
      dxz     :     0.006620
      dyz     :     0.005736
      dx2y2   :     0.003878
      dxy     :     0.010504
      f0      :     0.000085  f :     0.002097
      f+1     :     0.000447
      f-1     :     0.000272
      f+2     :     0.000035
      f-2     :     0.000603
      f+3     :     0.000093
      f-3     :     0.000561
  1 H s       :     0.670976  s :     0.670976
      pz      :     0.066327  p :     0.163350
      px      :     0.044235
      py      :     0.052788
  2 H s       :     0.665233  s :     0.665233
      pz      :     0.033368  p :     0.148010
      px      :     0.071012
      py      :     0.043631
  3 O s       :     3.460067  s :     3.460067
      pz      :     1.709407  p :     4.862024
      px      :     1.745407
      py      :     1.407211
      dz2     :     0.004227  d :     0.028388
      dxz     :     0.005273
      dyz     :     0.007124
      dx2y2   :     0.003611
      dxy     :     0.008153
      f0      :     0.000074  f :     0.001951
      f+1     :     0.000261
      f-1     :     0.000433
      f+2     :     0.000031
      f-2     :     0.000624
      f+3     :     0.000446
      f-3     :     0.000082
  4 H s       :     0.682147  s :     0.682147
      pz      :     0.065792  p :     0.164878
      px      :     0.052969
      py      :     0.046117
  5 H s       :     0.644280  s :     0.644280
      pz      :     0.033051  p :     0.198716
      px      :     0.047526
      py      :     0.118139
  6 O s       :     3.445469  s :     3.445469
      pz      :     1.539985  p :     4.824694
      px      :     1.557421
      py      :     1.727288
      dz2     :     0.014771  d :     0.029335
      dxz     :     0.001874
      dyz     :     0.001671
      dx2y2   :     0.003253
      dxy     :     0.007766
      f0      :     0.000421  f :     0.001985
      f+1     :     0.000538
      f-1     :     0.000316
      f+2     :     0.000019
      f-2     :     0.000049
      f+3     :     0.000025
      f-3     :     0.000617
  7 H s       :     0.668717  s :     0.668717
      pz      :     0.093118  p :     0.172040
      px      :     0.037185
      py      :     0.041737
  8 H s       :     0.664637  s :     0.664637
      pz      :     0.030662  p :     0.177003
      px      :     0.088347
      py      :     0.057994
  9 O s       :     3.455377  s :     3.455377
      pz      :     1.575597  p :     4.842473
      px      :     1.781706
      py      :     1.485170
      dz2     :     0.013564  d :     0.028975
      dxz     :     0.001232
      dyz     :     0.003727
      dx2y2   :     0.004812
      dxy     :     0.005640
      f0      :     0.000326  f :     0.001903
      f+1     :     0.000193
      f-1     :     0.000697
      f+2     :     0.000036
      f-2     :     0.000043
      f+3     :     0.000541
      f-3     :     0.000066
 10 H s       :     0.671220  s :     0.671220
      pz      :     0.094011  p :     0.174345
      px      :     0.042830
      py      :     0.037505
 11 H s       :     0.665280  s :     0.665280
      pz      :     0.030660  p :     0.185448
      px      :     0.052514
      py      :     0.102274
 12 O s       :     3.463037  s :     3.463037
      pz      :     1.522702  p :     4.856608
      px      :     1.492048
      py      :     1.841858
      dz2     :     0.014506  d :     0.029565
      dxz     :     0.004266
      dyz     :     0.001591
      dx2y2   :     0.003521
      dxy     :     0.005681
      f0      :     0.000410  f :     0.002013
      f+1     :     0.000733
      f-1     :     0.000187
      f+2     :     0.000046
      f-2     :     0.000046
      f+3     :     0.000063
      f-3     :     0.000527
 13 H s       :     0.680462  s :     0.680462
      pz      :     0.078414  p :     0.158684
      px      :     0.036886
      py      :     0.043384
 14 H s       :     0.657191  s :     0.657191
      pz      :     0.028675  p :     0.188685
      px      :     0.107279
      py      :     0.052731
 15 O s       :     3.455693  s :     3.455693
      pz      :     1.563771  p :     4.809503
      px      :     1.457423
      py      :     1.788309
      dz2     :     0.014046  d :     0.030494
      dxz     :     0.003554
      dyz     :     0.001243
      dx2y2   :     0.005178
      dxy     :     0.006474
      f0      :     0.000333  f :     0.001992
      f+1     :     0.000694
      f-1     :     0.000201
      f+2     :     0.000036
      f-2     :     0.000042
      f+3     :     0.000073
      f-3     :     0.000614
 16 H s       :     0.662837  s :     0.662837
      pz      :     0.095163  p :     0.173246
      px      :     0.035784
      py      :     0.042299
 17 H s       :     0.664502  s :     0.664502
      pz      :     0.030449  p :     0.155357
      px      :     0.075591
      py      :     0.049317
 18 O s       :     3.445606  s :     3.445606
      pz      :     1.545561  p :     4.825877
      px      :     1.552942
      py      :     1.727374
      dz2     :     0.014463  d :     0.029286
      dxz     :     0.001763
      dyz     :     0.001656
      dx2y2   :     0.003341
      dxy     :     0.008063
      f0      :     0.000407  f :     0.001990
      f+1     :     0.000537
      f-1     :     0.000318
      f+2     :     0.000019
      f-2     :     0.000048
      f+3     :     0.000025
      f-3     :     0.000635
 19 H s       :     0.664350  s :     0.664350
      pz      :     0.094288  p :     0.172485
      px      :     0.036865
      py      :     0.041332
 20 H s       :     0.669120  s :     0.669120
      pz      :     0.031111  p :     0.175672
      px      :     0.086608
      py      :     0.057954
 21 O s       :     3.454673  s :     3.454673
      pz      :     1.682592  p :     4.843117
      px      :     1.751114
      py      :     1.409411
      dz2     :     0.004630  d :     0.028334
      dxz     :     0.005144
      dyz     :     0.006707
      dx2y2   :     0.003530
      dxy     :     0.008323
      f0      :     0.000085  f :     0.001944
      f+1     :     0.000258
      f-1     :     0.000426
      f+2     :     0.000032
      f-2     :     0.000610
      f+3     :     0.000451
      f-3     :     0.000082
 22 H s       :     0.677302  s :     0.677302
      pz      :     0.066092  p :     0.165532
      px      :     0.053157
      py      :     0.046284
 23 H s       :     0.642772  s :     0.642772
      pz      :     0.033081  p :     0.199785
      px      :     0.047670
      py      :     0.119033


                      *****************************
                      * MAYER POPULATION ANALYSIS *
                      *****************************

  NA   - Mulliken gross atomic population
  ZA   - Total nuclear charge
  QA   - Mulliken gross atomic charge
  VA   - Mayer's total valence
  BVA  - Mayer's bonded valence
  FA   - Mayer's free valence

  ATOM       NA         ZA         QA         VA         BVA        FA
  0 O      8.7176     8.0000    -0.7176     1.7713     1.7713    -0.0000
  1 H      0.6334     1.0000     0.3666     0.8810     0.8810    -0.0000
  2 H      0.6350     1.0000     0.3650     0.8804     0.8804     0.0000
  3 O      8.7840     8.0000    -0.7840     1.6803     1.6803     0.0000
  4 H      0.6543     1.0000     0.3457     0.8971     0.8971     0.0000
  5 H      0.5844     1.0000     0.4156     0.8671     0.8671    -0.0000
  6 O      8.7685     8.0000    -0.7685     1.7178     1.7178     0.0000
  7 H      0.6022     1.0000     0.3978     0.8635     0.8635    -0.0000
  8 H      0.6060     1.0000     0.3940     0.8854     0.8854    -0.0000
  9 O      8.7726     8.0000    -0.7726     1.7105     1.7105    -0.0000
 10 H      0.6073     1.0000     0.3927     0.8759     0.8759    -0.0000
 11 H      0.6109     1.0000     0.3891     0.8805     0.8805    -0.0000
 12 O      8.7681     8.0000    -0.7681     1.6900     1.6900    -0.0000
 13 H      0.6565     1.0000     0.3435     0.8988     0.8988    -0.0000
 14 H      0.6074     1.0000     0.3926     0.8908     0.8908     0.0000
 15 O      8.7715     8.0000    -0.7715     1.7218     1.7218    -0.0000
 16 H      0.5924     1.0000     0.4076     0.8655     0.8655     0.0000
 17 H      0.6253     1.0000     0.3747     0.8793     0.8793     0.0000
 18 O      8.7690     8.0000    -0.7690     1.7221     1.7221    -0.0000
 19 H      0.5968     1.0000     0.4032     0.8655     0.8655    -0.0000
 20 H      0.6130     1.0000     0.3870     0.8855     0.8855    -0.0000
 21 O      8.7961     8.0000    -0.7961     1.6670     1.6670     0.0000
 22 H      0.6427     1.0000     0.3573     0.8896     0.8896    -0.0000
 23 H      0.5850     1.0000     0.4150     0.8694     0.8694     0.0000

  Mayer bond orders larger than 0.100000
B(  0-O ,  1-H ) :   0.8738 B(  0-O ,  2-H ) :   0.8715 B(  3-O ,  4-H ) :   0.8886 
B(  3-O ,  5-H ) :   0.7726 B(  6-O ,  7-H ) :   0.8422 B(  6-O ,  8-H ) :   0.8214 
B(  9-O , 10-H ) :   0.8388 B(  9-O , 11-H ) :   0.8287 B( 12-O , 13-H ) :   0.8907 
B( 12-O , 14-H ) :   0.7955 B( 15-O , 16-H ) :   0.8232 B( 15-O , 17-H ) :   0.8607 
B( 18-O , 19-H ) :   0.8313 B( 18-O , 20-H ) :   0.8371 B( 21-O , 22-H ) :   0.8795 
B( 21-O , 23-H ) :   0.7636 

-------
TIMINGS
-------

Total SCF time: 0 days 0 hours 0 min 30 sec 

Total time                  ....      30.464 sec
Sum of individual times     ....      30.161 sec  ( 99.0%)

Fock matrix formation       ....      29.570 sec  ( 97.1%)
Diagonalization             ....       0.145 sec  (  0.5%)
Density matrix formation    ....       0.019 sec  (  0.1%)
Population analysis         ....       0.015 sec  (  0.1%)
Initial guess               ....       0.198 sec  (  0.7%)
Orbital Transformation      ....       0.000 sec  (  0.0%)
Orbital Orthonormalization  ....       0.000 sec  (  0.0%)
DIIS solution               ....       0.057 sec  (  0.2%)
SOSCF solution              ....       0.064 sec  (  0.2%)


           ************************************************************
           *        Program running with 6 parallel MPI-processes     *
           *              working on a common directory               *
           ************************************************************

------------------------------------------------------------------------------
                                ORCA  MP2 
------------------------------------------------------------------------------

Freezing NCore=16 chemical core electrons
MP2 will be done in the AO integral direct mode
The Q1-step will be done using symmetric double matrices
Dimension of the basis                    ...  344
Memory devoted for MP2                    ... 8000 MB   
Memory needed for all in one shot         ...  935 MB
Number of MOs that can be treated together...   50      
MP2 density construction                  ... relaxed
The MP2 gradient is requested => amplitudes will be stored on disk
Total number of MOs              ...   32
Number of MOs treated per batch  ...    6 
Number of batches necessary      ...    1 
OPERATORS   0/  0 PASS   0
-----------------------------------------------
 MP2 CORRELATION ENERGY   :     -2.076612401 Eh
-----------------------------------------------


---------------------
MP2 DENSITY FORMATION
---------------------

Completing the external part of the density      ... done
Storing the unrelaxed density                    ... done

Calculating G(D)                                 ... done
Completing the Lagrangian                        ... done
Solving the Z-vector equations                   ... 

------------------------------------------------------------------------------
                           ORCA CP-SCF CALCULATION
------------------------------------------------------------------------------

Input orbitals are from        ... 12h2o.su.etal.mol1,2,3,4,6,7,8,10-orca.engrad-mp2.def2tzvp.frozencore.gbw
Input Perturbation             ... 12h2o.su.etal.mol1,2,3,4,6,7,8,10-orca.engrad-mp2.def2tzvp.frozencore.pin.tmp
Wavefunction output            ... 12h2o.su.etal.mol1,2,3,4,6,7,8,10-orca.engrad-mp2.def2tzvp.frozencore.pout.tmp
Perturbation mode              ... Real perturbation (singlet)
Solver                         ... POPLE
Max. number of iterations      ... 128
Convergence tolerance          ... 1.000e-08
Integral handling              ... Direct
Number of perturbations        ... 1
Number of operators            ... 1
Orbital ranges used for CP-SCF:
 Operator 0:  Orbitals   0... 39  to  40...343
Variables per vector in CP-SCF ... 12160
Number of vectors sought       ... 1
     CP-SCF ITERATION   0: 
     CP-SCF ITERATION   1:      0.001055496328
     CP-SCF ITERATION   2:      0.000030599008
     CP-SCF ITERATION   3:      0.000001541708
     CP-SCF ITERATION   4:      0.000000150810
     CP-SCF ITERATION   5:      0.000000011592
     CP-SCF ITERATION   6:      0.000000000753
                                                 ... done
Finalizing the relaxed density                   ... done
Transforming P to the AO basis                   ... done
Storing the relaxed density                      ... done

------------------------------------
ENERGY WEIGHTED DENSITY FINALIZATION
------------------------------------

Gathering the parts of the W-matrix              ...                                                      done
Forming the Z-density                            ... done
Transforming Z to the AO basis                   ... done
Calculating G(Z)                                 ... done
Finalizing the W-matrix                          ...                                                      done
Transforming W to the AO basis and storing       ... done

                *********************************************
                * UNRELAXED MP2 DENSITY POPULATION ANALYSIS *
                *********************************************

------------------------------------------------------------------------------
                           ORCA POPULATION ANALYSIS
------------------------------------------------------------------------------
Input electron density              ... 12h2o.su.etal.mol1,2,3,4,6,7,8,10-orca.engrad-mp2.def2tzvp.frozencore.pmp2ur
BaseName (.gbw .S,...)              ... 12h2o.su.etal.mol1,2,3,4,6,7,8,10-orca.engrad-mp2.def2tzvp.frozencore

                    ********************************
                    * MULLIKEN POPULATION ANALYSIS *
                    ********************************

-----------------------
MULLIKEN ATOMIC CHARGES
-----------------------
   0 O :   -0.712276
   1 H :    0.364405
   2 H :    0.362309
   3 O :   -0.777627
   4 H :    0.343391
   5 H :    0.410675
   6 O :   -0.761092
   7 H :    0.394917
   8 H :    0.390276
   9 O :   -0.764955
  10 H :    0.389443
  11 H :    0.384809
  12 O :   -0.762149
  13 H :    0.341139
  14 H :    0.387809
  15 O :   -0.764919
  16 H :    0.404650
  17 H :    0.371742
  18 O :   -0.761642
  19 H :    0.400155
  20 H :    0.383438
  21 O :   -0.789314
  22 H :    0.354935
  23 H :    0.409880
Sum of atomic charges:   -0.0000000

--------------------------------
MULLIKEN REDUCED ORBITAL CHARGES
--------------------------------
  0 O s       :     3.805272  s :     3.805272
      pz      :     1.707134  p :     4.851499
      px      :     1.350777
      py      :     1.793587
      dz2     :     0.009420  d :     0.051436
      dxz     :     0.009591
      dyz     :     0.011199
      dx2y2   :     0.007846
      dxy     :     0.013379
      f0      :     0.000453  f :     0.004069
      f+1     :     0.000689
      f-1     :     0.000551
      f+2     :     0.000438
      f-2     :     0.000714
      f+3     :     0.000468
      f-3     :     0.000756
  1 H s       :     0.588654  s :     0.588654
      pz      :     0.017441  p :     0.046942
      px      :     0.013868
      py      :     0.015633
  2 H s       :     0.594432  s :     0.594432
      pz      :     0.011584  p :     0.043259
      px      :     0.017701
      py      :     0.013975
  3 O s       :     3.801191  s :     3.801191
      pz      :     1.719783  p :     4.922426
      px      :     1.769357
      py      :     1.433286
      dz2     :     0.009501  d :     0.050012
      dxz     :     0.010546
      dyz     :     0.010298
      dx2y2   :     0.007871
      dxy     :     0.011796
      f0      :     0.000459  f :     0.003998
      f+1     :     0.000541
      f-1     :     0.000697
      f+2     :     0.000431
      f-2     :     0.000721
      f+3     :     0.000693
      f-3     :     0.000457
  4 H s       :     0.609220  s :     0.609220
      pz      :     0.017623  p :     0.047389
      px      :     0.015632
      py      :     0.014135
  5 H s       :     0.531430  s :     0.531430
      pz      :     0.011011  p :     0.057894
      px      :     0.013686
      py      :     0.033197
  6 O s       :     3.786670  s :     3.786670
      pz      :     1.557553  p :     4.918913
      px      :     1.587918
      py      :     1.773442
      dz2     :     0.016994  d :     0.051560
      dxz     :     0.006757
      dyz     :     0.007864
      dx2y2   :     0.007981
      dxy     :     0.011963
      f0      :     0.000616  f :     0.003949
      f+1     :     0.000749
      f-1     :     0.000526
      f+2     :     0.000415
      f-2     :     0.000423
      f+3     :     0.000422
      f-3     :     0.000798
  7 H s       :     0.555827  s :     0.555827
      pz      :     0.024544  p :     0.049256
      px      :     0.011794
      py      :     0.012919
  8 H s       :     0.558664  s :     0.558664
      pz      :     0.010340  p :     0.051059
      px      :     0.024742
      py      :     0.015978
  9 O s       :     3.792741  s :     3.792741
      pz      :     1.590174  p :     4.916625
      px      :     1.822851
      py      :     1.503600
      dz2     :     0.016480  d :     0.051671
      dxz     :     0.007797
      dyz     :     0.008312
      dx2y2   :     0.008983
      dxy     :     0.010099
      f0      :     0.000537  f :     0.003918
      f+1     :     0.000483
      f-1     :     0.000821
      f+2     :     0.000434
      f-2     :     0.000408
      f+3     :     0.000769
      f-3     :     0.000467
 10 H s       :     0.560564  s :     0.560564
      pz      :     0.024992  p :     0.049994
      px      :     0.013433
      py      :     0.011569
 11 H s       :     0.560364  s :     0.560364
      pz      :     0.010481  p :     0.054827
      px      :     0.015593
      py      :     0.028752
 12 O s       :     3.804261  s :     3.804261
      pz      :     1.522460  p :     4.903624
      px      :     1.510974
      py      :     1.870190
      dz2     :     0.015546  d :     0.050246
      dxz     :     0.008046
      dyz     :     0.007887
      dx2y2   :     0.008359
      dxy     :     0.010409
      f0      :     0.000588  f :     0.004018
      f+1     :     0.000803
      f-1     :     0.000496
      f+2     :     0.000441
      f-2     :     0.000404
      f+3     :     0.000482
      f-3     :     0.000803
 13 H s       :     0.612177  s :     0.612177
      pz      :     0.018638  p :     0.046683
      px      :     0.012929
      py      :     0.015117
 14 H s       :     0.556983  s :     0.556983
      pz      :     0.009521  p :     0.055209
      px      :     0.029660
      py      :     0.016027
 15 O s       :     3.798347  s :     3.798347
      pz      :     1.602902  p :     4.911309
      px      :     1.466607
      py      :     1.841799
      dz2     :     0.015868  d :     0.051282
      dxz     :     0.007967
      dyz     :     0.007800
      dx2y2   :     0.009043
      dxy     :     0.010603
      f0      :     0.000557  f :     0.003981
      f+1     :     0.000808
      f-1     :     0.000492
      f+2     :     0.000436
      f-2     :     0.000404
      f+3     :     0.000477
      f-3     :     0.000808
 16 H s       :     0.545572  s :     0.545572
      pz      :     0.025296  p :     0.049777
      px      :     0.011337
      py      :     0.013144
 17 H s       :     0.584961  s :     0.584961
      pz      :     0.010036  p :     0.043297
      px      :     0.018674
      py      :     0.014588
 18 O s       :     3.786970  s :     3.786970
      pz      :     1.566792  p :     4.919215
      px      :     1.579677
      py      :     1.772746
      dz2     :     0.016871  d :     0.051505
      dxz     :     0.006716
      dyz     :     0.007851
      dx2y2   :     0.008020
      dxy     :     0.012047
      f0      :     0.000613  f :     0.003953
      f+1     :     0.000749
      f-1     :     0.000527
      f+2     :     0.000416
      f-2     :     0.000424
      f+3     :     0.000423
      f-3     :     0.000801
 19 H s       :     0.550778  s :     0.550778
      pz      :     0.024875  p :     0.049067
      px      :     0.011611
      py      :     0.012580
 20 H s       :     0.565405  s :     0.565405
      pz      :     0.010603  p :     0.051157
      px      :     0.024324
      py      :     0.016230
 21 O s       :     3.801375  s :     3.801375
      pz      :     1.713095  p :     4.934121
      px      :     1.783224
      py      :     1.437802
      dz2     :     0.009294  d :     0.049839
      dxz     :     0.010556
      dyz     :     0.009952
      dx2y2   :     0.007857
      dxy     :     0.012180
      f0      :     0.000454  f :     0.003979
      f+1     :     0.000537
      f-1     :     0.000682
      f+2     :     0.000433
      f-2     :     0.000714
      f+3     :     0.000698
      f-3     :     0.000459
 22 H s       :     0.598072  s :     0.598072
      pz      :     0.017366  p :     0.046992
      px      :     0.015455
      py      :     0.014171
 23 H s       :     0.532755  s :     0.532755
      pz      :     0.010535  p :     0.057364
      px      :     0.013647
      py      :     0.033182


                     *******************************
                     * LOEWDIN POPULATION ANALYSIS *
                     *******************************

----------------------
LOEWDIN ATOMIC CHARGES
----------------------
   0 O :   -0.309646
   1 H :    0.164583
   2 H :    0.185056
   3 O :   -0.348966
   4 H :    0.151656
   5 H :    0.154335
   6 O :   -0.297144
   7 H :    0.157269
   8 H :    0.156047
   9 O :   -0.324426
  10 H :    0.152287
  11 H :    0.146647
  12 O :   -0.348057
  13 H :    0.159338
  14 H :    0.151420
  15 O :   -0.292870
  16 H :    0.161950
  17 H :    0.178265
  18 O :   -0.298457
  19 H :    0.161251
  20 H :    0.152907
  21 O :   -0.323918
  22 H :    0.155803
  23 H :    0.154668

-------------------------------
LOEWDIN REDUCED ORBITAL CHARGES
-------------------------------
  0 O s       :     3.464169  s :     3.464169
      pz      :     1.670071  p :     4.780746
      px      :     1.346808
      py      :     1.763868
      dz2     :     0.010883  d :     0.059888
      dxz     :     0.012188
      dyz     :     0.011412
      dx2y2   :     0.009343
      dxy     :     0.016061
      f0      :     0.000468  f :     0.004842
      f+1     :     0.000855
      f-1     :     0.000656
      f+2     :     0.000409
      f-2     :     0.001010
      f+3     :     0.000474
      f-3     :     0.000972
  1 H s       :     0.669121  s :     0.669121
      pz      :     0.067493  p :     0.166296
      px      :     0.045037
      py      :     0.053766
  2 H s       :     0.663831  s :     0.663831
      pz      :     0.034203  p :     0.151113
      px      :     0.072279
      py      :     0.044631
  3 O s       :     3.456424  s :     3.456424
      pz      :     1.698775  p :     4.830758
      px      :     1.733218
      py      :     1.398765
      dz2     :     0.009874  d :     0.057052
      dxz     :     0.011059
      dyz     :     0.012771
      dx2y2   :     0.009351
      dxy     :     0.013997
      f0      :     0.000454  f :     0.004732
      f+1     :     0.000646
      f-1     :     0.000848
      f+2     :     0.000410
      f-2     :     0.001034
      f+3     :     0.000868
      f-3     :     0.000473
  4 H s       :     0.680239  s :     0.680239
      pz      :     0.067064  p :     0.168105
      px      :     0.053956
      py      :     0.047085
  5 H s       :     0.644662  s :     0.644662
      pz      :     0.033866  p :     0.201003
      px      :     0.048345
      py      :     0.118791
  6 O s       :     3.441772  s :     3.441772
      pz      :     1.530241  p :     4.792419
      px      :     1.547621
      py      :     1.714557
      dz2     :     0.020740  d :     0.058155
      dxz     :     0.007363
      dyz     :     0.007276
      dx2y2   :     0.008973
      dxy     :     0.013804
      f0      :     0.000848  f :     0.004798
      f+1     :     0.000965
      f-1     :     0.000718
      f+2     :     0.000389
      f-2     :     0.000426
      f+3     :     0.000408
      f-3     :     0.001043
  7 H s       :     0.667822  s :     0.667822
      pz      :     0.094427  p :     0.174909
      px      :     0.037958
      py      :     0.042523
  8 H s       :     0.664227  s :     0.664227
      pz      :     0.031414  p :     0.179726
      px      :     0.089449
      py      :     0.058863
  9 O s       :     3.451675  s :     3.451675
      pz      :     1.565595  p :     4.810171
      px      :     1.768706
      py      :     1.475869
      dz2     :     0.019518  d :     0.057869
      dxz     :     0.006860
      dyz     :     0.009250
      dx2y2   :     0.010680
      dxy     :     0.011562
      f0      :     0.000746  f :     0.004711
      f+1     :     0.000586
      f-1     :     0.001139
      f+2     :     0.000411
      f-2     :     0.000419
      f+3     :     0.000960
      f-3     :     0.000450
 10 H s       :     0.670500  s :     0.670500
      pz      :     0.095327  p :     0.177213
      px      :     0.043591
      py      :     0.038295
 11 H s       :     0.665063  s :     0.665063
      pz      :     0.031513  p :     0.188290
      px      :     0.053372
      py      :     0.103404
 12 O s       :     3.459347  s :     3.459347
      pz      :     1.512565  p :     4.825805
      px      :     1.482866
      py      :     1.830374
      dz2     :     0.020463  d :     0.058119
      dxz     :     0.009749
      dyz     :     0.007141
      dx2y2   :     0.009274
      dxy     :     0.011492
      f0      :     0.000824  f :     0.004786
      f+1     :     0.001170
      f-1     :     0.000575
      f+2     :     0.000417
      f-2     :     0.000419
      f+3     :     0.000441
      f-3     :     0.000940
 13 H s       :     0.678687  s :     0.678687
      pz      :     0.080074  p :     0.161975
      px      :     0.037718
      py      :     0.044183
 14 H s       :     0.657279  s :     0.657279
      pz      :     0.029478  p :     0.191301
      px      :     0.108268
      py      :     0.053555
 15 O s       :     3.451908  s :     3.451908
      pz      :     1.553173  p :     4.776826
      px      :     1.448171
      py      :     1.775481
      dz2     :     0.020100  d :     0.059348
      dxz     :     0.009073
      dyz     :     0.006914
      dx2y2   :     0.010961
      dxy     :     0.012300
      f0      :     0.000754  f :     0.004788
      f+1     :     0.001133
      f-1     :     0.000596
      f+2     :     0.000410
      f-2     :     0.000417
      f+3     :     0.000453
      f-3     :     0.001026
 16 H s       :     0.662139  s :     0.662139
      pz      :     0.096361  p :     0.175911
      px      :     0.036495
      py      :     0.043054
 17 H s       :     0.663298  s :     0.663298
      pz      :     0.031284  p :     0.158437
      px      :     0.076901
      py      :     0.050252
 18 O s       :     3.441908  s :     3.441908
      pz      :     1.535816  p :     4.793658
      px      :     1.543139
      py      :     1.714703
      dz2     :     0.020433  d :     0.058090
      dxz     :     0.007253
      dyz     :     0.007254
      dx2y2   :     0.009056
      dxy     :     0.014094
      f0      :     0.000834  f :     0.004802
      f+1     :     0.000964
      f-1     :     0.000721
      f+2     :     0.000389
      f-2     :     0.000425
      f+3     :     0.000407
      f-3     :     0.001061
 19 H s       :     0.663540  s :     0.663540
      pz      :     0.095495  p :     0.175209
      px      :     0.037614
      py      :     0.042101
 20 H s       :     0.668568  s :     0.668568
      pz      :     0.031886  p :     0.178525
      px      :     0.087773
      py      :     0.058865
 21 O s       :     3.451045  s :     3.451045
      pz      :     1.670981  p :     4.810634
      px      :     1.738864
      py      :     1.400790
      dz2     :     0.010462  d :     0.057497
      dxz     :     0.011050
      dyz     :     0.012468
      dx2y2   :     0.009316
      dxy     :     0.014202
      f0      :     0.000471  f :     0.004741
      f+1     :     0.000646
      f-1     :     0.000844
      f+2     :     0.000411
      f-2     :     0.001022
      f+3     :     0.000874
      f-3     :     0.000474
 22 H s       :     0.675508  s :     0.675508
      pz      :     0.067325  p :     0.168689
      px      :     0.054140
      py      :     0.047225
 23 H s       :     0.643254  s :     0.643254
      pz      :     0.033904  p :     0.202077
      px      :     0.048503
      py      :     0.119670


                      *****************************
                      * MAYER POPULATION ANALYSIS *
                      *****************************

  NA   - Mulliken gross atomic population
[...]
      f+2     :     0.000416
      f-2     :     0.000422
      f+3     :     0.000423
      f-3     :     0.000778
 19 H s       :     0.564216  s :     0.564216
      pz      :     0.024066  p :     0.049427
      px      :     0.012038
      py      :     0.013323
 20 H s       :     0.583208  s :     0.583208
      pz      :     0.011256  p :     0.051663
      px      :     0.023780
      py      :     0.016627
 21 O s       :     3.803090  s :     3.803090
      pz      :     1.702731  p :     4.902620
      px      :     1.768959
      py      :     1.430930
      dz2     :     0.009166  d :     0.048079
      dxz     :     0.010253
      dyz     :     0.009374
      dx2y2   :     0.007744
      dxy     :     0.011542
      f0      :     0.000452  f :     0.003910
      f+1     :     0.000529
      f-1     :     0.000665
      f+2     :     0.000433
      f-2     :     0.000694
      f+3     :     0.000681
      f-3     :     0.000457
 22 H s       :     0.604395  s :     0.604395
      pz      :     0.017481  p :     0.047769
      px      :     0.016072
      py      :     0.014216
 23 H s       :     0.559560  s :     0.559560
      pz      :     0.011194  p :     0.057410
      px      :     0.014087
      py      :     0.032129


                     *******************************
                     * LOEWDIN POPULATION ANALYSIS *
                     *******************************

----------------------
LOEWDIN ATOMIC CHARGES
----------------------
   0 O :   -0.307889
   1 H :    0.166372
   2 H :    0.186777
   3 O :   -0.345203
   4 H :    0.153688
   5 H :    0.146119
   6 O :   -0.288498
   7 H :    0.154027
   8 H :    0.150592
   9 O :   -0.316402
  10 H :    0.147893
  11 H :    0.140228
  12 O :   -0.347322
  13 H :    0.160955
  14 H :    0.143378
  15 O :   -0.284326
  16 H :    0.157808
  17 H :    0.178743
  18 O :   -0.290058
  19 H :    0.157916
  20 H :    0.147993
  21 O :   -0.316731
  22 H :    0.157677
  23 H :    0.146264

-------------------------------
LOEWDIN REDUCED ORBITAL CHARGES
-------------------------------
  0 O s       :     3.465937  s :     3.465937
      pz      :     1.664540  p :     4.778446
      px      :     1.351841
      py      :     1.762066
      dz2     :     0.010780  d :     0.058645
      dxz     :     0.011819
      dyz     :     0.011376
      dx2y2   :     0.009114
      dxy     :     0.015557
      f0      :     0.000471  f :     0.004861
      f+1     :     0.000861
      f-1     :     0.000656
      f+2     :     0.000409
      f-2     :     0.001009
      f+3     :     0.000477
      f-3     :     0.000977
  1 H s       :     0.667570  s :     0.667570
      pz      :     0.067428  p :     0.166059
      px      :     0.044227
      py      :     0.054403
  2 H s       :     0.662080  s :     0.662080
      pz      :     0.034873  p :     0.151143
      px      :     0.070863
      py      :     0.045407
  3 O s       :     3.457740  s :     3.457740
      pz      :     1.698396  p :     4.826213
      px      :     1.725058
      py      :     1.402759
      dz2     :     0.009862  d :     0.056480
      dxz     :     0.010986
      dyz     :     0.012412
      dx2y2   :     0.009400
      dxy     :     0.013820
      f0      :     0.000456  f :     0.004770
      f+1     :     0.000646
      f-1     :     0.000859
      f+2     :     0.000410
      f-2     :     0.001036
      f+3     :     0.000884
      f-3     :     0.000478
  4 H s       :     0.678157  s :     0.678157
      pz      :     0.067106  p :     0.168155
      px      :     0.054273
      py      :     0.046777
  5 H s       :     0.652765  s :     0.652765
      pz      :     0.034466  p :     0.201116
      px      :     0.048684
      py      :     0.117966
  6 O s       :     3.441945  s :     3.441945
      pz      :     1.531793  p :     4.784129
      px      :     1.549043
      py      :     1.703294
      dz2     :     0.020295  d :     0.057600
      dxz     :     0.007266
      dyz     :     0.007317
      dx2y2   :     0.009060
      dxy     :     0.013662
      f0      :     0.000852  f :     0.004823
      f+1     :     0.000973
      f-1     :     0.000720
      f+2     :     0.000390
      f-2     :     0.000426
      f+3     :     0.000409
      f-3     :     0.001053
  7 H s       :     0.670852  s :     0.670852
      pz      :     0.093627  p :     0.175121
      px      :     0.038440
      py      :     0.043055
  8 H s       :     0.669130  s :     0.669130
      pz      :     0.031854  p :     0.180278
      px      :     0.089270
      py      :     0.059154
  9 O s       :     3.452309  s :     3.452309
      pz      :     1.567140  p :     4.801971
      px      :     1.756658
      py      :     1.478173
      dz2     :     0.019165  d :     0.057379
      dxz     :     0.006930
      dyz     :     0.009074
      dx2y2   :     0.010693
      dxy     :     0.011517
      f0      :     0.000747  f :     0.004744
      f+1     :     0.000588
      f-1     :     0.001151
      f+2     :     0.000413
      f-2     :     0.000418
      f+3     :     0.000973
      f-3     :     0.000453
 10 H s       :     0.674494  s :     0.674494
      pz      :     0.094883  p :     0.177614
      px      :     0.044185
      py      :     0.038545
 11 H s       :     0.670768  s :     0.670768
      pz      :     0.032134  p :     0.189004
      px      :     0.053835
      py      :     0.103035
 12 O s       :     3.460747  s :     3.460747
      pz      :     1.511417  p :     4.824379
      px      :     1.485288
      py      :     1.827674
      dz2     :     0.019983  d :     0.057374
      dxz     :     0.009522
      dyz     :     0.007200
      dx2y2   :     0.009251
      dxy     :     0.011419
      f0      :     0.000825  f :     0.004822
      f+1     :     0.001184
      f-1     :     0.000575
      f+2     :     0.000420
      f-2     :     0.000418
      f+3     :     0.000444
      f-3     :     0.000955
 13 H s       :     0.676860  s :     0.676860
      pz      :     0.079360  p :     0.162185
      px      :     0.037783
      py      :     0.045042
 14 H s       :     0.664691  s :     0.664691
      pz      :     0.029771  p :     0.191931
      px      :     0.107920
      py      :     0.054241
 15 O s       :     3.452871  s :     3.452871
      pz      :     1.551711  p :     4.768044
      px      :     1.450749
      py      :     1.765584
      dz2     :     0.019800  d :     0.058601
      dxz     :     0.008892
      dyz     :     0.006997
      dx2y2   :     0.010832
      dxy     :     0.012080
      f0      :     0.000758  f :     0.004810
      f+1     :     0.001141
      f-1     :     0.000597
      f+2     :     0.000412
      f-2     :     0.000416
      f+3     :     0.000455
      f-3     :     0.001032
 16 H s       :     0.666127  s :     0.666127
      pz      :     0.095825  p :     0.176065
      px      :     0.036457
      py      :     0.043782
 17 H s       :     0.662788  s :     0.662788
      pz      :     0.031810  p :     0.158469
      px      :     0.075840
      py      :     0.050820
 18 O s       :     3.442010  s :     3.442010
      pz      :     1.537532  p :     4.785720
      px      :     1.544451
      py      :     1.703736
      dz2     :     0.019988  d :     0.057502
      dxz     :     0.007155
      dyz     :     0.007290
      dx2y2   :     0.009142
      dxy     :     0.013927
      f0      :     0.000837  f :     0.004827
      f+1     :     0.000971
      f-1     :     0.000722
      f+2     :     0.000390
      f-2     :     0.000425
      f+3     :     0.000409
      f-3     :     0.001071
 19 H s       :     0.666807  s :     0.666807
      pz      :     0.094657  p :     0.175277
      px      :     0.038039
      py      :     0.042581
 20 H s       :     0.672915  s :     0.672915
      pz      :     0.032410  p :     0.179091
      px      :     0.087466
      py      :     0.059216
 21 O s       :     3.452576  s :     3.452576
      pz      :     1.665872  p :     4.802248
      px      :     1.731685
      py      :     1.404691
      dz2     :     0.010561  d :     0.057126
      dxz     :     0.011015
      dyz     :     0.012133
      dx2y2   :     0.009389
      dxy     :     0.014029
      f0      :     0.000474  f :     0.004782
      f+1     :     0.000648
      f-1     :     0.000855
      f+2     :     0.000412
      f-2     :     0.001024
      f+3     :     0.000890
      f-3     :     0.000479
 22 H s       :     0.673652  s :     0.673652
      pz      :     0.067281  p :     0.168671
      px      :     0.054527
      py      :     0.046862
 23 H s       :     0.651467  s :     0.651467
      pz      :     0.034428  p :     0.202269
      px      :     0.048885
      py      :     0.118956


                      *****************************
                      * MAYER POPULATION ANALYSIS *
                      *****************************

  NA   - Mulliken gross atomic population
  ZA   - Total nuclear charge
  QA   - Mulliken gross atomic charge
  VA   - Mayer's total valence
  BVA  - Mayer's bonded valence
  FA   - Mayer's free valence

  ATOM       NA         ZA         QA         VA         BVA        FA
  0 O      8.6938     8.0000    -0.6938     2.1017     1.7181     0.3836
  1 H      0.6422     1.0000     0.3578     0.8915     0.8466     0.0449
  2 H      0.6438     1.0000     0.3562     0.8918     0.8438     0.0480
  3 O      8.7496     8.0000    -0.7496     2.0262     1.6364     0.3897
  4 H      0.6630     1.0000     0.3370     0.9073     0.8600     0.0473
  5 H      0.6147     1.0000     0.3853     0.9059     0.8619     0.0440
  6 O      8.7258     8.0000    -0.7258     2.0761     1.6907     0.3854
  7 H      0.6176     1.0000     0.3824     0.8855     0.8420     0.0436
  8 H      0.6296     1.0000     0.3704     0.9205     0.8766     0.0439
  9 O      8.7287     8.0000    -0.7287     2.0697     1.6816     0.3881
 10 H      0.6263     1.0000     0.3737     0.9039     0.8599     0.0441
 11 H      0.6357     1.0000     0.3643     0.9160     0.8703     0.0457
 12 O      8.7379     8.0000    -0.7379     2.0234     1.6350     0.3884
 13 H      0.6664     1.0000     0.3336     0.9097     0.8614     0.0482
 14 H      0.6389     1.0000     0.3611     0.9335     0.8882     0.0453
 15 O      8.7351     8.0000    -0.7351     2.0885     1.7007     0.3878
 16 H      0.6113     1.0000     0.3887     0.8926     0.8504     0.0422
 17 H      0.6369     1.0000     0.3631     0.8959     0.8489     0.0470
 18 O      8.7272     8.0000    -0.7272     2.0813     1.6960     0.3853
 19 H      0.6136     1.0000     0.3864     0.8900     0.8470     0.0430
 20 H      0.6349     1.0000     0.3651     0.9184     0.8737     0.0446
 21 O      8.7577     8.0000    -0.7577     2.0290     1.6379     0.3911
 22 H      0.6522     1.0000     0.3478     0.9005     0.8539     0.0466
 23 H      0.6170     1.0000     0.3830     0.9097     0.8652     0.0445

  Mayer bond orders larger than 0.100000
B(  0-O ,  1-H ) :   0.8389 B(  0-O ,  2-H ) :   0.8335 B(  3-O ,  4-H ) :   0.8506 
B(  3-O ,  5-H ) :   0.7369 B(  5-H , 18-O ) :   0.1198 B(  6-O ,  7-H ) :   0.8092 
B(  6-O ,  8-H ) :   0.7865 B(  6-O , 23-H ) :   0.1244 B(  9-O , 10-H ) :   0.8055 
B(  9-O , 11-H ) :   0.7913 B(  9-O , 14-H ) :   0.1196 B( 12-O , 13-H ) :   0.8521 
B( 12-O , 14-H ) :   0.7571 B( 15-O , 16-H ) :   0.7914 B( 15-O , 17-H ) :   0.8228 
B( 18-O , 19-H ) :   0.7991 B( 18-O , 20-H ) :   0.8021 B( 21-O , 22-H ) :   0.8419 
B( 21-O , 23-H ) :   0.7259 


----------------------------------
MP2 DERIVATIVE INTEGRAL GENERATION
----------------------------------


Input Wavefunction Amplitudes       ... 12h2o.su.etal.mol1,2,3,4,6,7,8,10-orca.engrad-mp2.def2tzvp.frozencore.mp2tsaa.tmp
Input Correlated Electron Density   ... 12h2o.su.etal.mol1,2,3,4,6,7,8,10-orca.engrad-mp2.def2tzvp.frozencore.pmp2re
Input Energy Weighted Density       ... 12h2o.su.etal.mol1,2,3,4,6,7,8,10-orca.engrad-mp2.def2tzvp.frozencore.wmp2.tmp
Input SCF Electron Density          ... 12h2o.su.etal.mol1,2,3,4,6,7,8,10-orca.engrad-mp2.def2tzvp.frozencore.scfp

One-Electron Terms    ...
                        ... One-Electron Terms done
Prescreening matrices              ... done

Batch handling in the gradient evaluation:
Memory available                      ... 8000.0 MB
Memory per occupied orbital in Q2     ...   28.9 MB
Memory per occupied orbital in Q3     ...    0.1 MB
Total memory requirement per |i>      ...   29.0 MB
Max. Number of orbitals possible      ...    275
Number of orbitals treated per batch  ...     32
Number of batches to be done          ...      1
Batch   0: i=    8 ...    39

---------------------------------------
MP2 TOTAL ENERGY:     -610.603246568 Eh
---------------------------------------

The final MP2 gradient
  0:  -0.02575260   0.01077490   0.00338637
  1:  -0.00112141   0.00171816  -0.00258760
  2:   0.02743640  -0.01073099  -0.00152615
  3:   0.00475645  -0.00383410   0.00083918
  4:  -0.00047914  -0.00076536  -0.00011740
  5:  -0.00063473   0.00523211  -0.00082536
  6:   0.00200641  -0.00159962  -0.00270872
  7:   0.00034410   0.00053467   0.00233789
  8:  -0.00416362   0.00281502   0.00017688
  9:  -0.00036678   0.00390712   0.00080625
 10:  -0.00035387   0.00198626  -0.00002221
 11:  -0.00113747  -0.00957604  -0.00027337
 12:  -0.00205650  -0.00127870  -0.01038390
 13:   0.00124294   0.00060229   0.01102946
 14:   0.00213991  -0.00017746  -0.00153036
 15:  -0.01537218   0.01051258  -0.00108131
 16:  -0.00004557  -0.00157950  -0.00207962
 17:   0.01341215  -0.00568857   0.00323516
 18:   0.00054304  -0.00132659   0.00048565
 19:  -0.00025746   0.00081833  -0.00176239
 20:  -0.00038482  -0.00132271  -0.00043124
 21:  -0.00060780   0.00091339   0.00040478
 22:   0.00068467  -0.00000461   0.00115361
 23:   0.00016787  -0.00193058   0.00147440

-----------------------------------
NORM OF THE MP2 GRADIENT:  0.052312
-----------------------------------

-------------------------   --------------------
FINAL SINGLE POINT ENERGY      -610.603246567737
-------------------------   --------------------


                            ***************************************
                            *     ORCA property calculations      *
                            ***************************************

                                    ---------------------
                                    Active property flags
                                    ---------------------
   (+) Dipole Moment


------------------------------------------------------------------------------
                       ORCA ELECTRIC PROPERTIES CALCULATION
------------------------------------------------------------------------------

Dipole Moment Calculation                       ... on
Quadrupole Moment Calculation                   ... off
Polarizability Calculation                      ... off
GBWName                                         ... 12h2o.su.etal.mol1,2,3,4,6,7,8,10-orca.engrad-mp2.def2tzvp.frozencore.gbw
Electron density file                           ... 12h2o.su.etal.mol1,2,3,4,6,7,8,10-orca.engrad-mp2.def2tzvp.frozencore.scfp
The origin for moment calculation is the CENTER OF MASS  = (-0.635358,  0.174382 -2.010638)

-------------
DIPOLE MOMENT
-------------
                                X             Y             Z
Electronic contribution:     -0.33320       0.02213       0.16538
Nuclear contribution   :     -0.14496      -1.13354       1.51390
                        -----------------------------------------
Total Dipole Moment    :     -0.47817      -1.11141       1.67928
                        -----------------------------------------
Magnitude (a.u.)       :      2.06975
Magnitude (Debye)      :      5.26088



--------------------
Rotational spectrum 
--------------------
 
Rotational constants in cm-1:     0.035532     0.020115     0.018736 
Rotational constants in MHz :  1065.213630   603.027132   561.702377 

 Dipole components along the rotational axes: 
x,y,z [a.u.] :     1.858280    -0.346105    -0.843125 
x,y,z [Debye]:     4.723372    -0.879728    -2.143053 

 

                         *** MP2 UNRELAXED DENSITY ***

------------------------------------------------------------------------------
                       ORCA ELECTRIC PROPERTIES CALCULATION
------------------------------------------------------------------------------

Dipole Moment Calculation                       ... on
Quadrupole Moment Calculation                   ... off
Polarizability Calculation                      ... off
GBWName                                         ... 12h2o.su.etal.mol1,2,3,4,6,7,8,10-orca.engrad-mp2.def2tzvp.frozencore.gbw
Electron density file                           ... 12h2o.su.etal.mol1,2,3,4,6,7,8,10-orca.engrad-mp2.def2tzvp.frozencore.pmp2ur
The origin for moment calculation is the CENTER OF MASS  = (-0.635358,  0.174382 -2.010638)

-------------
DIPOLE MOMENT
-------------
                                X             Y             Z
Electronic contribution:     -0.33628       0.03208       0.15455
Nuclear contribution   :     -0.14496      -1.13354       1.51390
                        -----------------------------------------
Total Dipole Moment    :     -0.48125      -1.10146       1.66845
                        -----------------------------------------
Magnitude (a.u.)       :      2.05634
Magnitude (Debye)      :      5.22679



--------------------
Rotational spectrum 
--------------------
 
Rotational constants in cm-1:     0.035532     0.020115     0.018736 
Rotational constants in MHz :  1065.213630   603.027132   561.702377 

 Dipole components along the rotational axes: 
x,y,z [a.u.] :     1.848464    -0.346267    -0.831745 
x,y,z [Debye]:     4.698422    -0.880140    -2.114128 

 

                           *** MP2 RELAXED DENSITY ***

------------------------------------------------------------------------------
                       ORCA ELECTRIC PROPERTIES CALCULATION
------------------------------------------------------------------------------

Dipole Moment Calculation                       ... on
Quadrupole Moment Calculation                   ... off
Polarizability Calculation                      ... off
GBWName                                         ... 12h2o.su.etal.mol1,2,3,4,6,7,8,10-orca.engrad-mp2.def2tzvp.frozencore.gbw
Electron density file                           ... 12h2o.su.etal.mol1,2,3,4,6,7,8,10-orca.engrad-mp2.def2tzvp.frozencore.pmp2re
The origin for moment calculation is the CENTER OF MASS  = (-0.635358,  0.174382 -2.010638)

-------------
DIPOLE MOMENT
-------------
                                X             Y             Z
Electronic contribution:     -0.34462       0.03258       0.15693
Nuclear contribution   :     -0.14496      -1.13354       1.51390
                        -----------------------------------------
Total Dipole Moment    :     -0.48958      -1.10097       1.67083
                        -----------------------------------------
Magnitude (a.u.)       :      2.05997
Magnitude (Debye)      :      5.23603



--------------------
Rotational spectrum 
--------------------
 
Rotational constants in cm-1:     0.035532     0.020115     0.018736 
Rotational constants in MHz :  1065.213630   603.027132   561.702377 

 Dipole components along the rotational axes: 
x,y,z [a.u.] :     1.853984    -0.350599    -0.826626 
x,y,z [Debye]:     4.712453    -0.891151    -2.101117 

 

Timings for individual modules:

Sum of individual times         ...      197.083 sec (=   3.285 min)
GTO integral calculation        ...        0.999 sec (=   0.017 min)   0.5 %
SCF iterations                  ...       31.124 sec (=   0.519 min)  15.8 %
MP2 module                      ...      164.959 sec (=   2.749 min)  83.7 %
                             ****ORCA TERMINATED NORMALLY****
TOTAL RUN TIME: 0 days 0 hours 3 minutes 18 seconds 61 msec
