6
Energy:    -21.27914607
O    1.29246988   0.45651664  -0.78095697
H    1.86781332   0.63280465  -0.03655499
H    0.41199243   0.44256303  -0.40572823
O   -1.09036778  -0.19536001   0.50412278
H   -1.29286050  -0.83596738   1.18592242
H   -1.29940749  -0.64316449  -0.31563657
