
                                 *****************
                                 * O   R   C   A *
                                 *****************

           --- An Ab Initio, DFT and Semiempirical electronic structure package ---

                  #######################################################
                  #                        -***-                        #
                  #  Department of molecular theory and spectroscopy    #
                  #              Directorship: Frank Neese              #
                  # Max Planck Institute for Chemical Energy Conversion #
                  #                  D-45470 Muelheim/Ruhr              #
                  #                       Germany                       #
                  #                                                     #
                  #                  All rights reserved                #
                  #                        -***-                        #
                  #######################################################


                         Program Version 3.0.3 - RELEASE   -


 With contributions from (in alphabetic order):
   Ute Becker             : Parallelization
   Dmytro Bykov           : SCF Hessian
   Dmitry Ganyushin       : Spin-Orbit,Spin-Spin,Magnetic field MRCI
   Andreas Hansen         : Spin unrestricted coupled pair/coupled cluster methods
   Dimitrios Liakos       : Extrapolation schemes; parallel MDCI
   Robert Izsak           : Overlap fitted RIJCOSX, COSX-SCS-MP3
   Christian Kollmar      : KDIIS, OOCD, Brueckner-CCSD(T), CCSD density
   Simone Kossmann        : Meta GGA functionals, TD-DFT gradient, OOMP2, MP2 Hessian
   Taras Petrenko         : DFT Hessian,TD-DFT gradient, ASA and ECA modules, normal mode analysis, Resonance Raman, ABS, FL, XAS/XES, NRVS
   Christoph Reimann      : Effective Core Potentials
   Michael Roemelt        : Restricted open shell CIS
   Christoph Riplinger    : Improved optimizer, TS searches, QM/MM, DLPNO-CCSD
   Barbara Sandhoefer     : DKH picture change effects
   Igor Schapiro          : Molecular dynamics
   Kantharuban Sivalingam : CASSCF convergence, NEVPT2
   Boris Wezisla          : Elementary symmetry handling
   Frank Wennmohs         : Technical directorship


 We gratefully acknowledge several colleagues who have allowed us to
 interface, adapt or use parts of their codes:
   Stefan Grimme, W. Hujo, H. Kruse, T. Risthaus : VdW corrections, initial TS optimization,
                                                   DFT functionals, gCP
   Ed Valeev                                     : LibInt (2-el integral package), F12 methods
   Garnet Chan, S. Sharma, R. Olivares           : DMRG
   Ulf Ekstrom                                   : XCFun DFT Library
   Mihaly Kallay                                 : mrcc  (arbitrary order and MRCC methods)
   Andreas Klamt, Michael Diedenhofen            : otool_cosmo (COSMO solvation model)
   Frank Weinhold                                : gennbo (NPA and NBO analysis)
   Christopher J. Cramer and Donald G. Truhlar   : smd solvation model


 Your calculation uses the libint2 library for the computation of 2-el integrals
 For citations please refer to: http://libint.valeyev.net

 This ORCA versions uses:
   CBLAS   interface :  Fast vector & matrix operations
   LAPACKE interface :  Fast linear algebra routines
   SCALAPACK package :  Parallel linear algebra routines


Your calculation utilizes the basis: Ahlrichs-VDZ
Cite in your paper:
H - Kr: A. Schaefer, H. Horn and R. Ahlrichs, J. Chem. Phys. 97, 2571 (1992).

Your calculation utilizes the basis: Ahlrichs SVPalls1+f
Cite in your paper:
Rb - Xe: A. Schaefer, C. Huber and R. Ahlrichs, J. Chem. Phys. 100, 5829 (1994).

Your calculation utilizes the atom-pairwise dispersion correction
with the Becke-Johnson damping scheme (D3BJ)
Cite in your paper:
S.Grimme, S.Ehrlich, L.Goerigk, J Comput Chem, (2011), 32, 1456–1465 
S.Grimme, J.Antony, S.Ehrlich and H.Krieg, J.Chem.Phys., 132, (2010), 154104 
   

================================================================================
                                        WARNINGS
                       Please study these warnings very carefully!
================================================================================

WARNING: The RI method has been chosen with no auxiliary basis (AUX or GTOAUX in BASIS block)
        Standard SV/J expansion basis used (GTOAUX=VDZ_J)

Now building the actual basis set

WARNING: Geometry Optimization
  ===> : Switching off AutoStart
         For restart on a previous wavefunction, please use MOREAD


INFO   : the flag for use of LIBINT has been found!

================================================================================
                                       INPUT FILE
================================================================================
NAME = 4_BP86_16_h2o.inp
|  1> ! BP86 Def2-SVP TightSCF Opt D3BJ
|  2> 
|  3> %pal nprocs 12 end
|  4> 
|  5> %scf
|  6>         maxiter 800
|  7> end
|  8> 
|  9> * xyz  0  1
| 10> O  3.68673883	1.23187706	-2.60294835
| 11> H  4.26054145	1.76864888	-3.14962779
| 12> H  3.09727029	0.80256744	-3.22299022
| 13> O  -2.20151805	0.88369353	-0.45467850
| 14> H  -1.56982527	1.37346851	0.07193003
| 15> H  -3.04777350	1.06783422	-0.04703187
| 16> O  -0.15539746	0.41381230	-2.29646286
| 17> H  -1.00769856	0.63757502	-1.92263814
| 18> H  0.47368100	0.91273602	-1.77534169
| 19> O  1.91331924	-0.13577592	-4.09986580
| 20> H  2.06315791	-1.05469775	-3.87768819
| 21> H  1.06394884	0.07010273	-3.70946120
| 22> O  2.47741640	-2.62209188	-2.97857589
| 23> H  3.14043070	-2.20937069	-2.42512751
| 24> H  2.91683995	-3.38737272	-3.34936429
| 25> O  -4.32680824	1.23272157	1.28219881
| 26> H  -4.18160980	0.39744924	1.72657411
| 27> H  -5.27891643	1.32716732	1.25388218
| 28> O  0.07498870	-0.40409481	2.38020900
| 29> H  -0.42248592	-0.28517767	3.18928846
| 30> H  -0.50924095	-0.90457512	1.81062404
| 31> O  -3.60967238	-1.04895038	2.52153071
| 32> H  -3.04802975	-0.76851772	3.24412805
| 33> H  -3.01378836	-1.47642432	1.90637211
| 34> O  -1.83734003	0.15750353	4.29932996
| 35> H  -2.05608420	1.00936325	3.92154980
| 36> H  -1.89846967	0.29157868	5.24512004
| 37> O  1.72325711	1.55006278	-0.67969251
| 38> H  2.44981091	1.66073510	-1.29296493
| 39> H  1.93693308	0.75220733	-0.19595588
| 40> O  -2.43737461	2.41276562	2.95396474
| 41> H  -1.69764546	2.53901294	2.35974740
| 42> H  -3.16569223	2.16992517	2.38228842
| 43> O  -1.63120004	-1.56116791	0.60915585
| 44> H  -1.89945602	-0.75831546	0.16227945
| 45> H  -1.05418979	-2.00173839	-0.01469403
| 46> O  -0.32595277	2.00256596	1.16300680
| 47> H  -0.10547212	1.21048837	1.65314272
| 48> H  0.42404410	2.14384994	0.58527383
| 49> O  4.13373609	-1.22803013	-1.37562426
| 50> H  4.15057702	-0.34669909	-1.74872456
| 51> H  3.64748784	-1.13268650	-0.55665901
| 52> O  2.11254402	-0.85522214	0.52429446
| 53> H  1.63783794	-0.77969805	1.35205174
| 54> H  1.53123998	-1.36492053	-0.04008573
| 55> O  0.40326619	-2.02967275	-1.24584320
| 56> H  1.02044639	-2.44339771	-1.84929337
| 57> H  0.14212599	-1.22111291	-1.68660235
| 58> **                         ****END OF INPUT****
================================================================================

                       *****************************
                       * Geometry Optimization Run *
                       *****************************

Geometry optimization settings:
Update method            Update   .... BFGS
Choice of coordinates    CoordSys .... Redundant Internals
Initial Hessian          InHess   .... Almoef's Model

Convergence Tolerances:
Energy Change            TolE     ....  5.0000e-06 Eh
Max. Gradient            TolMAXG  ....  3.0000e-04 Eh/bohr
RMS Gradient             TolRMSG  ....  1.0000e-04 Eh/bohr
Max. Displacement        TolMAXD  ....  4.0000e-03 bohr
RMS Displacement         TolRMSD  ....  2.0000e-03 bohr

------------------------------------------------------------------------------
                        ORCA OPTIMIZATION COORDINATE SETUP
------------------------------------------------------------------------------

The optimization will be done in new redundant internal coordinates
Making redundant internal coordinates   ...  (new redundants) done
Evaluating the initial hessian          ...  (Almloef) done
Evaluating the coordinates              ...  done
Calculating the B-matrix                .... done
Calculating the G-matrix                .... done
Diagonalizing the G-matrix              .... done
The first mode is                       ....  603
The number of degrees of freedom        ....  138

    -----------------------------------------------------------------
                    Redundant Internal Coordinates


    -----------------------------------------------------------------
         Definition                    Initial Value    Approx d2E/dq
    -----------------------------------------------------------------
      1. B(H   1,O   0)                  0.9572         0.525332   
      2. B(H   2,O   0)                  0.9572         0.525332   
      3. B(H   4,O   3)                  0.9572         0.525332   
      4. B(H   5,O   3)                  0.9572         0.525332   
      5. B(H   7,O   6)                  0.9572         0.525332   
      6. B(H   7,H   4)                  2.1991         0.001172   
      7. B(H   7,O   3)                  1.9081         0.015974   
      8. B(H   8,O   6)                  0.9572         0.525332   
      9. B(O   9,H   2)                  1.7468         0.028891   
     10. B(H  10,H   2)                  2.2243         0.001069   
     11. B(H  10,O   9)                  0.9572         0.525332   
     12. B(H  11,O   6)                  1.8978         0.016589   
     13. B(H  11,H   8)                  2.1907         0.001209   
     14. B(H  11,H   2)                  2.2153         0.001104   
     15. B(H  11,O   9)                  0.9572         0.525332   
     16. B(O  12,H  10)                  1.8538         0.019494   
     17. B(H  13,H  10)                  2.1456         0.001427   
     18. B(H  13,O  12)                  0.9572         0.525332   
     19. B(H  14,O  12)                  0.9572         0.525332   
     20. B(O  15,H   5)                  1.8520         0.019625   
     21. B(H  16,H   5)                  2.2092         0.001129   
     22. B(H  16,O  15)                  0.9572         0.525332   
     23. B(H  17,O  15)                  0.9572         0.525332   
     24. B(H  19,O  18)                  0.9572         0.525332   
     25. B(H  20,O  18)                  0.9572         0.525332   
     26. B(O  21,H  16)                  1.7468         0.028891   
     27. B(H  22,O  21)                  0.9572         0.525332   
     28. B(H  22,H  16)                  2.2243         0.001069   
     29. B(H  23,H  16)                  2.2153         0.001104   
     30. B(H  23,O  21)                  0.9572         0.525332   
     31. B(O  24,H  22)                  1.8538         0.019494   
     32. B(O  24,H  19)                  1.8520         0.019625   
     33. B(H  25,H  22)                  2.1456         0.001427   
     34. B(H  25,O  24)                  0.9572         0.525332   
     35. B(H  25,H  19)                  2.2092         0.001129   
     36. B(H  26,O  24)                  0.9572         0.525332   
     37. B(O  27,H   8)                  1.7799         0.025577   
     38. B(H  28,O  27)                  0.9572         0.525332   
     39. B(H  28,H   8)                  2.1673         0.001317   
     40. B(H  28,H   2)                  2.2092         0.001129   
     41. B(H  28,O   0)                  1.8520         0.019625   
     42. B(H  29,H   8)                  2.1590         0.001358   
     43. B(H  29,O  27)                  0.9572         0.525332   
     44. B(O  30,H  25)                  1.7468         0.028890   
     45. B(H  31,O  30)                  0.9572         0.525332   
     46. B(H  31,H  25)                  2.2153         0.001104   
     47. B(H  32,H  16)                  2.1456         0.001427   
     48. B(H  32,O  15)                  1.8538         0.019494   
     49. B(H  32,O  30)                  0.9572         0.525332   
     50. B(H  32,H  25)                  2.2243         0.001069   
     51. B(O  33,H  20)                  1.7702         0.026511   
     52. B(O  33,H  23)                  1.8978         0.016589   
     53. B(H  34,H  23)                  2.1907         0.001209   
     54. B(H  34,O  33)                  0.9572         0.525332   
     55. B(H  34,H  20)                  2.1613         0.001347   
     56. B(H  34,H   5)                  2.1673         0.001317   
     57. B(H  34,H   4)                  2.1590         0.001358   
     58. B(H  34,O   3)                  1.7799         0.025577   
     59. B(H  35,O  33)                  0.9572         0.525332   
     60. B(H  35,H  20)                  2.1983         0.001176   
     61. B(O  36,H  31)                  1.8978         0.016589   
     62. B(O  36,H   4)                  1.7701         0.026511   
     63. B(H  37,O  36)                  0.9572         0.525332   
     64. B(H  37,H  31)                  2.1907         0.001209   
     65. B(H  37,H  20)                  2.1590         0.001358   
     66. B(H  37,H  19)                  2.1673         0.001317   
     67. B(H  37,O  18)                  1.7799         0.025577   
     68. B(H  37,H   4)                  2.1613         0.001347   
     69. B(H  38,O  27)                  1.9081         0.015974   
     70. B(H  38,O  36)                  0.9572         0.525332   
     71. B(H  38,H   4)                  2.1983         0.001176   
     72. B(H  38,H  29)                  2.1991         0.001172   
     73. B(O  39,H  13)                  1.7468         0.028890   
     74. B(H  40,H  13)                  2.2243         0.001069   
     75. B(H  40,H   2)                  2.1456         0.001427   
     76. B(H  40,O   0)                  1.8538         0.019494   
     77. B(H  40,O  39)                  0.9572         0.525332   
     78. B(H  41,H  13)                  2.2153         0.001104   
     79. B(H  41,O  39)                  0.9572         0.525332   
     80. B(O  42,H  41)                  1.8978         0.016589   
     81. B(O  42,H  29)                  1.7701         0.026511   
     82. B(H  43,O  42)                  0.9572         0.525332   
     83. B(H  43,H  29)                  2.1983         0.001176   
     84. B(H  43,H  20)                  2.1991         0.001172   
     85. B(H  43,O  18)                  1.9081         0.015974   
     86. B(H  44,H  41)                  2.1907         0.001209   
     87. B(H  44,O  42)                  0.9572         0.525332   
     88. B(H  44,H  29)                  2.1613         0.001347   
     89. B(O  45,H  44)                  1.7799         0.025577   
     90. B(O  45,H  35)                  1.9081         0.015974   
     91. B(H  46,O  45)                  0.9572         0.525332   
     92. B(H  46,H  13)                  2.2092         0.001129   
     93. B(H  46,O  12)                  1.8520         0.019625   
     94. B(H  46,H  44)                  2.1673         0.001317   
     95. B(H  47,H   8)                  2.1613         0.001347   
     96. B(H  47,H   7)                  2.1983         0.001176   
     97. B(H  47,O   6)                  1.7701         0.026511   
     98. B(H  47,H  44)                  2.1590         0.001358   
     99. B(H  47,H  35)                  2.1991         0.001172   
    100. B(H  47,O  45)                  0.9572         0.525332   
    101. A(H  28,O   0,H  40)           92.1984         0.141742   
    102. A(H   1,O   0,H   2)          104.5200         0.322920   
    103. A(H   2,O   0,H  28)           98.6699         0.200159   
    104. A(H   1,O   0,H  40)          126.2056         0.199990   
    105. A(H   2,O   0,H  40)           94.0515         0.199990   
    106. A(H   1,O   0,H  28)          132.4142         0.200159   
    107. A(H  10,H   2,H  40)           89.0388         0.098885   
    108. A(O   0,H   2,H  10)          148.3722         0.135539   
    109. A(O   9,H   2,H  28)          116.6532         0.113442   
    110. A(H  10,H   2,H  28)          116.4387         0.098376   
    111. A(O   0,H   2,H  11)          148.8458         0.135888   
    112. A(O   9,H   2,H  40)          112.9500         0.114770   
    113. A(O   0,H   2,H  28)           55.9688         0.136126   
    114. A(O   0,H   2,O   9)          169.5847         0.210327   
    115. A(O   9,H   2,H  10)           24.2955         0.113138   
    116. A(O   0,H   2,H  40)           59.5251         0.138684   
    117. A(H  10,H   2,H  11)           39.8750         0.098328   
    118. A(H  28,H   2,H  40)           75.6212         0.099009   
    119. A(H  11,H   2,H  28)           92.9396         0.098446   
    120. A(O   9,H   2,H  11)           24.4977         0.113319   
    121. A(H  11,H   2,H  40)          115.1105         0.098959   
    122. A(H   5,O   3,H  34)          100.3633         0.207027   
    123. A(H   4,O   3,H   7)           94.3791         0.195098   
    124. A(H   5,O   3,H   7)          154.9060         0.195098   
    125. A(H   7,O   3,H  34)           92.3783         0.142533   
    126. A(H   4,O   3,H   5)          104.5200         0.322920   
    127. A(H   4,O   3,H  34)           99.7494         0.207027   
    128. A(H  34,H   4,H  37)           89.9066         0.099301   
    129. A(O   3,H   4,H   7)           59.8987         0.136526   
    130. A(O   3,H   4,H  34)           54.3412         0.138135   
    131. A(H  34,H   4,O  36)          115.6201         0.113993   
    132. A(O  36,H   4,H  38)           25.0652         0.113190   
    133. A(H   7,H   4,H  38)           95.5795         0.098662   
    134. A(H   7,H   4,H  37)          117.7199         0.098964   
    135. A(H  37,H   4,H  38)           40.6283         0.098970   
    136. A(H   7,H   4,O  36)          119.8919         0.113175   
    137. A(O   3,H   4,O  36)          169.9584         0.207989   
    138. A(H  34,H   4,H  38)          118.3419         0.098989   
    139. A(O   3,H   4,H  38)          155.0060         0.136555   
    140. A(H   7,H   4,H  34)           75.3190         0.098983   
    141. A(O   3,H   4,H  37)          144.1985         0.138042   
    142. A(O  36,H   4,H  37)           25.8091         0.113946   
    143. A(H  16,H   5,H  34)           86.4862         0.098830   
    144. A(O   3,H   5,H  34)           53.8866         0.137796   
    145. A(O  15,H   5,H  34)          111.8152         0.112188   
    146. A(O   3,H   5,O  15)          158.9642         0.200159   
    147. A(O   3,H   5,H  16)          137.4990         0.136125   
    148. A(O  15,H   5,H  16)           25.3612         0.111394   
    149. A(H   7,O   6,H  11)          154.8534         0.196010   
    150. A(H   8,O   6,H  11)           94.4443         0.196010   
    151. A(H   7,O   6,H   8)          104.5200         0.322920   
    152. A(H  11,O   6,H  47)           88.9256         0.143433   
    153. A(H   8,O   6,H  47)          100.5670         0.207989   
    154. A(H   7,O   6,H  47)          103.3570         0.207989   
    155. A(O   3,H   7,O   6)          152.5881         0.195098   
    156. A(O   3,H   7,H  47)          110.7147         0.110569   
    157. A(O   3,H   7,H   4)           25.7222         0.110556   
    158. A(H   4,H   7,H  47)          108.6181         0.098662   
    159. A(O   6,H   7,H  47)           51.5778         0.136555   
    160. A(H   4,H   7,O   6)          131.3046         0.136526   
    161. A(O  27,H   8,H  28)           25.7501         0.113621   
    162. A(O   6,H   8,H  29)          143.6029         0.138135   
    163. A(H  29,H   8,H  47)           90.0301         0.099301   
    164. A(O  27,H   8,H  47)          115.8456         0.113745   
    165. A(H  11,H   8,H  47)           72.4119         0.099033   
    166. A(O   6,H   8,H  47)           53.6238         0.138042   
    167. A(H  11,H   8,H  29)          115.7622         0.099052   
    168. A(H  11,H   8,O  27)          119.4741         0.113146   
    169. A(O   6,H   8,O  27)          169.4679         0.207027   
    170. A(H  28,H   8,H  47)          118.1306         0.099230   
    171. A(O   6,H   8,H  28)          154.1966         0.137796   
    172. A(H  28,H   8,H  29)           40.9651         0.099250   
    173. A(H  11,H   8,H  28)           94.7941         0.098983   
    174. A(O   6,H   8,H  11)           59.7310         0.136856   
    175. A(O  27,H   8,H  29)           25.9093         0.113791   
    176. A(H   2,O   9,H  11)          106.3293         0.210327   
    177. A(H  10,O   9,H  11)          104.5200         0.322920   
    178. A(H   2,O   9,H  10)          107.0429         0.210327   
    179. A(O  12,H  10,H  13)           26.4234         0.112574   
    180. A(O   9,H  10,O  12)          163.5823         0.199990   
    181. A(H   2,H  10,O  12)          117.3437         0.111082   
    182. A(H   2,H  10,O   9)           48.6616         0.135539   
    183. A(O   9,H  10,H  13)          138.7954         0.138684   
    184. A(H   2,H  10,H  13)           90.9548         0.098885   
    185. A(H   2,H  11,O   6)          111.4908         0.110450   
    186. A(H   2,H  11,O   9)           49.1730         0.135888   
    187. A(O   6,H  11,O   9)          155.8908         0.196010   
    188. A(H   2,H  11,H   8)           85.7709         0.098592   
    189. A(O   6,H  11,H   8)           25.8247         0.110892   
    190. A(H   8,H  11,O   9)          132.9926         0.136856   
    191. A(H  10,O  12,H  13)           94.0515         0.199990   
    192. A(H  10,O  12,H  46)           92.1984         0.141742   
    193. A(H  14,O  12,H  46)          132.4145         0.200159   
    194. A(H  13,O  12,H  46)           98.6704         0.200159   
    195. A(H  13,O  12,H  14)          104.5200         0.322920   
    196. A(H  10,O  12,H  14)          126.2049         0.199990   
    197. A(O  39,H  13,H  40)           24.2954         0.113138   
    198. A(O  39,H  13,H  46)          116.6535         0.113442   
    199. A(H  10,H  13,H  40)           89.0388         0.098885   
    200. A(H  10,H  13,O  12)           59.5250         0.138684   
    201. A(O  12,H  13,H  40)          148.3721         0.135539   
    202. A(H  41,H  13,H  46)           92.9398         0.098446   
    203. A(H  10,H  13,H  41)          115.1104         0.098959   
    204. A(O  39,H  13,H  41)           24.4978         0.113319   
    205. A(H  10,H  13,H  46)           75.6211         0.099009   
    206. A(O  12,H  13,H  41)          148.8456         0.135888   
    207. A(O  12,H  13,H  46)           55.9685         0.136125   
    208. A(H  40,H  13,H  46)          116.4390         0.098376   
    209. A(H  10,H  13,O  39)          112.9500         0.114770   
    210. A(O  12,H  13,O  39)          169.5847         0.210326   
    211. A(H  40,H  13,H  41)           39.8750         0.098328   
    212. A(H  17,O  15,H  32)          126.2046         0.199990   
    213. A(H   5,O  15,H  32)           92.1983         0.141742   
    214. A(H  16,O  15,H  17)          104.5200         0.322920   
    215. A(H   5,O  15,H  17)          132.4150         0.200159   
    216. A(H  16,O  15,H  32)           94.0515         0.199990   
    217. A(H   5,O  15,H  16)           98.6702         0.200159   
    218. A(O  15,H  16,H  32)           59.5250         0.138684   
    219. A(O  15,H  16,H  23)          148.8456         0.135888   
    220. A(O  21,H  16,H  32)          112.9500         0.114770   
    221. A(H   5,H  16,H  32)           75.6211         0.099009   
    222. A(H  22,H  16,H  32)           89.0388         0.098885   
    223. A(O  15,H  16,H  22)          148.3721         0.135539   
    224. A(H   5,H  16,H  22)          116.4388         0.098376   
    225. A(H   5,H  16,H  23)           92.9397         0.098446   
    226. A(O  21,H  16,H  22)           24.2954         0.113138   
    227. A(H   5,H  16,O  21)          116.6534         0.113442   
    228. A(H   5,H  16,O  15)           55.9686         0.136125   
    229. A(H  22,H  16,H  23)           39.8751         0.098328   
    230. A(O  15,H  16,O  21)          169.5846         0.210327   
    231. A(O  21,H  16,H  23)           24.4978         0.113319   
    232. A(H  23,H  16,H  32)          115.1104         0.098959   
    233. A(H  19,O  18,H  20)          104.5200         0.322920   
    234. A(H  37,O  18,H  43)           92.3784         0.142533   
    235. A(H  20,O  18,H  43)           94.3792         0.195098   
    236. A(H  19,O  18,H  43)          154.9059         0.195098   
    237. A(H  20,O  18,H  37)           99.7495         0.207027   
    238. A(H  19,O  18,H  37)          100.3632         0.207027   
    239. A(O  24,H  19,H  25)           25.3611         0.111394   
    240. A(H  25,H  19,H  37)           86.4861         0.098830   
    241. A(O  18,H  19,H  37)           53.8867         0.137797   
    242. A(O  18,H  19,H  25)          137.4990         0.136125   
    243. A(O  24,H  19,H  37)          111.8150         0.112188   
    244. A(O  18,H  19,O  24)          158.9641         0.200159   
    245. A(O  33,H  20,H  35)           25.0652         0.113190   
    246. A(H  35,H  20,H  37)          118.3419         0.098989   
    247. A(O  18,H  20,H  35)          155.0060         0.136555   
    248. A(O  33,H  20,H  34)           25.8091         0.113946   
    249. A(H  34,H  20,H  37)           89.9066         0.099301   
    250. A(O  18,H  20,H  34)          144.1984         0.138042   
    251. A(O  33,H  20,H  37)          115.6200         0.113993   
    252. A(H  35,H  20,H  43)           95.5796         0.098662   
    253. A(O  18,H  20,O  33)          169.9583         0.207989   
    254. A(H  34,H  20,H  35)           40.6283         0.098970   
    255. A(H  37,H  20,H  43)           75.3190         0.098983   
    256. A(O  18,H  20,H  43)           59.8986         0.136526   
    257. A(O  18,H  20,H  37)           54.3412         0.138135   
    258. A(O  33,H  20,H  43)          119.8920         0.113175   
    259. A(H  34,H  20,H  43)          117.7200         0.098964   
    260. A(H  16,O  21,H  23)          106.3289         0.210327   
    261. A(H  16,O  21,H  22)          107.0429         0.210327   
    262. A(H  22,O  21,H  23)          104.5200         0.322920   
    263. A(H  16,H  22,O  24)          117.3437         0.111082   
    264. A(O  24,H  22,H  25)           26.4234         0.112574   
    265. A(O  21,H  22,H  25)          138.7954         0.138685   
    266. A(H  16,H  22,H  25)           90.9548         0.098885   
    267. A(O  21,H  22,O  24)          163.5824         0.199990   
    268. A(H  16,H  22,O  21)           48.6616         0.135539   
    269. A(O  21,H  23,H  34)          132.9929         0.136856   
    270. A(O  33,H  23,H  34)           25.8247         0.110892   
    271. A(H  16,H  23,O  33)          111.4907         0.110450   
    272. A(O  21,H  23,O  33)          155.8910         0.196010   
    273. A(H  16,H  23,O  21)           49.1733         0.135888   
    274. A(H  16,H  23,H  34)           85.7709         0.098592   
    275. A(H  25,O  24,H  26)          104.5200         0.322920   
    276. A(H  22,O  24,H  26)          126.2047         0.199990   
    277. A(H  19,O  24,H  22)           92.1983         0.141742   
    278. A(H  22,O  24,H  25)           94.0515         0.199990   
    279. A(H  19,O  24,H  26)          132.4148         0.200159   
    280. A(H  19,O  24,H  25)           98.6704         0.200159   
    281. A(H  22,H  25,O  30)          112.9500         0.114770   
    282. A(H  19,H  25,H  22)           75.6210         0.099009   
    283. A(H  22,H  25,H  32)           89.0388         0.098885   
    284. A(H  22,H  25,H  31)          115.1104         0.098959   
    285. A(O  24,H  25,H  31)          148.8457         0.135888   
    286. A(H  31,H  25,H  32)           39.8750         0.098328   
    287. A(H  22,H  25,O  24)           59.5250         0.138685   
    288. A(O  24,H  25,H  32)          148.3721         0.135539   
    289. A(O  30,H  25,H  32)           24.2954         0.113138   
    290. A(H  19,H  25,H  32)          116.4389         0.098376   
    291. A(O  30,H  25,H  31)           24.4978         0.113319   
    292. A(H  19,H  25,H  31)           92.9398         0.098446   
    293. A(H  19,H  25,O  30)          116.6535         0.113442   
    294. A(O  24,H  25,O  30)          169.5846         0.210326   
    295. A(H  19,H  25,O  24)           55.9685         0.136125   
    296. A(H  28,O  27,H  29)          104.5200         0.322920   
    297. A(H   8,O  27,H  38)           92.3783         0.142533   
    298. A(H  29,O  27,H  38)           94.3792         0.195098   
    299. A(H  28,O  27,H  38)          154.9058         0.195098   
    300. A(H   8,O  27,H  29)           99.7497         0.207027   
    301. A(H   8,O  27,H  28)          100.3635         0.207027   
    302. A(H   2,H  28,O  27)          137.4990         0.136126   
    303. A(O   0,H  28,O  27)          158.9643         0.200159   
    304. A(H   8,H  28,O  27)           53.8865         0.137796   
    305. A(H   2,H  28,H   8)           86.4864         0.098831   
    306. A(O   0,H  28,H   8)          111.8154         0.112188   
    307. A(O   0,H  28,H   2)           25.3613         0.111394   
    308. A(O  27,H  29,O  42)          169.9584         0.207989   
    309. A(H  43,H  29,H  44)           40.6283         0.098970   
    310. A(O  42,H  29,H  44)           25.8092         0.113946   
    311. A(H   8,H  29,H  38)           75.3189         0.098983   
    312. A(H  38,H  29,H  44)          117.7200         0.098964   
    313. A(H  38,H  29,H  43)           95.5796         0.098662   
    314. A(H  38,H  29,O  42)          119.8920         0.113175   
    315. A(O  27,H  29,H  44)          144.1985         0.138042   
    316. A(O  27,H  29,H  38)           59.8987         0.136526   
    317. A(O  42,H  29,H  43)           25.0652         0.113190   
    318. A(H   8,H  29,H  44)           89.9068         0.099301   
    319. A(H   8,H  29,H  43)          118.3421         0.098989   
    320. A(H   8,H  29,O  42)          115.6203         0.113993   
    321. A(O  27,H  29,H  43)          155.0060         0.136556   
    322. A(H   8,H  29,O  27)           54.3411         0.138135   
    323. A(H  31,O  30,H  32)          104.5200         0.322920   
    324. A(H  25,O  30,H  32)          107.0430         0.210326   
    325. A(H  25,O  30,H  31)          106.3288         0.210326   
    326. A(O  36,H  31,H  37)           25.8247         0.110892   
    327. A(O  30,H  31,H  37)          132.9927         0.136856   
    328. A(H  25,H  31,O  36)          111.4905         0.110450   
    329. A(O  30,H  31,O  36)          155.8908         0.196010   
    330. A(H  25,H  31,O  30)           49.1734         0.135888   
    331. A(H  25,H  31,H  37)           85.7707         0.098592   
    332. A(O  15,H  32,H  16)           26.4234         0.112574   
    333. A(H  16,H  32,H  25)           90.9547         0.098885   
    334. A(H  16,H  32,O  30)          138.7953         0.138684   
    335. A(O  15,H  32,H  25)          117.3437         0.111082   
    336. A(O  15,H  32,O  30)          163.5823         0.199990   
    337. A(H  25,H  32,O  30)           48.6616         0.135539   
    338. A(H  20,O  33,H  35)          103.3568         0.207989   
    339. A(H  20,O  33,H  34)          100.5672         0.207989   
    340. A(H  34,O  33,H  35)          104.5200         0.322920   
    341. A(H  23,O  33,H  35)          154.8533         0.196010   
    342. A(H  23,O  33,H  34)           94.4445         0.196010   
    343. A(H  20,O  33,H  23)           88.9254         0.143433   
    344. A(H   5,H  34,H  20)          118.1307         0.099230   
    345. A(H   4,H  34,H  20)           90.0302         0.099301   
    346. A(O   3,H  34,H  20)          115.8458         0.113745   
    347. A(H  20,H  34,O  33)           53.6236         0.138042   
    348. A(H   4,H  34,H   5)           40.9652         0.099250   
    349. A(O   3,H  34,H   5)           25.7501         0.113621   
    350. A(H   5,H  34,O  33)          154.1966         0.137796   
    351. A(O   3,H  34,H   4)           25.9093         0.113792   
    352. A(H   4,H  34,O  33)          143.6028         0.138135   
    353. A(O   3,H  34,O  33)          169.4680         0.207027   
    354. A(H  20,H  34,H  23)           72.4116         0.099033   
    355. A(H   5,H  34,H  23)           94.7942         0.098983   
    356. A(H   4,H  34,H  23)          115.7623         0.099052   
    357. A(O   3,H  34,H  23)          119.4742         0.113146   
    358. A(H  23,H  34,O  33)           59.7308         0.136856   
    359. A(O  33,H  35,O  45)          152.5882         0.195098   
    360. A(H  20,H  35,O  33)           51.5780         0.136555   
    361. A(O  45,H  35,H  47)           25.7222         0.110556   
    362. A(H  20,H  35,H  47)          108.6182         0.098662   
    363. A(O  33,H  35,H  47)          131.3046         0.136526   
    364. A(H  20,H  35,O  45)          110.7147         0.110569   
    365. A(H  37,O  36,H  38)          104.5200         0.322920   
    366. A(H   4,O  36,H  38)          103.3569         0.207989   
    367. A(H   4,O  36,H  37)          100.5672         0.207989   
    368. A(H   4,O  36,H  31)           88.9255         0.143433   
    369. A(H  31,O  36,H  38)          154.8532         0.196010   
    370. A(H  31,O  36,H  37)           94.4446         0.196010   
    371. A(H  19,H  37,H  20)           40.9652         0.099250   
    372. A(O  18,H  37,H  20)           25.9093         0.113792   
    373. A(H   4,H  37,H  20)           90.0303         0.099301   
    374. A(H  20,H  37,O  36)          143.6029         0.138135   
    375. A(O  18,H  37,H  19)           25.7502         0.113621   
    376. A(H   4,H  37,H  19)          118.1307         0.099230   
    377. A(H  19,H  37,O  36)          154.1967         0.137797   
    378. A(H   4,H  37,O  18)          115.8458         0.113745   
    379. A(O  18,H  37,O  36)          169.4680         0.207027   
    380. A(H   4,H  37,O  36)           53.6236         0.138042   
    381. A(H  20,H  37,H  31)          115.7625         0.099052   
    382. A(H  19,H  37,H  31)           94.7944         0.098983   
    383. A(O  18,H  37,H  31)          119.4745         0.113146   
    384. A(H   4,H  37,H  31)           72.4116         0.099033   
    385. A(H  31,H  37,O  36)           59.7307         0.136856   
    386. A(H   4,H  38,H  29)          108.6183         0.098662   
    387. A(H   4,H  38,O  27)          110.7148         0.110569   
    388. A(H   4,H  38,O  36)           51.5779         0.136555   
    389. A(O  27,H  38,H  29)           25.7222         0.110556   
    390. A(H  29,H  38,O  36)          131.3047         0.136526   
    391. A(O  27,H  38,O  36)          152.5883         0.195098   
    392. A(H  40,O  39,H  41)          104.5200         0.322920   
    393. A(H  13,O  39,H  41)          106.3288         0.210326   
    394. A(H  13,O  39,H  40)          107.0431         0.210326   
    395. A(H   2,H  40,O  39)          138.7952         0.138684   
    396. A(O   0,H  40,O  39)          163.5821         0.199990   
    397. A(H   2,H  40,H  13)           90.9546         0.098885   
    398. A(O   0,H  40,H  13)          117.3436         0.111082   
    399. A(H  13,H  40,O  39)           48.6615         0.135539   
    400. A(O   0,H  40,H   2)           26.4234         0.112574   
    401. A(O  42,H  41,H  44)           25.8247         0.110892   
    402. A(H  13,H  41,H  44)           85.7708         0.098592   
    403. A(O  39,H  41,H  44)          132.9929         0.136856   
    404. A(H  13,H  41,O  42)          111.4906         0.110450   
    405. A(O  39,H  41,O  42)          155.8910         0.196010   
    406. A(H  13,H  41,O  39)           49.1734         0.135888   
    407. A(H  43,O  42,H  44)          104.5200         0.322920   
    408. A(H  29,O  42,H  41)           88.9254         0.143433   
    409. A(H  41,O  42,H  44)           94.4447         0.196010   
    410. A(H  29,O  42,H  44)          100.5670         0.207989   
    411. A(H  41,O  42,H  43)          154.8532         0.196010   
    412. A(H  29,O  42,H  43)          103.3569         0.207989   
    413. A(O  18,H  43,H  20)           25.7222         0.110556   
    414. A(H  20,H  43,H  29)          108.6181         0.098662   
    415. A(H  20,H  43,O  42)          131.3046         0.136526   
    416. A(O  18,H  43,H  29)          110.7147         0.110569   
    417. A(O  18,H  43,O  42)          152.5882         0.195098   
    418. A(H  29,H  43,O  42)           51.5780         0.136556   
    419. A(H  46,H  44,H  47)           40.9652         0.099250   
    420. A(O  45,H  44,H  47)           25.9093         0.113791   
    421. A(H  29,H  44,H  47)           90.0301         0.099301   
    422. A(O  42,H  44,H  47)          143.6029         0.138135   
    423. A(O  45,H  44,H  46)           25.7502         0.113621   
    424. A(H  29,H  44,H  46)          118.1305         0.099230   
    425. A(O  42,H  44,H  46)          154.1965         0.137797   
    426. A(H  29,H  44,O  45)          115.8456         0.113745   
    427. A(O  42,H  44,O  45)          169.4679         0.207027   
    428. A(H  29,H  44,O  42)           53.6238         0.138042   
    429. A(H  41,H  44,H  47)          115.7624         0.099052   
    430. A(H  41,H  44,H  46)           94.7944         0.098983   
    431. A(H  41,H  44,O  45)          119.4744         0.113146   
    432. A(H  29,H  44,H  41)           72.4116         0.099033   
    433. A(H  41,H  44,O  42)           59.7306         0.136856   
    434. A(H  35,O  45,H  46)          154.9061         0.195098   
    435. A(H  44,O  45,H  47)           99.7497         0.207027   
    436. A(H  44,O  45,H  46)          100.3631         0.207027   
    437. A(H  46,O  45,H  47)          104.5200         0.322920   
    438. A(H  35,O  45,H  44)           92.3784         0.142533   
    439. A(H  35,O  45,H  47)           94.3791         0.195098   
    440. A(O  12,H  46,H  13)           25.3611         0.111394   
    441. A(H  13,H  46,H  44)           86.4861         0.098831   
    442. A(H  13,H  46,O  45)          137.4991         0.136125   
    443. A(O  12,H  46,H  44)          111.8150         0.112188   
    444. A(O  12,H  46,O  45)          158.9642         0.200159   
    445. A(H  44,H  46,O  45)           53.8867         0.137797   
    446. A(H  44,H  47,O  45)           54.3410         0.138135   
    447. A(H   7,H  47,H   8)           40.6283         0.098970   
    448. A(O   6,H  47,H   8)           25.8092         0.113946   
    449. A(H   8,H  47,H  44)           89.9068         0.099301   
    450. A(H   8,H  47,O  45)          144.1985         0.138042   
    451. A(O   6,H  47,H   7)           25.0651         0.113190   
    452. A(H   7,H  47,H  44)          118.3421         0.098989   
    453. A(H   7,H  47,O  45)          155.0061         0.136555   
    454. A(O   6,H  47,H  44)          115.6203         0.113993   
    455. A(O   6,H  47,O  45)          169.9584         0.207989   
    456. A(H   8,H  47,H  35)          117.7199         0.098964   
    457. A(H   7,H  47,H  35)           95.5796         0.098662   
    458. A(O   6,H  47,H  35)          119.8919         0.113175   
    459. A(H  35,H  47,H  44)           75.3190         0.098983   
    460. A(H  35,H  47,O  45)           59.8988         0.136526   
    461. D(O   9,H   2,O   0,H   1)    174.7230         0.526490   
    462. D(H  10,H   2,O   0,H   1)    136.0299         0.526490   
    463. D(O   9,H   2,O   0,H  28)    -47.1793         0.526490   
    464. D(O  36,H   4,O   3,H   5)    104.9355         0.526490   
    465. D(H   7,H   4,O   3,H  34)     93.1751         0.526490   
    466. D(H   7,H   4,O   3,H   5)   -163.3484         0.526490   
    467. D(H  34,H   5,O   3,H   7)    119.3384         0.463787   
    468. D(O  15,H   5,O   3,H   4)    -51.0049         0.463787   
    469. D(H  34,H   5,O   3,H   4)   -103.0141         0.463787   
    470. D(H  47,H   7,O   3,H   4)     90.0839         0.001675   
    471. D(O   6,H   7,H   4,O   3)   -154.0116         0.001518   
    472. D(O   6,H   7,H   4,O  36)     14.3913         0.001518   
    473. D(O   6,H   7,O   3,H   5)   -175.2071         0.001675   
    474. D(O   6,H   7,O   3,H   4)     45.6429         0.001675   
    475. D(H  47,H   7,O   6,H   8)   -104.8446         0.463787   
    476. D(H  47,H   7,O   6,H  11)    117.4165         0.463787   
    477. D(H  47,H   7,H   4,O   3)    -99.2470         0.001518   
    478. D(O   3,H   7,O   6,H   8)    -48.1319         0.463787   
    479. D(H  11,H   8,O   6,H  47)     89.7345         0.526490   
    480. D(O  27,H   8,O   6,H   7)    107.9412         0.526490   
    481. D(H  11,H   8,O   6,H   7)   -163.3433         0.526490   
    482. D(H  10,O   9,H   2,O   0)    -52.8235         0.002134   
    483. D(H  11,O   9,H   2,O   0)     58.4653         0.002134   
    484. D(H  10,O   9,H   2,H  11)   -111.2887         0.002134   
    485. D(O  12,H  10,O   9,H  11)    -77.7249         0.429907   
    486. D(H   2,H  10,O   9,H  11)   -112.5300         0.429907   
    487. D(O   9,H  10,H   2,H  11)     37.0592         0.001515   
    488. D(O  12,H  10,H   2,O   0)     -5.4789         0.001515   
    489. D(O   9,H  10,H   2,O   0)    164.0570         0.001515   
    490. D(O   9,H  11,H   2,H  10)    -36.7245         0.001516   
    491. D(O   6,H  11,H   2,O   0)      0.3115         0.001516   
    492. D(O   9,H  11,H   2,O   0)   -162.6723         0.001516   
    493. D(H   2,H  11,H   8,O   6)   -174.9259         0.001520   
    494. D(O   9,H  11,H   8,O  27)      8.1177         0.001520   
    495. D(O   9,H  11,H   8,O   6)   -159.7654         0.001520   
    496. D(H   2,H  11,O   6,H   7)    144.6718         0.001689   
    497. D(O   9,H  11,O   6,H   8)     38.2669         0.001689   
    498. D(O   6,H  11,O   9,H  10)     71.2327         0.429907   
    499. D(H   2,H  11,O   9,H  10)    113.0393         0.429907   
    500. D(O   9,H  11,O   6,H   7)    177.4992         0.001689   
    501. D(H  14,O  12,H  10,O   9)   -143.3131         0.001763   
    502. D(H  13,O  12,H  10,H   2)     -3.1610         0.001763   
    503. D(H  13,O  12,H  10,O   9)    -32.0076         0.001763   
    504. D(H  10,H  13,O  12,H  14)    129.0528         0.526490   
    505. D(H  10,H  13,O  12,H  46)    -92.8489         0.526490   
    506. D(O  12,H  13,H  10,O   9)    166.8553         0.001527   
    507. D(H  46,H  13,H  10,O   9)    108.1538         0.001527   
    508. D(O  12,H  13,H  10,H   2)    177.1921         0.001527   
    509. D(H  46,H  13,O  12,H  14)   -138.0983         0.526490   
    510. D(H  17,O  15,H   5,O   3)   -165.2133         0.001766   
    511. D(H  16,O  15,H   5,H  34)     -3.0448         0.001766   
    512. D(H  16,O  15,H   5,O   3)    -46.3423         0.001766   
    513. D(H   5,H  16,O  15,H  32)    -92.8488         0.526490   
    514. D(H  32,H  16,O  15,H  17)   -129.0525         0.526490   
    515. D(H  32,H  16,H   5,O   3)     94.6937         0.001517   
    516. D(O  15,H  16,H   5,H  34)    177.1681         0.001517   
    517. D(H   5,H  16,O  15,H  17)    138.0988         0.526490   
    518. D(O  15,H  16,H   5,O   3)    157.3943         0.001517   
    519. D(H  37,H  19,O  18,H  43)    119.3382         0.463787   
    520. D(H  37,H  19,O  18,H  20)   -103.0141         0.463787   
    521. D(O  24,H  19,O  18,H  20)    -51.0052         0.463787   
    522. D(H  37,H  20,O  18,H  43)    -93.1752         0.526490   
    523. D(H  37,H  20,O  18,H  19)    103.4764         0.526490   
    524. D(H  43,H  20,O  18,H  19)   -163.3484         0.526490   
    525. D(H  22,O  21,H  16,H   5)     95.6776         0.002134   
    526. D(H  22,O  21,H  16,O  15)     52.8236         0.002134   
    527. D(H  23,O  21,H  16,O  15)    -58.4650         0.002134   
    528. D(O  24,H  22,O  21,H  23)     77.7250         0.429907   
    529. D(H  16,H  22,O  21,H  23)    112.5296         0.429907   
    530. D(O  24,H  22,H  16,O  15)      5.4792         0.001515   
    531. D(O  21,H  22,H  16,O  15)   -164.0569         0.001515   
    532. D(O  21,H  22,H  16,H   5)    -96.6687         0.001515   
    533. D(H  16,H  23,O  21,H  22)   -113.0391         0.429907   
    534. D(O  33,H  23,H  16,O  15)     -0.3116         0.001516   
    535. D(O  21,H  23,H  16,H   5)    166.0647         0.001516   
    536. D(O  21,H  23,H  16,O  15)    162.6722         0.001516   
    537. D(O  33,H  23,O  21,H  22)    -71.2324         0.429907   
    538. D(H  26,O  24,H  22,O  21)    143.3125         0.001763   
    539. D(H  25,O  24,H  22,H  16)      3.1608         0.001763   
    540. D(H  25,O  24,H  22,O  21)     32.0070         0.001763   
    541. D(H  26,O  24,H  19,O  18)   -165.2131         0.001766   
    542. D(H  25,O  24,H  19,H  37)     -3.0449         0.001766   
    543. D(H  25,O  24,H  19,O  18)    -46.3421         0.001766   
    544. D(O  30,H  25,O  24,H  26)   -174.7219         0.526490   
    545. D(H  19,H  25,H  22,O  21)   -108.1540         0.001527   
    546. D(O  24,H  25,H  22,H  16)   -177.1923         0.001527   
    547. D(H  19,H  25,O  24,H  26)    138.0986         0.526490   
    548. D(O  24,H  25,H  22,O  21)   -166.8556         0.001527   
    549. D(O  30,H  25,H  19,O  18)    -14.0733         0.001517   
    550. D(O  24,H  25,H  19,H  37)    177.1680         0.001517   
    551. D(O  24,H  25,H  19,O  18)    157.3943         0.001517   
    552. D(H  19,H  25,O  24,H  22)    -92.8488         0.526490   
    553. D(H  29,O  27,H   8,O   6)     -6.1409         0.002023   
    554. D(H  28,O  27,H   8,H  11)     18.0557         0.002023   
    555. D(H  28,O  27,H   8,O   6)    100.7191         0.002023   
    556. D(H   2,H  28,O  27,H  29)     78.3068         0.463787   
    557. D(O   0,H  28,O  27,H  29)     51.0051         0.463787   
    558. D(O   0,H  28,H   8,O   6)      6.6271         0.001523   
    559. D(O  27,H  28,H   8,H  11)   -164.2896         0.001523   
    560. D(O  27,H  28,H   8,O   6)   -155.6319         0.001523   
    561. D(O   0,H  28,H   2,O   9)    171.4678         0.001517   
    562. D(O  27,H  28,H   2,O   9)     14.0734         0.001517   
    563. D(O   0,H  28,O  27,H   8)    -52.0092         0.463787   
    564. D(O  27,H  28,O   0,H   2)     46.3423         0.001766   
    565. D(O  27,H  28,O   0,H   1)    165.2124         0.001766   
    566. D(O  27,H  28,H   2,O   0)   -157.3944         0.001517   
    567. D(H   2,H  28,O   0,H   1)    118.8701         0.001766   
    568. D(H  43,H  29,O  27,H  28)    175.5110         0.526490   
    569. D(O  42,H  29,O  27,H   8)     -1.4586         0.526490   
    570. D(O  42,H  29,O  27,H  28)   -104.9354         0.526490   
    571. D(O  42,H  29,H   8,O   6)     -2.1704         0.001527   
    572. D(O  27,H  29,H   8,H  11)    104.8840         0.001527   
    573. D(O  27,H  29,H   8,O   6)    178.1116         0.001527   
    574. D(H  32,O  30,H  25,O  24)     52.8232         0.002134   
    575. D(H  31,O  30,H  25,H  19)    -15.6111         0.002134   
    576. D(H  31,O  30,H  25,O  24)    -58.4654         0.002134   
    577. D(O  36,H  31,O  30,H  32)    -71.2325         0.429907   
    578. D(H  25,H  31,O  30,H  32)   -113.0392         0.429907   
    579. D(O  36,H  31,H  25,O  24)     -0.3116         0.001516   
    580. D(O  30,H  31,H  25,H  19)    166.0647         0.001516   
    581. D(O  30,H  31,H  25,O  24)    162.6721         0.001516   
    582. D(H  25,H  32,H  16,O  15)   -177.1922         0.001527   
    583. D(O  30,H  32,H  16,H   5)   -108.1540         0.001527   
    584. D(O  30,H  32,H  16,O  15)   -166.8557         0.001527   
    585. D(H  25,H  32,O  15,H  16)      3.1608         0.001763   
    586. D(O  30,H  32,O  15,H  17)    143.3121         0.001763   
    587. D(O  30,H  32,O  15,H  16)     32.0066         0.001763   
    588. D(O  15,H  32,O  30,H  31)     77.7254         0.429907   
    589. D(H  25,H  32,O  30,H  31)    112.5295         0.429907   
    590. D(O  15,H  32,H  25,O  24)      5.4792         0.001515   
    591. D(O  30,H  32,H  25,H  19)    -96.6688         0.001515   
    592. D(O  30,H  32,H  25,O  24)   -164.0570         0.001515   
    593. D(H  34,O  33,H  23,H  16)     -5.4394         0.001689   
    594. D(H  35,O  33,H  23,O  21)   -177.5000         0.001689   
    595. D(H  34,O  33,H  23,O  21)    -38.2671         0.001689   
    596. D(H  35,O  33,H  20,O  18)    101.2427         0.002063   
    597. D(H  34,O  33,H  20,H  37)     -5.2869         0.002063   
    598. D(H  34,O  33,H  20,O  18)     -6.6015         0.002063   
    599. D(H   4,H  34,O  33,H  35)   -103.4232         0.526490   
    600. D(O   3,H  34,O  33,H  35)   -107.9413         0.526490   
    601. D(O   3,H  34,H  23,O  21)     -8.1178         0.001520   
    602. D(O  33,H  34,H  23,H  16)    174.9259         0.001520   
    603. D(O   3,H  34,H  20,O  18)     -2.1707         0.001527   
    604. D(O  33,H  34,H  20,H  37)    175.2341         0.001527   
    605. D(O  33,H  34,H  20,O  18)    178.0363         0.001527   
    606. D(O   3,H  34,H   5,O  15)   -162.2590         0.001523   
    607. D(O  33,H  34,H   5,O  15)     -6.6269         0.001523   
    608. D(O  33,H  34,H   5,O   3)    155.6321         0.001523   
    609. D(O   3,H  34,H   4,H   7)    -63.2483         0.001527   
    610. D(O  33,H  34,H  23,O  21)    159.7654         0.001520   
    611. D(O  33,H  34,H   4,H   7)    118.6401         0.001527   
    612. D(O  33,H  34,H   4,O   3)   -178.1116         0.001527   
    613. D(H   4,H  34,O   3,H   5)   -106.8599         0.002023   
    614. D(O   3,H  34,O  33,H  20)     -1.0193         0.526490   
    615. D(O  33,H  34,O   3,H   5)   -100.7188         0.002023   
    616. D(O  33,H  34,O   3,H   4)      6.1411         0.002023   
    617. D(O  45,H  35,O  33,H  34)     48.1319         0.463787   
    618. D(H  20,H  35,O  33,H  23)   -117.4157         0.463787   
    619. D(H  20,H  35,O  33,H  34)    104.8448         0.463787   
    620. D(O  45,H  35,H  20,O  18)     -0.4199         0.001518   
    621. D(O  33,H  35,H  20,H  37)    -90.3652         0.001518   
    622. D(O  33,H  35,H  20,O  18)   -156.1242         0.001518   
    623. D(H  38,O  36,H  31,O  30)   -177.5000         0.001689   
    624. D(H  37,O  36,H  31,H  25)     -5.4394         0.001689   
    625. D(H  37,O  36,H  31,O  30)    -38.2671         0.001689   
    626. D(H  38,O  36,H   4,O   3)    101.2424         0.002063   
    627. D(H  37,O  36,H   4,H   7)    -92.5050         0.002063   
    628. D(H  37,O  36,H   4,O   3)     -6.6017         0.002063   
    629. D(O  18,H  37,O  36,H  38)   -107.9405         0.526490   
    630. D(H   4,H  37,O  36,H  31)     89.7345         0.526490   
    631. D(H   4,H  37,O  36,H  38)   -106.9221         0.526490   
    632. D(O  36,H  37,H  31,H  25)    174.9259         0.001520   
    633. D(O  36,H  37,H  31,O  30)    159.7653         0.001520   
    634. D(H   4,H  37,H  20,O  18)   -175.2952         0.001527   
    635. D(O  36,H  37,H  20,H  43)    118.6399         0.001527   
    636. D(O  36,H  37,H  20,O  18)   -178.1118         0.001527   
    637. D(H   4,H  37,H  19,O  18)     91.6881         0.001523   
    638. D(O  36,H  37,H  19,O  24)     -6.6269         0.001523   
    639. D(O  36,H  37,H  19,O  18)    155.6321         0.001523   
    640. D(H   4,H  37,O  18,H  19)   -101.6307         0.002023   
    641. D(O  36,H  37,O  18,H  20)      6.1402         0.002023   
    642. D(H   4,H  37,H  31,O  30)    102.1347         0.001520   
    643. D(O  36,H  37,O  18,H  19)   -100.7196         0.002023   
    644. D(O  18,H  37,H   4,O   3)     -2.1706         0.001527   
    645. D(O  36,H  37,H   4,H   7)    101.9215         0.001527   
    646. D(O  36,H  37,H   4,O   3)    178.0362         0.001527   
    647. D(H  29,H  38,O  36,H  37)     23.7330         0.463787   
    648. D(O  27,H  38,O  36,H   4)    -56.7130         0.463787   
    649. D(O  27,H  38,O  36,H  37)     48.1318         0.463787   
    650. D(O  27,H  38,H  29,O  42)   -168.4029         0.001518   
    651. D(O  36,H  38,H  29,O  42)    -14.3912         0.001518   
    652. D(O  36,H  38,H  29,O  27)    154.0117         0.001518   
    653. D(H  29,H  38,O  27,H  28)   -139.1496         0.001675   
    654. D(O  36,H  38,O  27,H  29)    -45.6428         0.001675   
    655. D(O  36,H  38,O  27,H  28)    175.2076         0.001675   
    656. D(O  27,H  38,H   4,O   3)     -0.4201         0.001518   
    657. D(O  36,H  38,H   4,H   7)   -166.6775         0.001518   
    658. D(O  36,H  38,H   4,O   3)   -156.1243         0.001518   
    659. D(H  41,O  39,H  13,O  12)     58.4653         0.002134   
    660. D(H  40,O  39,H  13,H  10)    -10.7955         0.002134   
    661. D(H  40,O  39,H  13,O  12)    -52.8233         0.002134   
    662. D(H   2,H  40,O  39,H  41)    -98.7049         0.429907   
    663. D(O   0,H  40,O  39,H  13)     34.8047         0.429907   
    664. D(O   0,H  40,O  39,H  41)    -77.7248         0.429907   
    665. D(O   0,H  40,H  13,O  12)     -5.4790         0.001515   
    666. D(O  39,H  40,H  13,H  10)    170.0666         0.001515   
    667. D(O  39,H  40,H  13,O  12)    164.0569         0.001515   
    668. D(O   0,H  40,H   2,O   9)   -171.9271         0.001527   
    669. D(O  39,H  40,H   2,O   9)     -5.0718         0.001527   
    670. D(O  39,H  40,H   2,O   0)    166.8554         0.001527   
    671. D(H   2,H  40,O   0,H   1)   -111.3058         0.001763   
    672. D(O  39,H  40,O   0,H   2)    -32.0072         0.001763   
    673. D(O  39,H  40,O   0,H   1)   -143.3130         0.001763   
    674. D(O  42,H  41,O  39,H  40)     71.2329         0.429907   
    675. D(H  13,H  41,O  39,H  40)    113.0392         0.429907   
    676. D(O  42,H  41,H  13,O  12)      0.3118         0.001516   
    677. D(O  39,H  41,H  13,H  10)    -90.5747         0.001516   
    678. D(O  39,H  41,H  13,O  12)   -162.6722         0.001516   
    679. D(H  44,O  42,H  41,O  39)     38.2668         0.001689   
    680. D(H  43,O  42,H  41,H  13)    144.6727         0.001689   
    681. D(H  43,O  42,H  41,O  39)    177.5001         0.001689   
    682. D(H  44,O  42,H  29,O  27)      6.6013         0.002063   
    683. D(H  43,O  42,H  29,H  44)   -107.8441         0.002063   
    684. D(H  43,O  42,H  29,O  27)   -101.2428         0.002063   
    685. D(O  18,H  43,O  42,H  44)    -48.1317         0.463787   
    686. D(H  29,H  43,O  42,H  44)   -104.8445         0.463787   
    687. D(O  18,H  43,H  29,O  27)      0.4202         0.001518   
    688. D(O  42,H  43,H  29,H  44)     39.5285         0.001518   
    689. D(O  42,H  43,H  29,O  27)    156.1245         0.001518   
    690. D(H  29,H  43,H  20,O  18)    -99.2469         0.001518   
    691. D(O  42,H  43,H  20,H  37)    -97.0154         0.001518   
    692. D(O  42,H  43,H  20,O  18)   -154.0117         0.001518   
    693. D(H  29,H  43,O  18,H  19)   -130.7659         0.001675   
    694. D(H  29,H  43,O  42,H  41)    117.4155         0.463787   
    695. D(O  42,H  43,O  18,H  20)     45.6427         0.001675   
    696. D(O  42,H  43,O  18,H  19)   -175.2072         0.001675   
    697. D(O  45,H  44,O  42,H  43)    107.9411         0.526490   
    698. D(H  29,H  44,O  42,H  41)    -89.7345         0.526490   
    699. D(H  29,H  44,O  42,H  43)    106.9219         0.526490   
    700. D(H  29,H  44,H  41,O  39)   -102.1348         0.001520   
    701. D(O  42,H  44,H  41,H  13)   -174.9259         0.001520   
    702. D(O  42,H  44,H  41,O  39)   -159.7655         0.001520   
    703. D(O  45,H  44,H  29,O  27)      2.1706         0.001527   
    704. D(O  42,H  44,H  29,H  43)    -38.2664         0.001527   
    705. D(O  42,H  44,H  29,O  27)   -178.0363         0.001527   
    706. D(H  47,O  45,H  44,O  42)     -6.1409         0.002023   
    707. D(H  46,O  45,H  44,H  29)    101.6307         0.002023   
    708. D(H  46,O  45,H  44,O  42)    100.7190         0.002023   
    709. D(H  47,O  45,H  35,O  33)    -45.6429         0.001675   
    710. D(H  46,O  45,H  35,H  20)    130.7658         0.001675   
    711. D(H  46,O  45,H  35,O  33)    175.2071         0.001675   
    712. D(O  45,H  46,H  13,O  12)   -157.3942         0.001517   
    713. D(H  44,H  46,O  12,H  13)      3.0449         0.001766   
    714. D(O  45,H  46,O  12,H  14)    165.2132         0.001766   
    715. D(O  45,H  46,O  12,H  13)     46.3424         0.001766   
    716. D(O  12,H  46,O  45,H  47)     51.0051         0.463787   
    717. D(H  44,H  46,O  45,H  35)   -119.3382         0.463787   
    718. D(H  44,H  46,O  45,H  47)    103.0142         0.463787   
    719. D(O  12,H  46,H  44,O  42)      6.6270         0.001523   
    720. D(O  45,H  46,H  44,H  29)    -91.6880         0.001523   
    721. D(O  45,H  46,H  44,O  42)   -155.6321         0.001523   
    722. D(H  44,H  46,H  13,O  12)   -177.1680         0.001517   
    723. D(O  45,H  46,H  13,H  10)    -94.6936         0.001517   
    724. D(O   6,H  47,O  45,H  46)   -104.9348         0.526490   
    725. D(H  44,H  47,O  45,H  35)     93.1751         0.526490   
    726. D(O   6,H  47,H  44,O  42)     -2.1704         0.001527   
    727. D(O  45,H  47,H  44,H  29)    175.2951         0.001527   
    728. D(O  45,H  47,H  44,O  42)    178.1116         0.001527   
    729. D(H  44,H  47,H  35,O  33)     97.0155         0.001518   
    730. D(O  45,H  47,H  35,H  20)     99.2467         0.001518   
    731. D(O  45,H  47,H  35,O  33)    154.0116         0.001518   
    732. D(H  44,H  47,H   8,O   6)   -175.2341         0.001527   
    733. D(O  45,H  47,H   8,H  11)    117.0037         0.001527   
    734. D(O  45,H  47,H   8,O   6)   -178.0364         0.001527   
    735. D(H  44,H  47,H   7,O   6)     90.3653         0.001518   
    736. D(O  45,H  47,H   7,O   3)      0.4201         0.001518   
    737. D(O  45,H  47,H   7,O   6)    156.1243         0.001518   
    738. D(H  44,H  47,O  45,H  46)   -103.4764         0.526490   
    739. D(H  44,H  47,O   6,H   7)   -102.5572         0.002063   
    740. D(O  45,H  47,O   6,H   8)      6.6011         0.002063   
    741. D(O  45,H  47,O   6,H   7)   -101.2430         0.002063   
    -----------------------------------------------------------------

Number of atoms                         .... 48
Number of degrees of freedom            .... 741

         *************************************************************
         *                GEOMETRY OPTIMIZATION CYCLE   1            *
         *************************************************************
---------------------------------
CARTESIAN COORDINATES (ANGSTROEM)
---------------------------------
  O      3.686739    1.231877   -2.602948
  H      4.260541    1.768649   -3.149628
  H      3.097270    0.802567   -3.222990
  O     -2.201518    0.883694   -0.454678
  H     -1.569825    1.373469    0.071930
  H     -3.047773    1.067834   -0.047032
  O     -0.155397    0.413812   -2.296463
  H     -1.007699    0.637575   -1.922638
  H      0.473681    0.912736   -1.775342
  O      1.913319   -0.135776   -4.099866
  H      2.063158   -1.054698   -3.877688
  H      1.063949    0.070103   -3.709461
  O      2.477416   -2.622092   -2.978576
  H      3.140431   -2.209371   -2.425128
  H      2.916840   -3.387373   -3.349364
  O     -4.326808    1.232722    1.282199
  H     -4.181610    0.397449    1.726574
  H     -5.278916    1.327167    1.253882
  O      0.074989   -0.404095    2.380209
  H     -0.422486   -0.285178    3.189288
  H     -0.509241   -0.904575    1.810624
  O     -3.609672   -1.048950    2.521531
  H     -3.048030   -0.768518    3.244128
  H     -3.013788   -1.476424    1.906372
  O     -1.837340    0.157504    4.299330
  H     -2.056084    1.009363    3.921550
  H     -1.898470    0.291579    5.245120
  O      1.723257    1.550063   -0.679693
  H      2.449811    1.660735   -1.292965
  H      1.936933    0.752207   -0.195956
  O     -2.437375    2.412766    2.953965
  H     -1.697645    2.539013    2.359747
  H     -3.165692    2.169925    2.382288
  O     -1.631200   -1.561168    0.609156
  H     -1.899456   -0.758315    0.162279
  H     -1.054190   -2.001738   -0.014694
  O     -0.325953    2.002566    1.163007
  H     -0.105472    1.210488    1.653143
  H      0.424044    2.143850    0.585274
  O      4.133736   -1.228030   -1.375624
  H      4.150577   -0.346699   -1.748725
  H      3.647488   -1.132686   -0.556659
  O      2.112544   -0.855222    0.524294
  H      1.637838   -0.779698    1.352052
  H      1.531240   -1.364921   -0.040086
  O      0.403266   -2.029673   -1.245843
  H      1.020446   -2.443398   -1.849293
  H      0.142126   -1.221113   -1.686602

----------------------------
CARTESIAN COORDINATES (A.U.)
----------------------------
  NO LB      ZA    FRAG    MASS        X           Y           Z
   0 O     8.0000    0    15.999          6.966926715993258          2.327910274060078         -4.918859522242201
   1 H     1.0000    0     1.008          8.051256522719743          3.342262010266552         -5.951933946887635
   2 H     1.0000    0     1.008          5.852992610830854          1.516632665602276         -6.090568848106604
   3 O     8.0000    0    15.999         -4.160266193384352          1.669938758018124         -0.859217843982114
   4 H     1.0000    0     1.008         -2.966539838408985          2.595479337464882          0.135928057504740
   5 H     1.0000    0     1.008         -5.759457233222641          2.017914232229415         -0.088877353866187
   6 O     8.0000    0    15.999         -0.293658641306982          0.781991917848061         -4.339685882121540
   7 H     1.0000    0     1.008         -1.904274303946812          1.204842177629365         -3.633259539231747
   8 H     1.0000    0     1.008          0.895127364841952          1.724821110365270         -3.354909588232922
   9 O     8.0000    0    15.999          3.615649370362348         -0.256579304381201         -7.747623547829959
  10 H     1.0000    0     1.008          3.898803420933350         -1.993089901562943         -7.327768711840796
  11 H     1.0000    0     1.008          2.010571928103200          0.132474960940225         -7.009865772406886
  12 O     8.0000    0    15.999          4.681638515685106         -4.955035551178707         -5.628692701200752
  13 H     1.0000    0     1.008          5.934553965558610         -4.175105532412628         -4.582826833738372
  14 H     1.0000    0     1.008          5.512028681980557         -6.401206754315915         -6.329381230835598
  15 O     8.0000    0    15.999         -8.176482607593815          2.329506166677436          2.423004600139729
  16 H     1.0000    0     1.008         -7.902097320921219          0.751070215735140          3.262752217818826
  17 H     1.0000    0     1.008         -9.975706336557275          2.507982768690229          2.369493924404151
  18 O     8.0000    0    15.999          0.141708106138781         -0.763628523038943          4.497943151494568
  19 H     1.0000    0     1.008         -0.798382684237763         -0.538907695809770          6.026881751475463
  20 H     1.0000    0     1.008         -0.962325931677885         -1.709399244358952          3.421583567094078
  21 O     8.0000    0    15.999         -6.821292231379723         -1.982228946272628          4.765002480172009
  22 H     1.0000    0     1.008         -5.759941475544459         -1.452288019865575          6.130513557871989
  23 H     1.0000    0     1.008         -5.695234625999669         -2.790037622260913          3.602521197245599
  24 O     8.0000    0    15.999         -3.472069471590657          0.297638536825850          8.124556183762609
  25 H     1.0000    0     1.008         -3.885436046282569          1.907420112144690          7.410655142533658
  26 H     1.0000    0     1.008         -3.587587749855855          0.551003851690262          9.911840415142080
  27 O     8.0000    0    15.999          3.256483996232609          2.929194144584628         -1.284432699177532
  28 H     1.0000    0     1.008          4.629471699792403          3.138334519990323         -2.443349618464662
  29 H     1.0000    0     1.008          3.660273060932582          1.421465849628127         -0.370302947531537
  30 O     8.0000    0    15.999         -4.605970498673119          4.559466247140712          5.582184367859895
  31 H     1.0000    0     1.008         -3.208084991894765          4.798039107082231          4.459276331232725
  32 H     1.0000    0     1.008         -5.982291338982446          4.100564302402515          4.501872685811967
  33 O     8.0000    0    15.999         -3.082521345241391         -2.950179798966221          1.151137729376014
  34 H     1.0000    0     1.008         -3.589451681228048         -1.433008542518516          0.306663717663367
  35 H     1.0000    0     1.008         -1.992129996275956         -3.782737348856450         -0.027767692503623
  36 O     8.0000    0    15.999         -0.615961467893023          3.784301229513100          2.197764343888126
  37 H     1.0000    0     1.008         -0.199313421564078          2.287491507596738          3.123987001085662
  38 H     1.0000    0     1.008          0.801327217705117          4.051289258823507          1.106007252051184
  39 O     8.0000    0    15.999          7.811629120006452         -2.320640629903712         -2.599553114578083
  40 H     1.0000    0     1.008          7.843453865546990         -0.655166330979716         -3.304610502061942
  41 H     1.0000    0     1.008          6.892753094407977         -2.140467280589794         -1.051933078879731
  42 O     8.0000    0    15.999          3.992129643653060         -1.616135628266059          0.990772942932130
  43 H     1.0000    0     1.008          3.095065158345747         -1.473415781652439          2.555007507491701
  44 H     1.0000    0     1.008          2.893624207511055         -2.579325996266646         -0.075751051578311
  45 O     8.0000    0    15.999          0.762062658169853         -3.835525638982815         -2.354302453808081
  46 H     1.0000    0     1.008          1.928364211448598         -4.617352508150340         -3.494658010576303
  47 H     1.0000    0     1.008          0.268579197612430         -2.307568978495629         -3.187216538327998

--------------------------------
INTERNAL COORDINATES (ANGSTROEM)
--------------------------------
 O      0   0   0   0.000000     0.000     0.000
 H      1   0   0   0.957200     0.000     0.000
 H      1   2   0   0.957200   104.520     0.000
 O      3   1   2   5.978904   103.873   219.231
 H      4   3   1   0.957200    71.144     5.316
 H      4   3   1   0.957200   169.521    72.374
 O      4   3   1   2.792771    16.875   184.604
 H      7   4   3   0.957200    18.333   224.833
 H      7   4   3   0.957200    91.992   358.668
 O      3   1   2   1.746751   169.585   174.723
 H     10   3   1   0.957200   107.043   307.177
 H     10   3   1   0.957200   106.329    58.465
 O     11  10   3   1.853844   163.582    34.805
 H     13  11  10   0.957200    94.052   327.992
 H     13  11  10   0.957200   126.205   216.687
 O      6   4   5   1.852018   158.964   308.995
 H     16   6   4   0.957200    98.670   313.658
 H     16   6   4   0.957200   132.415   194.787
 O      5   4   3   3.345638   115.605   268.912
 H     19   5   4   0.957200   105.168   265.220
 H     19   5   4   0.957200    64.353     4.311
 O     17  16   6   1.746751   169.585    47.179
 H     22  17  16   0.957200   107.043    52.824
 H     22  17  16   0.957200   106.329   301.535
 O     20  19   5   1.852018   158.964    15.852
 H     25  20  19   0.957200    98.670   313.658
 H     25  20  19   0.957200   132.415   194.787
 O      9   7   4   1.779908   169.468    94.386
 H     28   9   7   0.957200   100.363   100.719
 H     28   9   7   0.957200    99.750   353.859
 O     26  25  20   1.746752   169.585    47.180
 H     31  26  25   0.957200   106.329   301.535
 H     31  26  25   0.957200   107.043    52.823
 O     21  19   5   1.770150   169.958     4.828
 H     34  21  19   0.957200   100.567   353.399
 H     34  21  19   0.957200   103.357   101.243
 O      5   4   3   1.770150   169.958   274.973
 H     37   5   4   0.957200   100.567   353.398
 H     37   5   4   0.957200   103.357   101.242
 O     14  13  11   1.746752   169.585    45.669
 H     40  14  13   0.957200   107.043   307.177
 H     40  14  13   0.957200   106.329    58.465
 O     30  28   9   1.770150   169.958   358.541
 H     43  30  28   0.957200   103.357   258.757
 H     43  30  28   0.957200   100.567     6.601
 O     45  43  30   1.779908   169.468     1.019
 H     46  45  43   0.957200   100.363   100.719
 H     46  45  43   0.957200    99.750   353.859

---------------------------
INTERNAL COORDINATES (A.U.)
---------------------------
 O      0   0   0   0.000000     0.000     0.000
 H      1   0   0   1.808846     0.000     0.000
 H      1   2   0   1.808846   104.520     0.000
 O      3   1   2  11.298491   103.873   219.231
 H      4   3   1   1.808846    71.144     5.316
 H      4   3   1   1.808846   169.521    72.374
 O      4   3   1   5.277572    16.875   184.604
 H      7   4   3   1.808846    18.333   224.833
 H      7   4   3   1.808846    91.992   358.668
 O      3   1   2   3.300881   169.585   174.723
 H     10   3   1   1.808846   107.043   307.177
 H     10   3   1   1.808846   106.329    58.465
 O     11  10   3   3.503257   163.582    34.805
 H     13  11  10   1.808846    94.052   327.992
 H     13  11  10   1.808846   126.205   216.687
 O      6   4   5   3.499807   158.964   308.995
 H     16   6   4   1.808846    98.670   313.658
 H     16   6   4   1.808846   132.415   194.787
 O      5   4   3   6.322340   115.605   268.912
 H     19   5   4   1.808846   105.168   265.220
 H     19   5   4   1.808846    64.353     4.311
 O     17  16   6   3.300882   169.585    47.179
 H     22  17  16   1.808846   107.043    52.824
 H     22  17  16   1.808846   106.329   301.535
 O     20  19   5   3.499807   158.964    15.852
 H     25  20  19   1.808846    98.670   313.658
 H     25  20  19   1.808846   132.415   194.787
 O      9   7   4   3.363539   169.468    94.386
 H     28   9   7   1.808846   100.363   100.719
 H     28   9   7   1.808846    99.750   353.859
 O     26  25  20   3.300882   169.585    47.180
 H     31  26  25   1.808846   106.329   301.535
 H     31  26  25   1.808846   107.043    52.823
 O     21  19   5   3.345099   169.958     4.828
 H     34  21  19   1.808846   100.567   353.399
 H     34  21  19   1.808846   103.357   101.243
 O      5   4   3   3.345099   169.958   274.973
 H     37   5   4   1.808846   100.567   353.398
 H     37   5   4   1.808846   103.357   101.242
 O     14  13  11   3.300883   169.585    45.669
 H     40  14  13   1.808846   107.043   307.177
 H     40  14  13   1.808846   106.329    58.465
 O     30  28   9   3.345098   169.958   358.541
 H     43  30  28   1.808846   103.357   258.757
 H     43  30  28   1.808846   100.567     6.601
 O     45  43  30   3.363538   169.468     1.019
 H     46  45  43   1.808846   100.363   100.719
 H     46  45  43   1.808846    99.750   353.859

---------------------
BASIS SET INFORMATION
---------------------
There are 2 groups of distinct atoms

 Group   1 Type O   : 7s4p1d contracted to 3s2p1d pattern {511/31/1}
 Group   2 Type H   : 4s1p contracted to 2s1p pattern {31/1}

Atom   0O    basis set group =>   1
Atom   1H    basis set group =>   2
Atom   2H    basis set group =>   2
Atom   3O    basis set group =>   1
Atom   4H    basis set group =>   2
Atom   5H    basis set group =>   2
Atom   6O    basis set group =>   1
Atom   7H    basis set group =>   2
Atom   8H    basis set group =>   2
Atom   9O    basis set group =>   1
Atom  10H    basis set group =>   2
Atom  11H    basis set group =>   2
Atom  12O    basis set group =>   1
Atom  13H    basis set group =>   2
Atom  14H    basis set group =>   2
Atom  15O    basis set group =>   1
Atom  16H    basis set group =>   2
Atom  17H    basis set group =>   2
Atom  18O    basis set group =>   1
Atom  19H    basis set group =>   2
Atom  20H    basis set group =>   2
Atom  21O    basis set group =>   1
Atom  22H    basis set group =>   2
Atom  23H    basis set group =>   2
Atom  24O    basis set group =>   1
Atom  25H    basis set group =>   2
Atom  26H    basis set group =>   2
Atom  27O    basis set group =>   1
Atom  28H    basis set group =>   2
Atom  29H    basis set group =>   2
Atom  30O    basis set group =>   1
Atom  31H    basis set group =>   2
Atom  32H    basis set group =>   2
Atom  33O    basis set group =>   1
Atom  34H    basis set group =>   2
Atom  35H    basis set group =>   2
Atom  36O    basis set group =>   1
Atom  37H    basis set group =>   2
Atom  38H    basis set group =>   2
Atom  39O    basis set group =>   1
Atom  40H    basis set group =>   2
Atom  41H    basis set group =>   2
Atom  42O    basis set group =>   1
Atom  43H    basis set group =>   2
Atom  44H    basis set group =>   2
Atom  45O    basis set group =>   1
Atom  46H    basis set group =>   2
Atom  47H    basis set group =>   2
-------------------------------
AUXILIARY BASIS SET INFORMATION
-------------------------------
There are 2 groups of distinct atoms

 Group   1 Type O   : 12s5p4d2f1g contracted to 6s4p3d1f1g pattern {711111/2111/211/2/1}
 Group   2 Type H   : 5s2p1d contracted to 3s1p1d pattern {311/2/1}

Atom   0O    basis set group =>   1
Atom   1H    basis set group =>   2
Atom   2H    basis set group =>   2
Atom   3O    basis set group =>   1
Atom   4H    basis set group =>   2
Atom   5H    basis set group =>   2
Atom   6O    basis set group =>   1
Atom   7H    basis set group =>   2
Atom   8H    basis set group =>   2
Atom   9O    basis set group =>   1
Atom  10H    basis set group =>   2
Atom  11H    basis set group =>   2
Atom  12O    basis set group =>   1
Atom  13H    basis set group =>   2
Atom  14H    basis set group =>   2
Atom  15O    basis set group =>   1
Atom  16H    basis set group =>   2
Atom  17H    basis set group =>   2
Atom  18O    basis set group =>   1
Atom  19H    basis set group =>   2
Atom  20H    basis set group =>   2
Atom  21O    basis set group =>   1
Atom  22H    basis set group =>   2
Atom  23H    basis set group =>   2
Atom  24O    basis set group =>   1
Atom  25H    basis set group =>   2
Atom  26H    basis set group =>   2
Atom  27O    basis set group =>   1
Atom  28H    basis set group =>   2
Atom  29H    basis set group =>   2
Atom  30O    basis set group =>   1
Atom  31H    basis set group =>   2
Atom  32H    basis set group =>   2
Atom  33O    basis set group =>   1
Atom  34H    basis set group =>   2
Atom  35H    basis set group =>   2
Atom  36O    basis set group =>   1
Atom  37H    basis set group =>   2
Atom  38H    basis set group =>   2
Atom  39O    basis set group =>   1
Atom  40H    basis set group =>   2
Atom  41H    basis set group =>   2
Atom  42O    basis set group =>   1
Atom  43H    basis set group =>   2
Atom  44H    basis set group =>   2
Atom  45O    basis set group =>   1
Atom  46H    basis set group =>   2
Atom  47H    basis set group =>   2
smp-n84.crc.pitt.edu.68345hfi_wait_for_device: The /dev/hfi1_0 device failed to appear after 15.0 seconds: Connection timed out
smp-n84.crc.pitt.edu.68343hfi_wait_for_device: The /dev/hfi1_0 device failed to appear after 15.0 seconds: Connection timed out
smp-n84.crc.pitt.edu.68347hfi_wait_for_device: The /dev/hfi1_0 device failed to appear after 15.0 seconds: Connection timed out
smp-n84.crc.pitt.edu.68354hfi_wait_for_device: The /dev/hfi1_0 device failed to appear after 15.0 seconds: Connection timed out
smp-n84.crc.pitt.edu.68349hfi_wait_for_device: The /dev/hfi1_0 device failed to appear after 15.0 seconds: Connection timed out
smp-n84.crc.pitt.edu.68358hfi_wait_for_device: The /dev/hfi1_0 device failed to appear after 15.0 seconds: Connection timed out
smp-n84.crc.pitt.edu.68344hfi_wait_for_device: The /dev/hfi1_0 device failed to appear after 15.0 seconds: Connection timed out
smp-n84.crc.pitt.edu.68348hfi_wait_for_device: The /dev/hfi1_0 device failed to appear after 15.0 seconds: Connection timed out
smp-n84.crc.pitt.edu.68351hfi_wait_for_device: The /dev/hfi1_0 device failed to appear after 15.0 seconds: Connection timed out
smp-n84.crc.pitt.edu.68355hfi_wait_for_device: The /dev/hfi1_0 device failed to appear after 15.0 seconds: Connection timed out
smp-n84.crc.pitt.edu.68359hfi_wait_for_device: The /dev/hfi1_0 device failed to appear after 15.0 seconds: Connection timed out
smp-n84.crc.pitt.edu.68346hfi_wait_for_device: The /dev/hfi1_0 device failed to appear after 15.0 seconds: Connection timed out


           ************************************************************
           *        Program running with 12 parallel MPI-processes    *
           *              working on a common directory               *
           ************************************************************
------------------------------------------------------------------------------
                           ORCA GTO INTEGRAL CALCULATION
                           -- RI-GTO INTEGRALS CHOSEN --
------------------------------------------------------------------------------

                         BASIS SET STATISTICS AND STARTUP INFO

Gaussian basis set:
 # of primitive gaussian shells          ...  352
 # of primitive gaussian functions       ...  608
 # of contracted shells                  ...  192
 # of contracted basis functions         ...  384
 Highest angular momentum                ...    2
 Maximum contraction depth               ...    5
Auxiliary gaussian basis set:
 # of primitive gaussian shells          ...  640
 # of primitive gaussian functions       ... 1632
 # of contracted shells                  ...  400
 # of contracted aux-basis functions     ... 1136
 Highest angular momentum                ...    4
 Maximum contraction depth               ...    7
Ratio of auxiliary to basis functions    ...  2.96
Integral package used                  ... LIBINT
 One Electron integrals                  ... done
 Ordering auxiliary basis shells         ... done
 Integral threshhold             Thresh  ...  2.500e-11
 Primitive cut-off               TCut    ...  2.500e-12
 Pre-screening matrix                    ... done
 Shell pair data                         ... 
 Ordering of the shell pairs             ... done (   0.002 sec) 13186 of 18528 pairs
 Determination of significant pairs      ... done (   0.000 sec)
 Creation of shell pair data             ... done (   0.002 sec)
 Storage of shell pair data              ... done (   0.002 sec)
 Shell pair data done in (   0.006 sec)
 Computing two index integrals           ... done
[...]
      dyz     :     0.002703
      dx2y2   :     0.006965
      dxy     :     0.000750
 10 H s       :     0.755241  s :     0.755241
      pz      :     0.053862  p :     0.204849
      px      :     0.034171
      py      :     0.116816
 11 H s       :     0.749109  s :     0.749109
      pz      :     0.063404  p :     0.197406
      px      :     0.100029
      py      :     0.033974
 12 O s       :     3.439136  s :     3.439136
      pz      :     1.600049  p :     4.647568
      px      :     1.587067
      py      :     1.460452
      dz2     :     0.000629  d :     0.014418
      dxz     :     0.004184
      dyz     :     0.002942
      dx2y2   :     0.002552
      dxy     :     0.004111
 13 H s       :     0.723092  s :     0.723092
      pz      :     0.088201  p :     0.245863
      px      :     0.102512
      py      :     0.055149
 14 H s       :     0.738316  s :     0.738316
      pz      :     0.051188  p :     0.174890
      px      :     0.048381
      py      :     0.075322
 15 O s       :     3.439430  s :     3.439430
      pz      :     1.729594  p :     4.647184
      px      :     1.388783
      py      :     1.528807
      dz2     :     0.002194  d :     0.014430
      dxz     :     0.000512
      dyz     :     0.002635
      dx2y2   :     0.008646
      dxy     :     0.000442
 16 H s       :     0.723915  s :     0.723915
      pz      :     0.065243  p :     0.244965
      px      :     0.028346
      py      :     0.151377
 17 H s       :     0.738412  s :     0.738412
      pz      :     0.046364  p :     0.174614
      px      :     0.089531
      py      :     0.038719
 18 O s       :     3.433418  s :     3.433418
      pz      :     1.382561  p :     4.648879
      px      :     1.599898
      py      :     1.666419
      dz2     :     0.001642  d :     0.013995
      dxz     :     0.007311
      dyz     :     0.001554
      dx2y2   :     0.001109
      dxy     :     0.002379
 19 H s       :     0.748537  s :     0.748537
      pz      :     0.095694  p :     0.208242
      px      :     0.070259
      py      :     0.042289
 20 H s       :     0.746520  s :     0.746520
      pz      :     0.072441  p :     0.226244
      px      :     0.086253
      py      :     0.067551
 21 O s       :     3.425151  s :     3.425151
      pz      :     1.409993  p :     4.639650
      px      :     1.596429
      py      :     1.633228
      dz2     :     0.000227  d :     0.015348
      dxz     :     0.008362
      dyz     :     0.002255
      dx2y2   :     0.001551
      dxy     :     0.002954
 22 H s       :     0.755607  s :     0.755607
      pz      :     0.078623  p :     0.204243
      px      :     0.072290
      py      :     0.053329
 23 H s       :     0.748296  s :     0.748296
      pz      :     0.068533  p :     0.199017
      px      :     0.075416
      py      :     0.055068
 24 O s       :     3.439402  s :     3.439402
      pz      :     1.333146  p :     4.647419
      px      :     1.776421
      py      :     1.537852
      dz2     :     0.008288  d :     0.014390
      dxz     :     0.000529
      dyz     :     0.001782
      dx2y2   :     0.002921
      dxy     :     0.000871
 25 H s       :     0.723984  s :     0.723984
      pz      :     0.049001  p :     0.245334
      px      :     0.043015
      py      :     0.153318
 26 H s       :     0.738446  s :     0.738446
      pz      :     0.088711  p :     0.174642
      px      :     0.048262
      py      :     0.037668
 27 O s       :     3.433048  s :     3.433048
      pz      :     1.542462  p :     4.648619
      px      :     1.549188
      py      :     1.556969
      dz2     :     0.000379  d :     0.014047
      dxz     :     0.005297
      dyz     :     0.002777
      dx2y2   :     0.004172
      dxy     :     0.001422
 28 H s       :     0.747959  s :     0.747959
      pz      :     0.077988  p :     0.207684
      px      :     0.094177
      py      :     0.035518
 29 H s       :     0.748454  s :     0.748454
      pz      :     0.060760  p :     0.224547
      px      :     0.039260
      py      :     0.124527
 30 O s       :     3.425286  s :     3.425286
      pz      :     1.557975  p :     4.639005
      px      :     1.342493
      py      :     1.738537
      dz2     :     0.000563  d :     0.015335
      dxz     :     0.009782
      dyz     :     0.001739
      dx2y2   :     0.002139
      dxy     :     0.001112
 31 H s       :     0.748685  s :     0.748685
      pz      :     0.072236  p :     0.197917
      px      :     0.079806
      py      :     0.045874
 32 H s       :     0.755191  s :     0.755191
      pz      :     0.070295  p :     0.204831
      px      :     0.078729
      py      :     0.055807
 33 O s       :     3.428267  s :     3.428267
      pz      :     1.561196  p :     4.645316
      px      :     1.629669
      py      :     1.454451
      dz2     :     0.000464  d :     0.014094
      dxz     :     0.004068
      dyz     :     0.005531
      dx2y2   :     0.002363
      dxy     :     0.001669
 34 H s       :     0.748461  s :     0.748461
      pz      :     0.059684  p :     0.224659
      px      :     0.042831
      py      :     0.122144
 35 H s       :     0.743301  s :     0.743301
      pz      :     0.076810  p :     0.201124
      px      :     0.076849
      py      :     0.047465
 36 O s       :     3.428715  s :     3.428715
      pz      :     1.562804  p :     4.645992
      px      :     1.537236
      py      :     1.545952
      dz2     :     0.000362  d :     0.014053
      dxz     :     0.005023
      dyz     :     0.002714
      dx2y2   :     0.004323
      dxy     :     0.001630
 37 H s       :     0.748918  s :     0.748918
      pz      :     0.061044  p :     0.224547
      px      :     0.038418
      py      :     0.125084
 38 H s       :     0.743545  s :     0.743545
      pz      :     0.070442  p :     0.199148
      px      :     0.092110
      py      :     0.036595
 39 O s       :     3.425126  s :     3.425126
      pz      :     1.413087  p :     4.639715
      px      :     1.740291
      py      :     1.486338
      dz2     :     0.002553  d :     0.015301
      dxz     :     0.004499
      dyz     :     0.003055
      dx2y2   :     0.004398
      dxy     :     0.000796
 40 H s       :     0.756036  s :     0.756036
      pz      :     0.046956  p :     0.204312
      px      :     0.043107
      py      :     0.114248
 41 H s       :     0.748194  s :     0.748194
      pz      :     0.093017  p :     0.197937
      px      :     0.071142
      py      :     0.033778
 42 O s       :     3.429642  s :     3.429642
      pz      :     1.366481  p :     4.646921
      px      :     1.609562
      py      :     1.670878
      dz2     :     0.002047  d :     0.014032
      dxz     :     0.007100
      dyz     :     0.001480
      dx2y2   :     0.001044
      dxy     :     0.002362
 43 H s       :     0.743736  s :     0.743736
      pz      :     0.093462  p :     0.199644
      px      :     0.064475
      py      :     0.041707
 44 H s       :     0.747797  s :     0.747797
      pz      :     0.071161  p :     0.224738
      px      :     0.086810
      py      :     0.066767
 45 O s       :     3.432101  s :     3.432101
      pz      :     1.567380  p :     4.647893
      px      :     1.616286
      py      :     1.464228
      dz2     :     0.000389  d :     0.014054
      dxz     :     0.004239
      dyz     :     0.005263
      dx2y2   :     0.002520
      dxy     :     0.001643
 46 H s       :     0.748542  s :     0.748542
      pz      :     0.077815  p :     0.208312
      px      :     0.083822
      py      :     0.046675
 47 H s       :     0.747595  s :     0.747595
      pz      :     0.060879  p :     0.225732
      px      :     0.041841
      py      :     0.123012


                      *****************************
                      * MAYER POPULATION ANALYSIS *
                      *****************************

  NA   - Mulliken gross atomic population
  ZA   - Total nuclear charge
  QA   - Mulliken gross atomic charge
  VA   - Mayer's total valence
  BVA  - Mayer's bonded valence
  FA   - Mayer's free valence

  ATOM       NA         ZA         QA         VA         BVA        FA
  0 O      8.3386     8.0000    -0.3386     2.1818     2.1818    -0.0000
  1 H      0.8155     1.0000     0.1845     0.9988     0.9988    -0.0000
  2 H      0.8286     1.0000     0.1714     1.0978     1.0978    -0.0000
  3 O      8.3296     8.0000    -0.3296     2.2048     2.2048     0.0000
  4 H      0.8595     1.0000     0.1405     1.1219     1.1219     0.0000
  5 H      0.8304     1.0000     0.1696     1.0895     1.0895     0.0000
  6 O      8.3241     8.0000    -0.3241     2.2127     2.2127    -0.0000
  7 H      0.8149     1.0000     0.1851     1.0707     1.0707    -0.0000
  8 H      0.8622     1.0000     0.1378     1.1278     1.1278    -0.0000
  9 O      8.3081     8.0000    -0.3081     2.1980     2.1980    -0.0000
 10 H      0.8507     1.0000     0.1493     1.1033     1.1033    -0.0000
 11 H      0.8281     1.0000     0.1719     1.0760     1.0760    -0.0000
 12 O      8.3408     8.0000    -0.3408     2.1803     2.1803     0.0000
 13 H      0.8283     1.0000     0.1717     1.0981     1.0981     0.0000
 14 H      0.8143     1.0000     0.1857     0.9983     0.9983     0.0000
 15 O      8.3412     8.0000    -0.3412     2.1782     2.1782    -0.0000
 16 H      0.8302     1.0000     0.1698     1.1005     1.1005    -0.0000
 17 H      0.8141     1.0000     0.1859     0.9980     0.9980    -0.0000
 18 O      8.3291     8.0000    -0.3291     2.2037     2.2037    -0.0000
 19 H      0.8317     1.0000     0.1683     1.0915     1.0915     0.0000
 20 H      0.8616     1.0000     0.1384     1.1233     1.1233     0.0000
 21 O      8.3076     8.0000    -0.3076     2.2015     2.2015    -0.0000
 22 H      0.8510     1.0000     0.1490     1.1026     1.1026     0.0000
 23 H      0.8264     1.0000     0.1736     1.0745     1.0745     0.0000
 24 O      8.3388     8.0000    -0.3388     2.1802     2.1802    -0.0000
 25 H      0.8318     1.0000     0.1682     1.1007     1.1007    -0.0000
 26 H      0.8143     1.0000     0.1857     0.9988     0.9988    -0.0000
 27 O      8.3308     8.0000    -0.3308     2.1963     2.1963     0.0000
 28 H      0.8302     1.0000     0.1698     1.0899     1.0899    -0.0000
 29 H      0.8664     1.0000     0.1336     1.1296     1.1296    -0.0000
 30 O      8.3072     8.0000    -0.3072     2.2006     2.2006     0.0000
 31 H      0.8267     1.0000     0.1733     1.0740     1.0740     0.0000
 32 H      0.8502     1.0000     0.1498     1.1014     1.1014     0.0000
 33 O      8.3262     8.0000    -0.3262     2.2064     2.2064     0.0000
 34 H      0.8683     1.0000     0.1317     1.1345     1.1345     0.0000
 35 H      0.8133     1.0000     0.1867     1.0689     1.0689     0.0000
 36 O      8.3267     8.0000    -0.3267     2.2041     2.2041     0.0000
 37 H      0.8701     1.0000     0.1299     1.1364     1.1364     0.0000
 38 H      0.8129     1.0000     0.1871     1.0683     1.0683     0.0000
 39 O      8.3096     8.0000    -0.3096     2.1960     2.1960    -0.0000
 40 H      0.8534     1.0000     0.1466     1.1055     1.1055    -0.0000
 41 H      0.8254     1.0000     0.1746     1.0747     1.0747    -0.0000
 42 O      8.3247     8.0000    -0.3247     2.2112     2.2112    -0.0000
 43 H      0.8135     1.0000     0.1865     1.0695     1.0695    -0.0000
 44 H      0.8654     1.0000     0.1346     1.1300     1.1300    -0.0000
 45 O      8.3302     8.0000    -0.3302     2.1978     2.1978     0.0000
 46 H      0.8314     1.0000     0.1686     1.0905     1.0905    -0.0000
 47 H      0.8660     1.0000     0.1340     1.1287     1.1287    -0.0000

  Mayer bond orders larger than 0.1
B(  0-O ,  1-H ) :   0.9756 B(  0-O ,  2-H ) :   0.7677 B(  0-O , 28-H ) :   0.1905 
B(  0-O , 40-H ) :   0.1937 B(  2-H ,  9-O ) :   0.3048 B(  3-O ,  4-H ) :   0.8291 
B(  3-O ,  5-H ) :   0.8766 B(  3-O ,  7-H ) :   0.1561 B(  3-O , 34-H ) :   0.2615 
B(  4-H , 36-O ) :   0.2531 B(  5-H , 15-O ) :   0.1919 B(  6-O ,  7-H ) :   0.8926 
B(  6-O ,  8-H ) :   0.8273 B(  6-O , 11-H ) :   0.1512 B(  6-O , 47-H ) :   0.2611 
B(  8-H , 27-O ) :   0.2564 B(  9-O , 10-H ) :   0.8968 B(  9-O , 11-H ) :   0.9124 
B( 10-H , 12-O ) :   0.1907 B( 12-O , 13-H ) :   0.7668 B( 12-O , 14-H ) :   0.9753 
B( 12-O , 46-H ) :   0.1931 B( 13-H , 39-O ) :   0.3060 B( 15-O , 16-H ) :   0.7666 
B( 15-O , 17-H ) :   0.9756 B( 15-O , 32-H ) :   0.1894 B( 16-H , 21-O ) :   0.3085 
B( 18-O , 19-H ) :   0.8748 B( 18-O , 20-H ) :   0.8274 B( 18-O , 37-H ) :   0.2622 
B( 18-O , 43-H ) :   0.1568 B( 19-H , 24-O ) :   0.1950 B( 20-H , 33-O ) :   0.2546 
B( 21-O , 22-H ) :   0.8979 B( 21-O , 23-H ) :   0.9113 B( 22-H , 24-O ) :   0.1890 
B( 23-H , 33-O ) :   0.1511 B( 24-O , 25-H ) :   0.7664 B( 24-O , 26-H ) :   0.9760 
B( 25-H , 30-O ) :   0.3080 B( 27-O , 28-H ) :   0.8774 B( 27-O , 29-H ) :   0.8268 
B( 27-O , 38-H ) :   0.1537 B( 29-H , 42-O ) :   0.2591 B( 30-O , 31-H ) :   0.9116 
B( 30-O , 32-H ) :   0.8970 B( 31-H , 36-O ) :   0.1507 B( 33-O , 34-H ) :   0.8267 
B( 33-O , 35-H ) :   0.8915 B( 35-H , 45-O ) :   0.1573 B( 36-O , 37-H ) :   0.8249 
B( 36-O , 38-H ) :   0.8936 B( 39-O , 40-H ) :   0.8950 B( 39-O , 41-H ) :   0.9101 
B( 41-H , 42-O ) :   0.1518 B( 42-O , 43-H ) :   0.8906 B( 42-O , 44-H ) :   0.8286 
B( 44-H , 45-O ) :   0.2548 B( 45-O , 46-H ) :   0.8768 B( 45-O , 47-H ) :   0.8257 


-------
TIMINGS
-------

Total SCF time: 0 days 0 hours 0 min 4 sec 

Total time                  ....       4.792 sec
Sum of individual times     ....       5.072 sec  (105.8%)

Fock matrix formation       ....       2.223 sec  ( 46.4%)
  Coulomb formation         ....       1.546 sec  ( 69.6% of F)
  Split-RI-J                ....       1.522 sec  ( 68.5% of F)
  XC integration            ....       0.657 sec  ( 29.6% of F)
    Basis function eval.    ....       0.216 sec  ( 32.9% of XC)
    Density eval.           ....       0.125 sec  ( 19.0% of XC)
    XC-Functional eval.     ....       0.034 sec  (  5.2% of XC)
    XC-Potential eval.      ....       0.185 sec  ( 28.2% of XC)
Diagonalization             ....       0.039 sec  (  0.8%)
Density matrix formation    ....       0.164 sec  (  3.4%)
Population analysis         ....       0.202 sec  (  4.2%)
Initial guess               ....       0.390 sec  (  8.1%)
Orbital Transformation      ....       0.000 sec  (  0.0%)
Orbital Orthonormalization  ....       0.382 sec  (  8.0%)
DIIS solution               ....       0.009 sec  (  0.2%)
SOSCF solution              ....       0.162 sec  (  3.4%)
Grid generation             ....       1.884 sec  ( 39.3%)
           ************************************************************
           *              Shut down parallel processing               *
           ************************************************************

Entering the calculation of the dispersion correction...

Checking the input atom types...

Done


-------------------------------------------------------------------------------
                          DFT DISPERSION CORRECTION                            
                                                                               
                                DFTD3 V2.1  Rev 6                               
                          USING Becke-Johnson damping                          
-------------------------------------------------------------------------------
The BP86 functional is recognized
Active option DFTDOPT                   ...         4   

molecular C6(AA) [au] = 11387.120070 


            DFT-D V3
 parameters
 s6 scaling factor         :     1.0000 
 a1 scaling factor         :     0.3946 
 s8 scaling factor         :     3.2822 
 a2 scaling factor         :     4.8516 
 ad hoc parameters k1-k3   :    16.0000     1.3333    -4.0000 

 Edisp/kcal,au: -36.909028498089  -0.058818274602 
 E6   /kcal   : -16.852026095 
 E8   /kcal   : -20.057002403 
 % E8         :  54.341724014 

-------------------------   ----------------
Dispersion correction           -0.058818275
-------------------------   ----------------


-------------------------   --------------------
FINAL SINGLE POINT ENERGY     -1222.268091467645
-------------------------   --------------------

                                *** OPTIMIZATION RUN DONE ***

                            ***************************************
                            *     ORCA property calculations      *
                            ***************************************

                                    ---------------------
                                    Active property flags
                                    ---------------------
   (+) Dipole Moment


------------------------------------------------------------------------------
                       ORCA ELECTRIC PROPERTIES CALCULATION
------------------------------------------------------------------------------

Dipole Moment Calculation                       ... on
Quadrupole Moment Calculation                   ... off
Polarizability Calculation                      ... off
GBWName                                         ... 4_BP86_16_h2o.gbw
Electron density file                           ... 4_BP86_16_h2o.scfp.tmp

-------------
DIPOLE MOMENT
-------------
                                X             Y             Z
Electronic contribution:     -0.00572       0.00805      -0.00830
Nuclear contribution   :      0.01192      -0.00611       0.01440
                        -----------------------------------------
Total Dipole Moment    :      0.00620       0.00193       0.00610
                        -----------------------------------------
Magnitude (a.u.)       :      0.00891
Magnitude (Debye)      :      0.02264

smp-n84.crc.pitt.edu.74300hfi_wait_for_device: The /dev/hfi1_0 device failed to appear after 15.0 seconds: Connection timed out
smp-n84.crc.pitt.edu.74302hfi_wait_for_device: The /dev/hfi1_0 device failed to appear after 15.0 seconds: Connection timed out
smp-n84.crc.pitt.edu.74304hfi_wait_for_device: The /dev/hfi1_0 device failed to appear after 15.0 seconds: Connection timed out
smp-n84.crc.pitt.edu.74305hfi_wait_for_device: The /dev/hfi1_0 device failed to appear after 15.0 seconds: Connection timed out
smp-n84.crc.pitt.edu.74306hfi_wait_for_device: The /dev/hfi1_0 device failed to appear after 15.0 seconds: Connection timed out
smp-n84.crc.pitt.edu.74303hfi_wait_for_device: The /dev/hfi1_0 device failed to appear after 15.0 seconds: Connection timed out
smp-n84.crc.pitt.edu.74308hfi_wait_for_device: The /dev/hfi1_0 device failed to appear after 15.0 seconds: Connection timed out
smp-n84.crc.pitt.edu.74311hfi_wait_for_device: The /dev/hfi1_0 device failed to appear after 15.0 seconds: Connection timed out
smp-n84.crc.pitt.edu.74314hfi_wait_for_device: The /dev/hfi1_0 device failed to appear after 15.0 seconds: Connection timed out
smp-n84.crc.pitt.edu.74301hfi_wait_for_device: The /dev/hfi1_0 device failed to appear after 15.0 seconds: Connection timed out
smp-n84.crc.pitt.edu.74307hfi_wait_for_device: The /dev/hfi1_0 device failed to appear after 15.0 seconds: Connection timed out
smp-n84.crc.pitt.edu.74309hfi_wait_for_device: The /dev/hfi1_0 device failed to appear after 15.0 seconds: Connection timed out

Timings for individual modules:

Sum of individual times         ...     1908.968 sec (=  31.816 min)
GTO integral calculation        ...      532.458 sec (=   8.874 min)  27.9 %
SCF iterations                  ...      720.124 sec (=  12.002 min)  37.7 %
SCF Gradient evaluation         ...      615.920 sec (=  10.265 min)  32.3 %
Geometry relaxation             ...       40.465 sec (=   0.674 min)   2.1 %
                             ****ORCA TERMINATED NORMALLY****
TOTAL RUN TIME: 0 days 0 hours 32 minutes 21 seconds 81 msec
cp: cannot stat ‘/scratch/slurm-1318589/*.{prop}’: No such file or directory
