18
Energy:   -141.21152635
O    1.79796484   1.01223008   0.17131212
H    0.97233915   1.24203740  -0.25502419
H    1.59782266   1.02981044   1.10718919
O   -0.66625872   1.30315401  -1.00275919
H   -0.76411668   0.37844826  -1.22986037
H   -0.77918771   1.76724827  -1.83227436
O    1.92514088  -1.54569651  -0.75458094
H    1.97466365  -0.65934020  -0.39659793
H    2.83665818  -1.79286827  -0.91038268
O   -0.66573050  -1.38269209  -1.58198597
H    0.24198340  -1.53026342  -1.31644870
H   -0.98712789  -2.24949893  -1.83014212
C   -2.15470179   0.43563182   2.04097502
H   -2.76126175   0.43657392   2.92244216
H   -2.24092153  -0.51100301   1.54970344
H   -2.48329621   1.21117134   1.38107862
C   -0.68468398   0.68052567   2.42914330
N    0.40981111   0.86286027   2.71815223
