18
Energy:   -141.30698496
O   -1.65758890  -0.56860117  -1.13675817
H   -1.10235984  -0.30493491  -1.87053787
H   -1.56856577   0.14155573  -0.50116087
O   -1.04206576   1.27754487   0.80537883
H   -1.67058210   1.54479036   1.47603442
H   -0.43065554   0.70217934   1.26512212
O    0.63849511  -0.58575734   1.91440992
H    0.32507561  -1.32224593   1.38944837
H    1.40532885  -0.92777428   2.37399916
O   -0.37496618  -2.50136472   0.25923529
H   -0.85908068  -1.88639840  -0.29183768
H   -0.78350513  -3.34990850   0.08805929
C    1.85446828   1.98035654  -0.91161445
H    2.82461003   2.22598463  -1.29028582
H    1.95660369   1.39094476  -0.02444975
H    1.32260247   2.88015563  -0.68274886
C    1.07667853   1.18010858  -1.97286197
N    0.49757870   0.58428760  -2.76300899
