18
Energy:   -141.19125681
O    0.45315438  -0.07457750   2.18777795
H    0.62445431   0.49593204   2.93704896
H   -0.48633830   0.01490605   2.02784658
O   -1.55566720  -0.81842318  -0.98708914
H   -0.67447144  -1.13157805  -0.78298154
H   -1.42231544  -0.14321808  -1.65233138
O    0.98653029  -1.43259198  -0.13396485
H    1.20349223  -2.32577280   0.13321935
H    0.89050555  -0.95265749   0.68863710
O   -2.16990987   0.10062784   1.48881073
H   -2.03626574  -0.19578871   0.58852837
H   -3.08500884  -0.10791443   1.67678901
C    2.08886842   1.50311851  -1.60384726
H    2.04106515   1.84212982  -0.59009859
H    2.65122437   2.20175686  -2.18742188
H    2.56494635   0.54546017  -1.63760222
C    0.66309833   1.38799060  -2.17439543
N   -0.39845231   1.30227263  -2.59919447
