18
Energy:   -141.22059598
O    1.00970466   1.11319414   1.36983290
H    0.89373484   0.37522925   1.96832322
H    1.26078654   0.71075169   0.53843058
O   -1.33733174   2.18246472   0.53210529
H   -1.44292039   3.05246016   0.91706090
H   -0.52556183   1.84816112   0.91355326
O   -1.18958717   0.65666314  -1.71677117
H   -1.31948242   1.21848613  -0.95275939
H   -2.04332832   0.63850363  -2.14923865
O    1.36601235  -0.08147170  -1.07860472
H    0.48244939   0.11850532  -1.38772852
H    1.94394323   0.33659456  -1.71692153
C    0.12074330  -2.96433855   0.16978134
H    1.04949247  -3.01403303  -0.35923248
H   -0.61590196  -2.49256345  -0.44640135
H   -0.20209146  -3.95397169   0.41737587
C    0.30889833  -2.14748572   1.46165948
N    0.44898830  -1.53930166   2.42352148
