18
Energy:   -141.21004092
O   -1.42432596  -0.90637964  -1.16563016
H   -1.20669505  -0.99662821  -0.23787813
H   -0.70539733  -1.34124017  -1.62418199
O   -0.20075835   1.84681908   1.22497011
H    0.13666432   2.72078666   1.42133319
H   -0.57918803   1.92680475   0.34939880
O   -1.27865373   1.80328283  -1.26740955
H   -1.89517870   2.13454336  -1.92039904
H   -1.36373408   0.85122878  -1.31826491
O   -0.59533938  -0.85096701   1.45527879
H   -0.40306003   0.08672054   1.45687792
H   -1.24303038  -0.96432089   2.15089299
C    2.66145056  -1.24687097   0.30101231
H    3.68659516  -1.51515744   0.15268462
H    2.27813317  -1.76221523   1.15680854
H    2.58823395  -0.19100131   0.45810359
C    1.84307489  -1.63869224  -0.94330973
N    1.23375700  -1.93042099  -1.86976405
