18
Energy:   -141.18948445
O    1.62848002   0.24248203  -0.42083786
H    1.33856084  -0.63772693  -0.18123214
H    2.56797836   0.24389056  -0.23760922
O   -0.75914589  -0.90094930   2.41562745
H   -0.60383476  -0.02055781   2.07354395
H   -0.92816651  -0.76955060   3.34857882
O   -0.12672699   1.47822505   1.29514244
H   -0.78338857   1.86041858   0.71294358
H    0.55417897   1.15135262   0.70713450
O    0.70286968  -2.15443839   0.49324792
H    0.36614845  -3.04223802   0.37215916
H    0.17958739  -1.79492717   1.20959921
C   -0.71973796   0.66987078  -2.99658561
H   -1.12265002  -0.32101205  -2.96987851
H    0.34338072   0.62577319  -2.88374421
H   -0.96029729   1.12758394  -3.93335076
C   -1.32371741   1.50070556  -1.84918752
N   -1.77340757   2.11929983  -0.99489748
