18
Energy:   -141.19292575
O    0.92728037   0.17466048  -1.76799040
H    0.98329906   1.10393617  -1.54541359
H    1.12772472  -0.28050934  -0.95014302
O   -1.53178733  -1.58077547   0.58659895
H   -2.42126939  -1.65487792   0.93237683
H   -1.64975544  -1.30188130  -0.32143927
O    1.15008575  -1.08525362   0.66522206
H    0.21322817  -1.26988468   0.73186360
H    1.56955058  -1.94235046   0.74049567
O   -1.62783440  -0.69462287  -1.98505193
H   -0.73621520  -0.34644948  -1.98977973
H   -1.82478818  -0.86254167  -2.90659647
C    0.80064054   2.02654799   2.23356624
H    1.34459105   1.11998466   2.39837206
H   -0.22366657   1.88270433   2.50743303
H    1.22258016   2.80895548   2.82913703
C    0.88471750   2.41226763   0.74502620
N    0.94731661   2.69945344  -0.36325951
