6
Energy:    -20.43189380
O   -0.25499082   1.32346829  -1.12760549
H   -0.47821169   0.66735168  -0.46736668
H    0.41002180   0.90061340  -1.67091370
O    0.03377485  -0.94519262   0.78742108
H    0.87344625  -0.74590000   1.20150591
H   -0.46324291  -1.40690247   1.46272043
