11
Energy:   -204.05643166
O    1.78540337  -0.85114901   0.46332351
H    0.91817305  -1.25408978   0.50553899
H    1.64101776  -0.01712591   0.01634463
O   -0.91860791  -1.50864796   0.59884328
H   -0.96963123  -1.08850508  -0.25970692
H   -0.98149116  -0.78623758   1.22366388
S   -0.43951577   1.53282159  -0.70568787
O    1.04541865   1.42696298  -0.64352911
O   -0.81896276   2.81574822  -1.36159887
O   -0.98626631   0.39189190  -1.49273507
O   -0.99825268   1.49668326   0.67511157
