40
Energy:  -1232.17324368
O    0.42893654   0.05708021  -2.35626372
H    0.09805968   0.03656367  -1.45830414
H    1.26063421  -0.41506650  -2.31641010
O   -2.90270425  -1.35048193   2.08270365
H   -3.22396537  -0.49168124   1.80795918
H   -1.95308365  -1.29720879   1.97493291
O   -1.05679593  -2.21236825  -2.72619870
H   -0.55838940  -1.39540417  -2.70638794
H   -1.71863200  -2.10635379  -2.04284974
O    0.98841136  -2.94474107  -1.01055842
H    0.90831682  -2.21900306  -0.39159069
H    0.24176287  -2.84061199  -1.60039315
O   -3.04958816   1.23362850   1.14669589
H   -2.35713984   0.84622718   0.61128261
H   -2.59636964   1.56557775   1.92170203
O   -2.75480227  -1.51399604  -0.69983313
H   -3.00815356  -1.78153516   0.18360775
H   -2.02342156  -0.91084552  -0.56745659
O    1.43077925   2.48454147  -1.59413327
H    1.04249798   1.69996657  -1.98131762
H    1.00862372   2.56412503  -0.73874855
O   -1.27270288   1.92029517   3.07850892
H   -0.82592549   2.40723490   2.38604123
H   -1.03554085   1.00647285   2.92066473
O    3.04169574   0.70126618  -0.29327215
H    2.30339044   0.15654657  -0.02047609
H    2.64100165   1.42466512  -0.77531993
O    2.82641680  -1.29878309  -2.17904779
H    3.01961851  -0.64611521  -1.50604736
H    2.26513344  -1.93765000  -1.73968245
O    2.07998548   0.93663544   2.30950963
H    2.64713139   0.90500731   1.53907013
H    1.34851068   0.35846964   2.09294379
O    0.29921726   2.39580904   0.86818639
H    0.98705857   2.06577051   1.44627008
H   -0.15087919   1.61012054   0.55780174
C   -0.25989629  -0.65557224   0.66103125
O   -0.34804265  -0.32612103   1.98792631
O    1.05781400  -0.70177516   0.28873609
O   -0.91374011   0.28762741  -0.08772964
