40
Energy:  -1232.25571981
O   -1.61804446   0.20574341   2.55989726
H   -1.45269904   0.03222403   1.63319139
H   -1.23207932  -0.54170816   3.01660167
O   -2.54087361   1.68848174  -0.44081589
H   -2.08516895   0.85178003  -0.34864558
H   -2.24985884   2.20436305   0.31112075
O   -0.72678778   1.49350441  -2.48217886
H   -0.32728181   0.71491252  -2.09433676
H   -1.44032560   1.71961959  -1.88554870
O    0.88712112  -3.35445284  -0.56458031
H    0.38131292  -3.20018676  -1.36244739
H    0.96753370  -2.49041899  -0.16058628
O   -1.62756697  -2.98631586   0.44182496
H   -0.76257441  -3.33798558   0.23123501
H   -1.52982478  -2.03843853   0.35123311
O   -0.36237309  -2.25027298   2.81532287
H   -1.02003363  -2.65465399   2.24946912
H    0.17622630  -1.72725074   2.22152973
O    2.92258570   0.28707705  -1.41546256
H    2.04714680  -0.09965856  -1.43201977
H    3.11774825   0.39945146  -0.48513175
O    1.71752004   2.62788054  -2.14021561
H    0.83579776   2.31260945  -2.33871450
H    2.21865696   1.83494350  -1.94957330
O   -1.42524764   2.85084874   1.81851441
H   -0.58232727   2.83508454   1.36522800
H   -1.52044040   1.96922138   2.17893552
O    0.94685644   2.45780478   0.47067159
H    1.22103186   2.69999095  -0.41386532
H    0.60864297   1.56679071   0.38157938
O    2.86288601   0.63752782   1.30155161
H    2.22133195  -0.05494100   1.14303610
H    2.38083248   1.45051686   1.15020737
O   -1.05797762  -2.43046922  -2.25275536
H   -1.58588543  -2.65102435  -1.48535675
H   -0.54777410  -1.66725856  -1.98176882
C    0.12165181  -0.24166618  -0.06654434
O    0.84599279  -1.03336549   0.78521896
O   -1.21529251  -0.48028336   0.11439902
O    0.46633932  -0.52953321  -1.36118843
