13
Energy:    -75.88805551
C    0.79453157   0.02899346   2.76896700
H    0.99319286  -0.93003501   2.33803976
H    0.89030005   0.78450160   2.01734546
H   -0.19960369   0.04330275   3.16442802
C    1.80158622   0.30131637   3.90178700
N    2.55138419   0.50407316   4.74522298
C   -0.82424851   0.04196643  -2.75602937
H   -1.41090762   0.85958144  -2.39238536
H    0.19233747   0.16694255  -2.44646031
H   -1.20728691  -0.87552482  -2.36056701
C   -0.89173299   0.00584132  -4.29412586
N   -0.94197825  -0.02105547  -5.43930862
Cl  -1.74757440  -0.90990379   0.75308630
