13
Energy:    -78.11182546
C    0.12654382   2.27184785  -2.68316435
H    0.02528587   1.22738334  -2.89230760
H   -0.81197466   2.66102208  -2.34756701
H    0.86425554   2.41312324  -1.92111332
C    0.56129196   3.01164635  -3.96194980
N    0.88498171   3.56245996  -4.91406369
C   -0.25892843  -2.25552274   2.68353982
H   -1.12670306  -1.63354594   2.75433698
H   -0.23240470  -2.72256207   1.72121460
H    0.61937919  -1.65862268   2.81463192
C   -0.31226250  -3.33760866   3.77800112
N   -0.35197213  -4.14327082   4.59287730
Cl   0.01250739   0.60365010   0.37556405
