13
Energy:    -76.40740999
C    0.26476342   2.48655263  -0.60651790
H    0.24064562   1.76041278  -1.39203647
H   -0.69108235   2.96135875  -0.53024804
H    0.49770151   2.00302895   0.31914067
C    1.33992361   3.54419986  -0.91798686
N    2.14042924   4.33166629  -1.14988967
C   -0.62753341  -2.62734462   0.64406435
H   -0.80399095  -1.88654811   1.39571816
H   -1.44435182  -3.31825908   0.62551741
H   -0.54010249  -2.15271314  -0.31091203
C    0.67620859  -3.38225334   0.96339116
N    1.64690377  -3.94431721   1.20114448
Cl  -2.69951474   0.22421623  -0.24138526
