13
Energy:    -75.06384809
C    0.89706258   2.07339594  -0.42847109
H    0.16248432   1.91506482  -1.19019691
H    1.72091584   1.40852528  -0.58375117
H    1.24243061   3.08523836  -0.47083785
C    0.27150042   1.80189396   0.95231081
N   -0.19425904   1.59974839   1.98036570
C   -0.58856013  -1.58002500   0.20182292
H    0.30095508  -1.46832833   0.78593483
H   -1.06131905  -0.62712074   0.08618734
H   -0.33598811  -1.97207537  -0.76119472
C   -1.55189428  -2.54799674   0.91359397
N   -2.26914034  -3.26869570   1.44353987
Cl   1.40581209  -0.41962486  -2.92930370
