13
Energy:    -77.02718818
C    2.49968930  -2.54082903  -0.62504512
H    2.61482529  -2.78395662   0.41058650
H    1.45956977  -2.53273189  -0.87601303
H    2.91958353  -1.57486396  -0.81345798
C    3.22664162  -3.59283037  -1.48320216
N    3.76789067  -4.37609318  -2.12213908
C   -2.47475222   2.47997330   0.90638564
H   -2.05645669   2.49361357   1.89114092
H   -1.69247892   2.34797957   0.18838478
H   -3.17231417   1.67257146   0.82633133
C   -3.19870741   3.81237126   0.63767656
N   -3.73772496   4.80440210   0.43761043
Cl  -0.15576581  -0.20960621   0.62174122
