13
Energy:    -77.42471942
C   -1.92789000  -2.46920819   0.57864321
H   -1.30960238  -2.85681395   1.36119185
H   -2.72304000  -1.89352555   1.00434860
H   -1.34128779  -1.84658935  -0.06411859
C   -2.51761010  -3.63600607  -0.23524432
N   -2.95668352  -4.50474012  -0.84122058
C    1.88399700   2.41665602  -0.40055259
H    1.88124703   2.43709278   0.66924878
H    2.30835597   1.49439906  -0.73857723
H    0.88023421   2.50088213  -0.76147545
C    2.72186477   3.59338242  -0.93430588
N    3.34569541   4.46950872  -1.33170946
Cl  -0.24528060   0.29496209   1.69377165
