13
Energy:    -76.06205115
C    2.42354655  -1.58344451   0.55631203
H    2.18403348  -0.81558488   1.26195023
H    1.95293047  -2.49808298   0.85102554
H    2.07308295  -1.29840770  -0.41365105
C    3.95001000  -1.78243296   0.51257503
N    5.08653143  -1.93058890   0.48001085
C   -2.62309084   1.42250964  -0.46376558
H   -1.81964755   1.59056956   0.22262710
H   -2.35031114   0.64759359  -1.14932771
H   -3.49845246   1.12858807   0.07683708
C   -2.91218159   2.71895850  -1.24302607
N   -3.12742280   3.68422360  -1.82322092
Cl  -1.33902850  -1.28390103   1.13165347
