13
Energy:    -76.50870220
C    0.79078219  -2.63918089  -1.69343117
H    0.13424515  -2.45238537  -0.86943680
H    0.54427279  -1.98289095  -2.50177251
H    1.80220670  -2.46678653  -1.38978707
C    0.63479853  -4.10071532  -2.15298116
N    0.51866161  -5.18889414  -2.49513702
C   -0.84255917   2.84825443   1.53736105
H   -0.10088847   2.07997147   1.46978846
H   -0.54419662   3.68542432   0.94152092
H   -1.77887073   2.47245492   1.18099820
C   -0.99184112   3.28997989   3.00507816
N   -1.10298832   3.61886457   4.09786026
Cl   0.93637744   0.83590359  -1.13006131
