13
Energy:    -77.80030094
C    0.73054897   3.30013460  -1.13323297
H   -0.31897245   3.12556119  -1.24693909
H    0.92769935   3.65650607  -0.14377342
H    1.26374372   2.38688277  -1.29624690
C    1.18992507   4.35288313  -2.15904686
N    1.53195146   5.13670226  -2.92281194
C   -0.75336831  -3.21479800   1.25439850
H   -1.67388564  -2.66998832   1.28142519
H   -0.28408543  -3.07518530   0.30298851
H   -0.10517018  -2.85843861   2.02753903
C   -1.03684925  -4.71274836   1.47207543
N   -1.24791370  -5.82804050   1.63414580
Cl  -0.22362359   0.40052907   0.92947873
