13
Energy:    -75.39932357
C    1.42955028   2.81882115   0.65387506
H    1.01907445   2.96343388  -0.32362017
H    1.02715025   1.92404517   1.08089877
H    2.49391398   2.73367435   0.58474454
C    1.06759516   4.02104536   1.54564042
N    0.79810312   4.91615592   2.20960027
C   -1.07792537  -2.91281805  -0.59402503
H   -0.74137034  -2.38874037  -1.46406725
H   -0.31057283  -3.57963166  -0.26021552
H   -1.30191276  -2.21016309   0.18121993
C   -2.34435492  -3.71868436  -0.93802458
N   -3.28726929  -4.31868845  -1.19414789
Cl   1.22801826  -0.24844986  -1.48187854
