13
Energy:    -74.65126477
C    0.60512481  -1.32184670  -1.27999842
H   -0.21995292  -0.68465037  -1.03890145
H    1.25186463  -0.82205955  -1.97053409
H    1.14794874  -1.55540780  -0.38798357
C    0.08053648  -2.62210192  -1.91697837
N   -0.31004338  -3.59020104  -2.39123889
C   -0.45749107   1.79434527   1.48719876
H    0.37064747   1.46616222   2.07997413
H   -0.66016646   2.82390682   1.69654251
H   -0.22066053   1.68121063   0.44988929
C   -1.69855157   0.94771236   1.82569768
N   -2.62257753   0.31735566   2.07772551
Cl   2.73332133   1.56557442  -0.63139308
