13
Energy:    -74.89969900
C   -2.19827108  -0.10109817   2.38417840
H   -1.74490119  -0.50871274   3.26349989
H   -1.60634899   0.71366350   2.02266664
H   -2.26032252  -0.85859466   1.63101986
C   -3.61340497   0.40314395   2.72290535
N   -4.66703648   0.77857513   2.97510297
C    2.09838128  -0.14157312  -2.37213574
H    1.60822096  -1.01624489  -2.74575632
H    1.37861409   0.63722519  -2.22963141
H    2.56872354  -0.36782575  -1.43806562
C    3.16283305   0.32204848  -3.38386566
N    3.95536579   0.66723584  -4.13714457
Cl   1.31814654  -0.52784276   1.30722622
