13
Energy:    -77.35814264
C   -1.76386503  -2.15049354  -2.08560784
H   -2.13770092  -1.18685390  -2.36227651
H   -0.71825212  -2.07899243  -1.87001489
H   -2.28391463  -2.49915643  -1.21792028
C   -1.98223949  -3.13851027  -3.24652797
N   -2.14482920  -3.87413363  -4.11088577
C    1.66490741   2.08869172   2.35337688
H    2.25557070   1.34167833   2.84121708
H    1.48078691   1.79323815   1.34159334
H    0.73324385   2.19892724   2.86791572
C    2.42069014   3.43041049   2.36691232
N    2.98340473   4.42938110   2.37699008
Cl  -0.50780236  -0.35418684   0.74522783
