13
Energy:    -77.00646335
C    1.64115690  -1.85008506   2.44714949
H    1.65880099  -2.78601818   1.92886572
H    2.51158216  -1.28345282   2.18988140
H    0.76454442  -1.30397946   2.16747409
C    1.62466752  -2.10455215   3.96589061
N    1.61239044  -2.29401446   5.09666241
C   -1.34842688   1.81050953  -2.57358921
H   -1.70117701   1.66813199  -1.57349114
H   -0.63932567   2.61161533  -2.59102662
H   -0.88015827   0.91214250  -2.91791505
C   -2.53526491   2.15541084  -3.49231582
N   -3.41891976   2.41220554  -4.17634955
Cl   0.71013008   0.05208640  -0.47123635
