13
Energy:    -74.90040360
C    2.22986236  -0.00346277  -0.44192555
H    3.25583388   0.11845234  -0.72016884
H    1.67488663   0.86234623  -0.73735033
H    1.82853303  -0.86762478  -0.92881143
C    2.12959457  -0.18130012   1.08448208
N    2.05494064  -0.31370811   2.22096194
C   -1.75294940   0.05747017   0.16015451
H   -1.36596352   0.89764832   0.69796747
H   -2.05461587   0.36845263  -0.81820449
H   -0.99494410  -0.69323547   0.07788611
C   -2.96670875  -0.51888667   0.91261783
N   -3.87040775  -0.94801054   1.47286098
Cl  -0.16806175   1.22185877  -2.98047028
