13
Energy:    -74.39719842
C    2.49058767   0.82671974  -2.47059873
H    3.15961647   1.59204959  -2.13657647
H    2.89624344  -0.13292972  -2.22684597
H    1.54281676   0.94620149  -1.98856814
C    2.30792657   0.93443051  -3.99592929
N    2.17192708   1.01462607  -5.13160722
C   -2.16752156  -0.61952667   2.63220667
H   -1.49210537  -0.46364958   3.44732353
H   -2.39359656   0.31950651   2.17176572
H   -1.71459398  -1.26953942   1.91301328
C   -3.46611640  -1.25984767   3.15684031
N   -4.43297929  -1.73659575   3.54745390
Cl   1.09779517  -0.15144512   1.08152241
