13
Energy:    -75.36187047
C    2.28654055   1.23302214   0.32383017
H    1.88118301   1.04730050  -0.64884290
H    1.51380308   1.13349045   1.05722592
H    3.06418787   0.52669520   0.52697050
C    2.86288694   2.66015906   0.37584052
N    3.29200302   3.72272736   0.41456459
C   -2.17872513  -1.35820654  -0.46678341
H   -1.83262445  -2.22730148   0.05262827
H   -1.74246576  -0.48428078  -0.02994177
H   -1.89522890  -1.42165375  -1.49659088
C   -3.71276415  -1.27384261  -0.36092022
N   -4.85492593  -1.21102982  -0.28210027
Cl   1.31612985  -2.34707972   0.53411948
