13
Energy:    -75.03051515
C    2.19222483  -0.45486247   0.24379092
H    1.26920886  -0.83463975  -0.14183963
H    2.04323512   0.53892435   0.61133535
H    2.53102660  -1.08294788   1.04104945
C    3.24749222  -0.43460372  -0.87763688
N    4.03318676  -0.41952016  -1.71259085
C   -2.37519220   0.47534625   0.14142043
H   -1.51766049   1.09812471  -0.00584301
H   -2.08097672  -0.42478357   0.63951946
H   -3.09485088   0.99480004   0.73904760
C   -2.99707778   0.12689910  -1.22365940
N   -3.46009985  -0.13253565  -2.24002337
Cl   0.20948354   0.54979875   2.78542993
