13
Energy:    -76.46102560
C   -1.37457819  -1.13155729  -3.03776032
H   -0.54630810  -0.61157543  -2.60360861
H   -1.40310291  -2.13324677  -2.66265551
H   -2.28430005  -0.62921865  -2.78288563
C   -1.21629396  -1.16125060  -4.56931653
N   -1.09844416  -1.18335861  -5.70962974
C    1.12039515   1.01909224   3.19398678
H    0.51737612   0.36326745   3.78657608
H    1.53086843   0.47705033   2.36778986
H    0.51814362   1.82439205   2.82835801
C    2.26431113   1.58409609   4.05644076
N    3.11600858   2.00476714   4.69857695
Cl  -1.14407565  -0.42245794   0.43412790
