13
Energy:    -75.19816018
C    0.09613287  -3.09872254  -0.27631456
H   -0.96502887  -3.23172673  -0.31016472
H    0.36807363  -2.24878310  -0.86669602
H    0.40390421  -2.94267861   0.73651622
C    0.78906169  -4.35516221  -0.83560788
N    1.30497869  -5.29063866  -1.25202718
C   -0.29094126   3.04309192   0.60312708
H   -0.72759949   2.71427278   1.52296823
H    0.47399619   2.35648120   0.30591418
H   -1.04535550   3.08635923  -0.15442568
C    0.32237571   4.44228177   0.79731786
N    0.77901807   5.48404222   0.94190172
Cl  -1.50861593   0.04118274  -1.21250923
