13
Energy:    -74.91441993
C   -2.19245566  -0.55796961   2.15923463
H   -2.20132661  -1.43008469   1.53936628
H   -2.19035365  -0.85169514   3.18812723
H   -1.31545133   0.01861936   1.95112970
C   -3.44494632   0.29011379   1.87006048
N   -4.37748255   0.92155043   1.65475718
C    2.36064235   0.43480511  -1.73660688
H    2.67333706  -0.57226153  -1.55511585
H    1.33757860   0.54872251  -1.44460949
H    2.97056482   1.10556229  -1.16829494
C    2.50521057   0.75488396  -3.23602328
N    2.61284819   0.99319722  -4.35240695
Cl   1.26183452  -1.65544371   1.13038190
