
                                 *****************
                                 * O   R   C   A *
                                 *****************

           --- An Ab Initio, DFT and Semiempirical electronic structure package ---

                  #######################################################
                  #                        -***-                        #
                  #          Department of theory and spectroscopy      #
                  #               Directorship: Frank Neese             #
                  #        Max Planck Institute fuer Kohlenforschung    #
                  #                Kaiser Wilhelm Platz 1               #
                  #                 D-45470 Muelheim/Ruhr               #
                  #                      Germany                        #
                  #                                                     #
                  #                  All rights reserved                #
                  #                        -***-                        #
                  #######################################################


                         Program Version 4.2.0 -  RELEASE  -


 With contributions from (in alphabetic order):
   Daniel Aravena         : Magnetic Suceptibility
   Michael Atanasov       : Ab Initio Ligand Field Theory (pilot matlab implementation)
   Alexander A. Auer      : GIAO ZORA, VPT2
   Ute Becker             : Parallelization
   Giovanni Bistoni       : ED, misc. LED, open-shell LED, HFLED
   Martin Brehm           : Molecular dynamics
   Dmytro Bykov           : SCF Hessian
   Vijay G. Chilkuri      : MRCI spin determinant printing, contributions to CSF-ICE
   Dipayan Datta          : RHF DLPNO-CCSD density
   Achintya Kumar Dutta   : EOM-CC, STEOM-CC
   Dmitry Ganyushin       : Spin-Orbit,Spin-Spin,Magnetic field MRCI
   Miquel Garcia          : C-PCM Hessian, Gaussian charge scheme
   Yang Guo               : DLPNO-NEVPT2, CIM, IAO-localization
   Andreas Hansen         : Spin unrestricted coupled pair/coupled cluster methods
   Benjamin Helmich-Paris : CASSCF linear response (MC-RPA)
   Lee Huntington         : MR-EOM, pCC
   Robert Izsak           : Overlap fitted RIJCOSX, COSX-SCS-MP3, EOM
   Christian Kollmar      : KDIIS, OOCD, Brueckner-CCSD(T), CCSD density
   Simone Kossmann        : Meta GGA functionals, TD-DFT gradient, OOMP2, MP2 Hessian
   Martin Krupicka        : AUTO-CI
   Lucas Lang             : DCDCAS
   Dagmar Lenk            : GEPOL surface, SMD
   Dimitrios Liakos       : Extrapolation schemes; Compound Job, initial MDCI parallelization
   Dimitrios Manganas     : Further ROCIS development; embedding schemes
   Dimitrios Pantazis     : SARC Basis sets
   Taras Petrenko         : DFT Hessian,TD-DFT gradient, ASA, ECA, R-Raman, ABS, FL, XAS/XES, NRVS
   Peter Pinski           : DLPNO-MP2, DLPNO-MP2 Gradient
   Christoph Reimann      : Effective Core Potentials
   Marius Retegan         : Local ZFS, SOC
   Christoph Riplinger    : Optimizer, TS searches, QM/MM, DLPNO-CCSD(T), (RO)-DLPNO pert. Triples
   Tobias Risthaus        : Range-separated hybrids, TD-DFT gradient, RPA, STAB
   Michael Roemelt        : Original ROCIS implementation
   Masaaki Saitow         : Open-shell DLPNO-CCSD energy and density
   Barbara Sandhoefer     : DKH picture change effects
   Avijit Sen             : IP-ROCIS
   Kantharuban Sivalingam : CASSCF convergence, NEVPT2, FIC-MRCI
   Bernardo de Souza      : ESD, SOC TD-DFT
   Georgi Stoychev        : AutoAux, RI-MP2 NMR
   Willem Van den Heuvel  : Paramagnetic NMR
   Boris Wezisla          : Elementary symmetry handling
   Frank Wennmohs         : Technical directorship


 We gratefully acknowledge several colleagues who have allowed us to
 interface, adapt or use parts of their codes:
   Stefan Grimme, W. Hujo, H. Kruse,             : VdW corrections, initial TS optimization,
                  C. Bannwarth                     DFT functionals, gCP, sTDA/sTD-DF
   Ed Valeev, F. Pavosevic, A. Kumar             : LibInt (2-el integral package), F12 methods
   Garnet Chan, S. Sharma, J. Yang, R. Olivares  : DMRG
   Ulf Ekstrom                                   : XCFun DFT Library
   Mihaly Kallay                                 : mrcc  (arbitrary order and MRCC methods)
   Andreas Klamt, Michael Diedenhofen            : otool_cosmo (COSMO solvation model)
   Jiri Pittner, Ondrej Demel                    : Mk-CCSD
   Frank Weinhold                                : gennbo (NPA and NBO analysis)
   Christopher J. Cramer and Donald G. Truhlar   : smd solvation model
   Lars Goerigk                                  : TD-DFT with DH, B97 family of functionals
   V. Asgeirsson, H. Jonsson                     : NEB implementation
   FAccTs GmbH                                   : IRC, NEB, NEB-TS, Multilevel, MM, QM/MM, CI optimization
   S Lehtola, MJT Oliveira, MAL Marques          : LibXC Library


 Your calculation uses the libint2 library for the computation of 2-el integrals
 For citations please refer to: http://libint.valeyev.net

 Your ORCA version has been built with support for libXC version: 4.2.3
 For citations please refer to: https://tddft.org/programs/libxc/

 This ORCA versions uses:
   CBLAS   interface :  Fast vector & matrix operations
   LAPACKE interface :  Fast linear algebra routines
   SCALAPACK package :  Parallel linear algebra routines


----- Orbital basis set information -----
Your calculation utilizes the basis: def2-TZVP
   F. Weigend and R. Ahlrichs, Phys. Chem. Chem. Phys. 7, 3297 (2005).

================================================================================
                                        WARNINGS
                       Please study these warnings very carefully!
================================================================================


WARNING: The frozen-core approximation for MP2-gradient calculations is turned on by default.

INFO   : the flag for use of LIBINT has been found!

================================================================================
                                       INPUT FILE
================================================================================
NAME = 12meoh.boyd.etal.mol5,11-orca.engrad-mp2.def2tzvp.frozencore.inp
|  1> # 12meoh.boyd.etal.mol5,11
|  2> ! MP2 def2-TZVP EnGrad TightSCF
|  3> 
|  4> %pal
|  5>     nprocs 6
|  6> end
|  7> 
|  8> %maxcore 8000
|  9> 
| 10> %scf
| 11>     ConvForced true
| 12> end
| 13> 
| 14> *xyz 0 1
| 15> O  -0.662721750   1.449094618  -1.383082065
| 16> H   0.064188300   2.119867608  -1.465650660
| 17> C  -0.353319239   0.341218776  -2.229326771
| 18> H  -1.072358530  -0.454743281  -2.019906495
| 19> H   0.657636746  -0.044472139  -2.042736771
| 20> H  -0.434616607   0.624733901  -3.287793021
| 21> O   3.252955559   0.588596242   1.858934315
| 22> H   3.621209177  -0.251605199   1.476063364
| 23> C   4.040824528   0.944288422   2.989639460
| 24> H   3.670521436   1.902573549   3.363847391
| 25> H   5.103749934   1.055868619   2.734277559
| 26> H   3.948540682   0.200279590   3.792908518
| 27> *
| 28> 
| 29>                          ****END OF INPUT****
================================================================================

                     *******************************
                     * Energy+Gradient Calculation *
                     *******************************

---------------------------------
CARTESIAN COORDINATES (ANGSTROEM)
---------------------------------
  O     -0.662722    1.449095   -1.383082
  H      0.064188    2.119868   -1.465651
  C     -0.353319    0.341219   -2.229327
  H     -1.072359   -0.454743   -2.019906
  H      0.657637   -0.044472   -2.042737
  H     -0.434617    0.624734   -3.287793
  O      3.252956    0.588596    1.858934
  H      3.621209   -0.251605    1.476063
  C      4.040825    0.944288    2.989639
  H      3.670521    1.902574    3.363847
  H      5.103750    1.055869    2.734278
  H      3.948541    0.200280    3.792909

----------------------------
CARTESIAN COORDINATES (A.U.)
----------------------------
  NO LB      ZA    FRAG     MASS         X           Y           Z
   0 O     8.0000    0    15.999   -1.252363    2.738392   -2.613646
   1 H     1.0000    0     1.008    0.121298    4.005969   -2.769678
   2 C     6.0000    0    12.011   -0.667677    0.644810   -4.212817
   3 H     1.0000    0     1.008   -2.026464   -0.859340   -3.817070
   4 H     1.0000    0     1.008    1.242753   -0.084040   -3.860213
   5 H     1.0000    0     1.008   -0.821306    1.180576   -6.213028
   6 O     8.0000    0    15.999    6.147195    1.112286    3.512877
   7 H     1.0000    0     1.008    6.843094   -0.475465    2.789356
   8 C     6.0000    0    12.011    7.636052    1.784447    5.649600
   9 H     1.0000    0     1.008    6.936280    3.595343    6.356750
  10 H     1.0000    0     1.008    9.644690    1.995303    5.167036
  11 H     1.0000    0     1.008    7.461661    0.378474    7.167558

--------------------------------
INTERNAL COORDINATES (ANGSTROEM)
--------------------------------
 O      0   0   0     0.000000000000     0.00000000     0.00000000
 H      1   0   0     0.992548335239     0.00000000     0.00000000
 C      1   2   0     1.428022723045   108.44077590     0.00000000
 H      3   1   2     1.092899789636   107.99441671   171.46274129
 H      3   1   2     1.098000598188   111.79589191    52.16996757
 H      3   1   2     1.098790649094   110.77151416   290.62940853
 O      5   3   1     4.728582512705   126.76520610    20.62451142
 H      7   5   3     0.994051987447    76.84190739   155.31643397
 C      7   5   3     1.423287941407   173.11403053   292.87131808
 H      9   7   8     1.093373833690   107.66487715   176.31545928
 H      9   7   8     1.098849516342   112.09953284    56.99608800
 H      9   7   8     1.098775058812   111.41155745   294.98563011

---------------------------
INTERNAL COORDINATES (A.U.)
---------------------------
 O      0   0   0     0.000000000000     0.00000000     0.00000000
 H      1   0   0     1.875644528280     0.00000000     0.00000000
 C      1   2   0     2.698571859572   108.44077590     0.00000000
 H      3   1   2     2.065281294231   107.99441671   171.46274129
 H      3   1   2     2.074920425457   111.79589191    52.16996757
 H      3   1   2     2.076413405301   110.77151416   290.62940853
 O      5   3   1     8.935725950662   126.76520610    20.62451142
 H      7   5   3     1.878486019156    76.84190739   155.31643397
 C      7   5   3     2.689624418973   173.11403053   292.87131808
 H      9   7   8     2.066177107669   107.66487715   176.31545928
 H      9   7   8     2.076524648278   112.09953284    56.99608800
 H      9   7   8     2.076383943937   111.41155745   294.98563011

---------------------
BASIS SET INFORMATION
---------------------
There are 3 groups of distinct atoms

 Group   1 Type O   : 11s6p2d1f contracted to 5s3p2d1f pattern {62111/411/11/1}
 Group   2 Type H   : 5s1p contracted to 3s1p pattern {311/1}
 Group   3 Type C   : 11s6p2d1f contracted to 5s3p2d1f pattern {62111/411/11/1}

Atom   0O    basis set group =>   1
Atom   1H    basis set group =>   2
Atom   2C    basis set group =>   3
Atom   3H    basis set group =>   2
Atom   4H    basis set group =>   2
Atom   5H    basis set group =>   2
Atom   6O    basis set group =>   1
Atom   7H    basis set group =>   2
Atom   8C    basis set group =>   3
Atom   9H    basis set group =>   2
Atom  10H    basis set group =>   2
Atom  11H    basis set group =>   2


           ************************************************************
           *        Program running with 6 parallel MPI-processes     *
           *              working on a common directory               *
           ************************************************************
------------------------------------------------------------------------------
                           ORCA GTO INTEGRAL CALCULATION
------------------------------------------------------------------------------

                         BASIS SET STATISTICS AND STARTUP INFO

 # of primitive gaussian shells          ...  128
 # of primitive gaussian functions       ...  248
 # of contracted shells                  ...   76
 # of contracted basis functions         ...  172
 Highest angular momentum                ...    3
 Maximum contraction depth               ...    6
 Integral package used                   ... LIBINT
 Integral threshhold            Thresh   ...  2.500e-11
 Primitive cut-off              TCut     ...  2.500e-12


------------------------------ INTEGRAL EVALUATION ----------------------------


 * One electron integrals 
 Pre-screening matrix                    ... done
 Shell pair data                         ... done (   0.001 sec)



           ************************************************************
           *        Program running with 6 parallel MPI-processes     *
           *              working on a common directory               *
           ************************************************************
-------------------------------------------------------------------------------
                                 ORCA SCF
-------------------------------------------------------------------------------

------------
SCF SETTINGS
------------
Hamiltonian:
 Ab initio Hamiltonian  Method          .... Hartree-Fock(GTOs)


General Settings:
 Integral files         IntName         .... 12meoh.boyd.etal.mol5,11-orca.engrad-mp2.def2tzvp.frozencore
 Hartree-Fock type      HFTyp           .... RHF
 Total Charge           Charge          ....    0
 Multiplicity           Mult            ....    1
 Number of Electrons    NEL             ....   36
 Basis Dimension        Dim             ....  172
 Nuclear Repulsion      ENuc            ....    108.7952785799 Eh

Convergence Acceleration:
 DIIS                   CNVDIIS         .... on
   Start iteration      DIISMaxIt       ....    12
   Startup error        DIISStart       ....  0.200000
   # of expansion vecs  DIISMaxEq       ....     5
   Bias factor          DIISBfac        ....   1.050
   Max. coefficient     DIISMaxC        ....  10.000
 Newton-Raphson         CNVNR           .... off
 SOSCF                  CNVSOSCF        .... on
   Start iteration      SOSCFMaxIt      ....   150
   Startup grad/error   SOSCFStart      ....  0.003300
 Level Shifting         CNVShift        .... on
   Level shift para.    LevelShift      ....    0.2500
   Turn off err/grad.   ShiftErr        ....    0.0010
 Zerner damping         CNVZerner       .... off
 Static damping         CNVDamp         .... on
   Fraction old density DampFac         ....    0.7000
   Max. Damping (<1)    DampMax         ....    0.9800
   Min. Damping (>=0)   DampMin         ....    0.0000
   Turn off err/grad.   DampErr         ....    0.1000
 Fernandez-Rico         CNVRico         .... off

SCF Procedure:
 Maximum # iterations   MaxIter         ....   125
 SCF integral mode      SCFMode         .... Direct
   Integral package                     .... LIBINT
 Reset frequency        DirectResetFreq ....    20
 Integral Threshold     Thresh          ....  2.500e-11 Eh
 Primitive CutOff       TCut            ....  2.500e-12 Eh

Convergence Tolerance:
 Convergence Check Mode ConvCheckMode   .... Total+1el-Energy
 Convergence forced     ConvForced      .... 1
 Energy Change          TolE            ....  1.000e-08 Eh
 1-El. energy change                    ....  1.000e-05 Eh
 Orbital Gradient       TolG            ....  1.000e-05
 Orbital Rotation angle TolX            ....  1.000e-05
 DIIS Error             TolErr          ....  5.000e-07


Diagonalization of the overlap matrix:
Smallest eigenvalue                        ... 1.659e-03
Time for diagonalization                   ...    0.005 sec
Threshold for overlap eigenvalues          ... 1.000e-08
Number of eigenvalues below threshold      ... 0
Time for construction of square roots      ...    0.002 sec
Total time needed                          ...    0.007 sec

-------------------
DFT GRID GENERATION
-------------------

General Integration Accuracy     IntAcc      ...  4.340
Radial Grid Type                 RadialGrid  ... Gauss-Chebyshev
Angular Grid (max. acc.)         AngularGrid ... Lebedev-110
Angular grid pruning method      GridPruning ... 3 (G Style)
Weight generation scheme         WeightScheme... Becke
Basis function cutoff            BFCut       ...    1.0000e-11
Integration weight cutoff        WCut        ...    1.0000e-14
Grids for H and He will be reduced by one unit

# of grid points (after initial pruning)     ...  13096 (   0.0 sec)
# of grid points (after weights+screening)   ...  12619 (   0.0 sec)
nearest neighbour list constructed           ...    0.0 sec
Grid point re-assignment to atoms done       ...    0.0 sec
Grid point division into batches done        ...    0.0 sec
Reduced shell lists constructed in    0.0 sec

Total number of grid points                  ...    12619
Total number of batches                      ...      202
Average number of points per batch           ...       62
Average number of grid points per atom       ...     1052
Average number of shells per batch           ...    41.40 (54.47%)
Average number of basis functions per batch  ...    89.29 (51.91%)
Average number of large shells per batch     ...    32.11 (77.57%)
Average number of large basis fcns per batch ...    73.89 (82.75%)
Maximum spatial batch extension              ...  17.61, 14.04, 17.25 au
Average spatial batch extension              ...   0.74,  0.67,  0.70 au

Time for grid setup =    0.073 sec

------------------------------
INITIAL GUESS: MODEL POTENTIAL
------------------------------
Loading Hartree-Fock densities                     ... done
Calculating cut-offs                               ... done
Setting up the integral package                    ... done
Initializing the effective Hamiltonian             ... done
Starting the Coulomb interaction                   ... done (   0.0 sec)
Reading the grid                                   ... done
Mapping shells                                     ... done
Starting the XC term evaluation                    ... done (   0.0 sec)
Transforming the Hamiltonian                       ... done (   0.0 sec)
Diagonalizing the Hamiltonian                      ... done (   0.0 sec)
Back transforming the eigenvectors                 ... done (   0.0 sec)
Now organizing SCF variables                       ... done
                      ------------------
                      INITIAL GUESS DONE (   0.3 sec)
                      ------------------
--------------
SCF ITERATIONS
--------------
ITER       Energy         Delta-E        Max-DP      RMS-DP      [F,P]     Damp
               ***  Starting incremental Fock matrix formation  ***
  0   -229.9378257998   0.000000000000 0.03635707  0.00094199  0.2885780 0.7000
  1   -230.0256304799  -0.087804680143 0.02495629  0.00069730  0.2178085 0.7000
                               ***Turning on DIIS***
  2   -230.0762127060  -0.050582226083 0.01467565  0.00042923  0.1628655 0.7000
  3   -230.6613602959  -0.585147589922 0.00750352  0.00023794  0.1200086 0.7000
  4   -230.5596446128   0.101715683095 0.01599205  0.00056639  0.0845956 0.0000
  5   -230.1992312532   0.360413359581 0.00196481  0.00007500  0.0057710 0.0000
                      *** Initiating the SOSCF procedure ***
                           *** Shutting down DIIS ***
                      *** Re-Reading the Fockian *** 
                      *** Removing any level shift *** 
ITER      Energy       Delta-E        Grad      Rot      Max-DP    RMS-DP
  6   -230.18231865   0.0169125997  0.000756  0.000756  0.000800  0.000038
               *** Restarting incremental Fock matrix formation ***
  7   -230.17886659   0.0034520602  0.000364  0.000330  0.000461  0.000021
  8   -230.17887114  -0.0000045506  0.000184  0.000213  0.000318  0.000014
  9   -230.17887226  -0.0000011142  0.000027  0.000028  0.000052  0.000002
 10   -230.17887229  -0.0000000333  0.000006  0.000012  0.000016  0.000001
                 **** Energy Check signals convergence ****
              ***Rediagonalizing the Fockian in SOSCF/NRSCF***

               *****************************************************
               *                     SUCCESS                       *
               *           SCF CONVERGED AFTER  11 CYCLES          *
               *****************************************************


----------------
TOTAL SCF ENERGY
----------------

Total Energy       :         -230.17887229 Eh           -6263.48554 eV

Components:
Nuclear Repulsion  :          108.79527858 Eh            2960.47004 eV
Electronic Energy  :         -338.97415087 Eh           -9223.95558 eV
One Electron Energy:         -530.30622592 Eh          -14430.36603 eV
Two Electron Energy:          191.33207504 Eh            5206.41045 eV

Virial components:
Potential Energy   :         -459.91822162 Eh          -12515.01106 eV
Kinetic Energy     :          229.73934932 Eh            6251.52552 eV
Virial Ratio       :            2.00191314


---------------
SCF CONVERGENCE
---------------

  Last Energy change         ...   -2.8771e-09  Tolerance :   1.0000e-08
  Last MAX-Density change    ...    3.4459e-06  Tolerance :   1.0000e-07
  Last RMS-Density change    ...    1.6310e-07  Tolerance :   5.0000e-09
  Last Orbital Gradient      ...    2.0254e-06  Tolerance :   1.0000e-05
  Last Orbital Rotation      ...    4.7389e-06  Tolerance :   1.0000e-05

             **** THE GBW FILE WAS UPDATED (12meoh.boyd.etal.mol5,11-orca.engrad-mp2.def2tzvp.frozencore.gbw) ****
             **** DENSITY FILE WAS UPDATED (12meoh.boyd.etal.mol5,11-orca.engrad-mp2.def2tzvp.frozencore.scfp) ****
             **** ENERGY FILE WAS UPDATED (12meoh.boyd.etal.mol5,11-orca.engrad-mp2.def2tzvp.frozencore.en.tmp) ****
             **** THE GBW FILE WAS UPDATED (12meoh.boyd.etal.mol5,11-orca.engrad-mp2.def2tzvp.frozencore.gbw) ****
             **** DENSITY FILE WAS UPDATED (12meoh.boyd.etal.mol5,11-orca.engrad-mp2.def2tzvp.frozencore.scfp) ****
----------------
ORBITAL ENERGIES
----------------

  NO   OCC          E(Eh)            E(eV) 
   0   2.0000     -20.558399      -559.4225 
   1   2.0000     -20.550157      -559.1982 
   2   2.0000     -11.272360      -306.7365 
   3   2.0000     -11.267067      -306.5925 
   4   2.0000      -1.347650       -36.6714 
   5   2.0000      -1.338487       -36.4221 
   6   2.0000      -0.920490       -25.0478 
   7   2.0000      -0.914858       -24.8946 
   8   2.0000      -0.682551       -18.5732 
   9   2.0000      -0.674555       -18.3556 
  10   2.0000      -0.617823       -16.8118 
  11   2.0000      -0.611174       -16.6309 
  12   2.0000      -0.591775       -16.1030 
  13   2.0000      -0.584716       -15.9109 
  14   2.0000      -0.500950       -13.6315 
  15   2.0000      -0.494680       -13.4609 
  16   2.0000      -0.450101       -12.2479 
  17   2.0000      -0.443242       -12.0612 
  18   0.0000       0.127419         3.4673 
  19   0.0000       0.145238         3.9521 
  20   0.0000       0.174344         4.7441 
  21   0.0000       0.181238         4.9317 
  22   0.0000       0.228229         6.2104 
  23   0.0000       0.230243         6.2652 
  24   0.0000       0.233355         6.3499 
  25   0.0000       0.235061         6.3963 
  26   0.0000       0.252878         6.8812 
  27   0.0000       0.262349         7.1389 
  28   0.0000       0.331172         9.0116 
  29   0.0000       0.337705         9.1894 
  30   0.0000       0.338865         9.2210 
  31   0.0000       0.344972         9.3872 
  32   0.0000       0.458319        12.4715 
  33   0.0000       0.467695        12.7266 
  34   0.0000       0.518311        14.1039 
  35   0.0000       0.527784        14.3617 
  36   0.0000       0.563234        15.3264 
  37   0.0000       0.580881        15.8066 
  38   0.0000       0.612916        16.6783 
  39   0.0000       0.617916        16.8144 
  40   0.0000       0.619482        16.8570 
  41   0.0000       0.628883        17.1128 
  42   0.0000       0.655797        17.8452 
  43   0.0000       0.667534        18.1645 
  44   0.0000       0.682282        18.5658 
  45   0.0000       0.690360        18.7857 
  46   0.0000       0.705171        19.1887 
  47   0.0000       0.713472        19.4145 
  48   0.0000       0.763866        20.7858 
  49   0.0000       0.773137        21.0381 
  50   0.0000       0.881269        23.9805 
  51   0.0000       0.887880        24.1604 
  52   0.0000       0.922668        25.1071 
  53   0.0000       0.927030        25.2258 
  54   0.0000       0.952997        25.9324 
  55   0.0000       0.960210        26.1286 
  56   0.0000       1.090349        29.6699 
  57   0.0000       1.095463        29.8091 
  58   0.0000       1.114978        30.3401 
  59   0.0000       1.122951        30.5571 
  60   0.0000       1.245066        33.8800 
  61   0.0000       1.249443        33.9991 
  62   0.0000       1.534577        41.7580 
  63   0.0000       1.541722        41.9524 
  64   0.0000       1.656638        45.0794 
  65   0.0000       1.666585        45.3501 
  66   0.0000       1.705142        46.3993 
  67   0.0000       1.708730        46.4969 
  68   0.0000       1.774294        48.2810 
  69   0.0000       1.778187        48.3869 
  70   0.0000       1.791488        48.7489 
  71   0.0000       1.792445        48.7749 
  72   0.0000       1.795949        48.8703 
  73   0.0000       1.799914        48.9782 
  74   0.0000       1.841108        50.0991 
  75   0.0000       1.853832        50.4453 
  76   0.0000       1.860828        50.6357 
  77   0.0000       1.868689        50.8496 
  78   0.0000       1.959953        53.3330 
  79   0.0000       1.967544        53.5396 
  80   0.0000       2.138475        58.1909 
  81   0.0000       2.144693        58.3601 
  82   0.0000       2.206820        60.0506 
  83   0.0000       2.212266        60.1988 
  84   0.0000       2.243386        61.0456 
  85   0.0000       2.249738        61.2185 
  86   0.0000       2.289192        62.2921 
  87   0.0000       2.296945        62.5031 
  88   0.0000       2.302552        62.6556 
  89   0.0000       2.310259        62.8654 
  90   0.0000       2.444418        66.5160 
  91   0.0000       2.455004        66.8041 
  92   0.0000       2.543410        69.2097 
  93   0.0000       2.550258        69.3960 
  94   0.0000       2.559396        69.6447 
  95   0.0000       2.562203        69.7211 
  96   0.0000       2.592646        70.5495 
  97   0.0000       2.606076        70.9149 
  98   0.0000       2.630570        71.5814 
  99   0.0000       2.634244        71.6814 
 100   0.0000       2.695179        73.3395 
 101   0.0000       2.702072        73.5271 
 102   0.0000       2.779144        75.6243 
 103   0.0000       2.785878        75.8076 
 104   0.0000       2.839361        77.2629 
 105   0.0000       2.846318        77.4523 
 106   0.0000       2.900446        78.9251 
 107   0.0000       2.905127        79.0525 
 108   0.0000       3.046290        82.8938 
 109   0.0000       3.050008        82.9949 
 110   0.0000       3.107925        84.5710 
 111   0.0000       3.110135        84.6311 
 112   0.0000       3.137221        85.3681 
 113   0.0000       3.153141        85.8013 
 114   0.0000       3.244571        88.2893 
 115   0.0000       3.249960        88.4359 
 116   0.0000       3.355057        91.2957 
 117   0.0000       3.361187        91.4625 
 118   0.0000       3.419940        93.0613 
 119   0.0000       3.424910        93.1965 
 120   0.0000       3.537002        96.2467 
 121   0.0000       3.540507        96.3421 
 122   0.0000       3.637989        98.9947 
 123   0.0000       3.647821        99.2623 
 124   0.0000       3.671014        99.8934 
 125   0.0000       3.677007       100.0565 
 126   0.0000       3.722957       101.3068 
 127   0.0000       3.730374       101.5086 
 128   0.0000       3.860055       105.0374 
 129   0.0000       3.864138       105.1486 
 130   0.0000       3.889081       105.8273 
 131   0.0000       3.893245       105.9406 
 132   0.0000       3.902732       106.1987 
 133   0.0000       3.905832       106.2831 
 134   0.0000       4.250578       115.6641 
 135   0.0000       4.258210       115.8718 
 136   0.0000       4.494655       122.3058 
 137   0.0000       4.504165       122.5646 
 138   0.0000       4.535429       123.4153 
 139   0.0000       4.538435       123.4971 
 140   0.0000       4.708854       128.1344 
 141   0.0000       4.717537       128.3707 
 142   0.0000       4.869961       132.5184 
 143   0.0000       4.876725       132.7024 
 144   0.0000       5.691612       154.8766 
 145   0.0000       5.697423       155.0348 
 146   0.0000       5.767036       156.9290 
 147   0.0000       5.770375       157.0199 
 148   0.0000       5.878510       159.9624 
 149   0.0000       5.888383       160.2311 
 150   0.0000       6.166594       167.8016 
 151   0.0000       6.169950       167.8929 
 152   0.0000       6.171207       167.9271 
 153   0.0000       6.171497       167.9350 
 154   0.0000       6.319567       171.9642 
 155   0.0000       6.320816       171.9982 
 156   0.0000       6.662596       181.2985 
 157   0.0000       6.672614       181.5710 
 158   0.0000       6.947104       189.0403 
 159   0.0000       6.954980       189.2546 
 160   0.0000       7.149673       194.5525 
 161   0.0000       7.157109       194.7548 
 162   0.0000       7.216784       196.3787 
 163   0.0000       7.223971       196.5742 
 164   0.0000       7.458976       202.9691 
 165   0.0000       7.466345       203.1696 
 166   0.0000       7.590542       206.5492 
 167   0.0000       7.597385       206.7354 
 168   0.0000      23.355767       635.5427 
 169   0.0000      23.360531       635.6724 
 170   0.0000      45.146108      1228.4881 
 171   0.0000      45.153596      1228.6918 

                    ********************************
                    * MULLIKEN POPULATION ANALYSIS *
                    ********************************

-----------------------
MULLIKEN ATOMIC CHARGES
-----------------------
   0 O :   -0.545609
   1 H :    0.331208
   2 C :   -0.073514
   3 H :    0.107351
   4 H :    0.091520
   5 H :    0.088944
   6 O :   -0.544968
   7 H :    0.328577
   8 C :   -0.074982
   9 H :    0.109448
  10 H :    0.090328
  11 H :    0.091698
Sum of atomic charges:   -0.0000000

--------------------------------
MULLIKEN REDUCED ORBITAL CHARGES
--------------------------------
  0 O s       :     3.804088  s :     3.804088
      pz      :     1.731665  p :     4.707556
      px      :     1.610532
      py      :     1.365358
      dz2     :     0.005433  d :     0.032234
      dxz     :     0.003713
      dyz     :     0.007658
      dx2y2   :     0.003461
      dxy     :     0.011970
      f0      :     0.000201  f :     0.001731
      f+1     :     0.000163
      f-1     :     0.000327
      f+2     :     0.000279
      f-2     :     0.000192
      f+3     :     0.000219
      f-3     :     0.000351
  1 H s       :     0.625735  s :     0.625735
      pz      :     0.012212  p :     0.043058
      px      :     0.015434
      py      :     0.015412
  2 C s       :     3.193814  s :     3.193814
      pz      :     0.900687  p :     2.755830
      px      :     1.031353
      py      :     0.823790
      dz2     :     0.040020  d :     0.115009
      dxz     :     0.006874
      dyz     :     0.018051
      dx2y2   :     0.017301
      dxy     :     0.032762
      f0      :     0.001282  f :     0.008862
      f+1     :     0.000395
      f-1     :     0.002553
      f+2     :     0.001012
      f-2     :     0.001273
      f+3     :     0.001204
      f-3     :     0.001143
  3 H s       :     0.871518  s :     0.871518
      pz      :     0.003418  p :     0.021131
      px      :     0.008408
      py      :     0.009304
  4 H s       :     0.888473  s :     0.888473
      pz      :     0.003172  p :     0.020007
      px      :     0.012698
      py      :     0.004137
  5 H s       :     0.890907  s :     0.890907
      pz      :     0.013663  p :     0.020150
      px      :     0.003422
      py      :     0.003065
  6 O s       :     3.804909  s :     3.804909
      pz      :     1.513178  p :     4.705788
      px      :     1.683351
      py      :     1.509259
      dz2     :     0.005789  d :     0.032536
      dxz     :     0.010057
      dyz     :     0.004141
      dx2y2   :     0.005792
      dxy     :     0.006757
      f0      :     0.000234  f :     0.001735
      f+1     :     0.000355
      f-1     :     0.000215
      f+2     :     0.000320
      f-2     :     0.000300
      f+3     :     0.000270
      f-3     :     0.000041
  7 H s       :     0.628557  s :     0.628557
      pz      :     0.012870  p :     0.042866
      px      :     0.012073
      py      :     0.017922
  8 C s       :     3.193807  s :     3.193807
      pz      :     0.799762  p :     2.757495
      px      :     0.920391
      py      :     1.037342
      dz2     :     0.029426  d :     0.114769
      dxz     :     0.017310
      dyz     :     0.031611
      dx2y2   :     0.026565
      dxy     :     0.009858
      f0      :     0.001785  f :     0.008910
      f+1     :     0.001625
      f-1     :     0.001120
      f+2     :     0.001947
      f-2     :     0.001277
      f+3     :     0.000860
      f-3     :     0.000297
  9 H s       :     0.869362  s :     0.869362
      pz      :     0.004282  p :     0.021189
      px      :     0.004334
      py      :     0.012573
 10 H s       :     0.889665  s :     0.889665
      pz      :     0.002849  p :     0.020007
      px      :     0.013685
      py      :     0.003473
 11 H s       :     0.888140  s :     0.888140
      pz      :     0.009042  p :     0.020162
      px      :     0.003060
      py      :     0.008059


                     *******************************
                     * LOEWDIN POPULATION ANALYSIS *
                     *******************************

----------------------
LOEWDIN ATOMIC CHARGES
----------------------
   0 O :   -0.132611
   1 H :    0.188859
   2 C :   -0.331992
   3 H :    0.100452
   4 H :    0.087966
   5 H :    0.087274
   6 O :   -0.129912
   7 H :    0.188708
   8 C :   -0.336093
   9 H :    0.101639
  10 H :    0.087504
  11 H :    0.088207

-------------------------------
LOEWDIN REDUCED ORBITAL CHARGES
-------------------------------
  0 O s       :     3.395863  s :     3.395863
      pz      :     1.696636  p :     4.665102
      px      :     1.588376
      py      :     1.380091
      dz2     :     0.013520  d :     0.067602
      dxz     :     0.005503
      dyz     :     0.015287
      dx2y2   :     0.008609
      dxy     :     0.024684
      f0      :     0.000350  f :     0.004044
      f+1     :     0.000352
      f-1     :     0.000809
      f+2     :     0.000618
      f-2     :     0.000610
      f+3     :     0.000434
      f-3     :     0.000872
  1 H s       :     0.665916  s :     0.665916
      pz      :     0.035727  p :     0.145225
      px      :     0.061735
      py      :     0.047763
  2 C s       :     2.863301  s :     2.863301
      pz      :     0.990764  p :     2.991702
      px      :     1.080833
      py      :     0.920105
      dz2     :     0.140645  d :     0.420310
      dxz     :     0.024934
      dyz     :     0.083087
      dx2y2   :     0.057821
      dxy     :     0.113822
      f0      :     0.004794  f :     0.056679
      f+1     :     0.003235
      f-1     :     0.015026
      f+2     :     0.009950
      f-2     :     0.010671
      f+3     :     0.007209
      f-3     :     0.005794
  3 H s       :     0.840675  s :     0.840675
      pz      :     0.011400  p :     0.058873
      px      :     0.023760
      py      :     0.023712
  4 H s       :     0.853408  s :     0.853408
      pz      :     0.011064  p :     0.058627
      px      :     0.034205
      py      :     0.013357
  5 H s       :     0.854338  s :     0.854338
      pz      :     0.035586  p :     0.058388
      px      :     0.012114
      py      :     0.010688
  6 O s       :     3.394613  s :     3.394613
      pz      :     1.515987  p :     4.662593
      px      :     1.666783
      py      :     1.479824
      dz2     :     0.014324  d :     0.068594
      dxz     :     0.017879
      dyz     :     0.014866
      dx2y2   :     0.011662
      dxy     :     0.009864
      f0      :     0.000772  f :     0.004112
      f+1     :     0.000781
      f-1     :     0.000454
      f+2     :     0.000579
      f-2     :     0.000777
      f+3     :     0.000632
      f-3     :     0.000117
  7 H s       :     0.666964  s :     0.666964
      pz      :     0.035473  p :     0.144328
      px      :     0.041760
      py      :     0.067095
  8 C s       :     2.862189  s :     2.862189
      pz      :     0.910863  p :     2.992801
      px      :     1.007887
      py      :     1.074051
      dz2     :     0.110154  d :     0.423677
      dxz     :     0.084799
      dyz     :     0.104676
      dx2y2   :     0.090254
      dxy     :     0.033793
      f0      :     0.013464  f :     0.057427
      f+1     :     0.012328
      f-1     :     0.005868
      f+2     :     0.009071
      f-2     :     0.009442
      f+3     :     0.004303
      f-3     :     0.002951
  9 H s       :     0.839528  s :     0.839528
      pz      :     0.012203  p :     0.058833
      px      :     0.013770
      py      :     0.032860
 10 H s       :     0.854021  s :     0.854021
      pz      :     0.010028  p :     0.058475
      px      :     0.035967
      py      :     0.012480
 11 H s       :     0.853291  s :     0.853291
      pz      :     0.024369  p :     0.058502
      px      :     0.010739
      py      :     0.023393


                      *****************************
                      * MAYER POPULATION ANALYSIS *
                      *****************************

  NA   - Mulliken gross atomic population
  ZA   - Total nuclear charge
  QA   - Mulliken gross atomic charge
  VA   - Mayer's total valence
  BVA  - Mayer's bonded valence
  FA   - Mayer's free valence

  ATOM       NA         ZA         QA         VA         BVA        FA
  0 O      8.5456     8.0000    -0.5456     1.7950     1.7950    -0.0000
  1 H      0.6688     1.0000     0.3312     0.8979     0.8979    -0.0000
  2 C      6.0735     6.0000    -0.0735     3.9037     3.9037    -0.0000
  3 H      0.8926     1.0000     0.1074     0.9619     0.9619    -0.0000
  4 H      0.9085     1.0000     0.0915     0.9616     0.9616    -0.0000
  5 H      0.9111     1.0000     0.0889     0.9606     0.9606    -0.0000
  6 O      8.5450     8.0000    -0.5450     1.7942     1.7942    -0.0000
  7 H      0.6714     1.0000     0.3286     0.8989     0.8989    -0.0000
  8 C      6.0750     6.0000    -0.0750     3.8992     3.8992     0.0000
  9 H      0.8906     1.0000     0.1094     0.9622     0.9622    -0.0000
 10 H      0.9097     1.0000     0.0903     0.9610     0.9610    -0.0000
 11 H      0.9083     1.0000     0.0917     0.9613     0.9613    -0.0000

  Mayer bond orders larger than 0.100000
B(  0-O ,  1-H ) :   0.8865 B(  0-O ,  2-C ) :   0.9362 B(  2-C ,  3-H ) :   0.9831 
B(  2-C ,  4-H ) :   0.9881 B(  2-C ,  5-H ) :   0.9877 B(  6-O ,  7-H ) :   0.8880 
B(  6-O ,  8-C ) :   0.9329 B(  8-C ,  9-H ) :   0.9830 B(  8-C , 10-H ) :   0.9872 
B(  8-C , 11-H ) :   0.9879 

-------
TIMINGS
-------

Total SCF time: 0 days 0 hours 0 min 7 sec 

Total time                  ....       7.621 sec
Sum of individual times     ....       7.249 sec  ( 95.1%)

Fock matrix formation       ....       6.859 sec  ( 90.0%)
Diagonalization             ....       0.028 sec  (  0.4%)
Density matrix formation    ....       0.032 sec  (  0.4%)
Population analysis         ....       0.004 sec  (  0.0%)
Initial guess               ....       0.219 sec  (  2.9%)
Orbital Transformation      ....       0.000 sec  (  0.0%)
Orbital Orthonormalization  ....       0.000 sec  (  0.0%)
DIIS solution               ....       0.023 sec  (  0.3%)
SOSCF solution              ....       0.011 sec  (  0.1%)


           ************************************************************
           *        Program running with 6 parallel MPI-processes     *
           *              working on a common directory               *
           ************************************************************

------------------------------------------------------------------------------
                                ORCA  MP2 
------------------------------------------------------------------------------

Freezing NCore=8 chemical core electrons
MP2 will be done in the AO integral direct mode
The Q1-step will be done using symmetric double matrices
Dimension of the basis                    ...  172
Memory devoted for MP2                    ... 8000 MB   
Memory needed for all in one shot         ...   60 MB
Number of MOs that can be treated together...  408      
MP2 density construction                  ... relaxed
The MP2 gradient is requested => amplitudes will be stored on disk
Total number of MOs              ...   14
Number of MOs treated per batch  ...    3 
Number of batches necessary      ...    1 
OPERATORS   0/  0 PASS   0
-----------------------------------------------
 MP2 CORRELATION ENERGY   :     -0.834352681 Eh
-----------------------------------------------


---------------------
MP2 DENSITY FORMATION
---------------------

Completing the external part of the density      ... done
Storing the unrelaxed density                    ... done

Calculating G(D)                                 ... done
Completing the Lagrangian                        ... done
Solving the Z-vector equations                   ... 

------------------------------------------------------------------------------
                           ORCA CP-SCF CALCULATION
------------------------------------------------------------------------------

Input orbitals are from        ... 12meoh.boyd.etal.mol5,11-orca.engrad-mp2.def2tzvp.frozencore.gbw
Input Perturbation             ... 12meoh.boyd.etal.mol5,11-orca.engrad-mp2.def2tzvp.frozencore.pin.tmp
Wavefunction output            ... 12meoh.boyd.etal.mol5,11-orca.engrad-mp2.def2tzvp.frozencore.pout.tmp
Perturbation mode              ... Real perturbation (singlet)
Solver                         ... POPLE
Max. number of iterations      ... 128
Convergence tolerance          ... 1.000e-08
Integral handling              ... Direct
Number of perturbations        ... 1
Number of operators            ... 1
Orbital ranges used for CP-SCF:
 Operator 0:  Orbitals   0... 17  to  18...171
Variables per vector in CP-SCF ... 2772
Number of vectors sought       ... 1
     CP-SCF ITERATION   0: 
     CP-SCF ITERATION   1:      0.000237521359
     CP-SCF ITERATION   2:      0.000011299456
     CP-SCF ITERATION   3:      0.000001636006
     CP-SCF ITERATION   4:      0.000000103245
     CP-SCF ITERATION   5:      0.000000003132
                                                 ... done
Finalizing the relaxed density                   ... done
Transforming P to the AO basis                   ... done
Storing the relaxed density                      ... done

------------------------------------
ENERGY WEIGHTED DENSITY FINALIZATION
------------------------------------

Gathering the parts of the W-matrix              ...                                                      done
Forming the Z-density                            ... done
Transforming Z to the AO basis                   ... done
Calculating G(Z)                                 ... done
Finalizing the W-matrix                          ...                                                      done
Transforming W to the AO basis and storing       ... done

                *********************************************
                * UNRELAXED MP2 DENSITY POPULATION ANALYSIS *
                *********************************************

------------------------------------------------------------------------------
                           ORCA POPULATION ANALYSIS
------------------------------------------------------------------------------
Input electron density              ... 12meoh.boyd.etal.mol5,11-orca.engrad-mp2.def2tzvp.frozencore.pmp2ur
BaseName (.gbw .S,...)              ... 12meoh.boyd.etal.mol5,11-orca.engrad-mp2.def2tzvp.frozencore

                    ********************************
                    * MULLIKEN POPULATION ANALYSIS *
                    ********************************

-----------------------
MULLIKEN ATOMIC CHARGES
-----------------------
   0 O :   -0.534589
   1 H :    0.328573
   2 C :   -0.089530
   3 H :    0.110125
   4 H :    0.093920
   5 H :    0.091393
   6 O :   -0.533956
   7 H :    0.325911
   8 C :   -0.090932
   9 H :    0.112222
  10 H :    0.092739
  11 H :    0.094123
Sum of atomic charges:   -0.0000000

--------------------------------
MULLIKEN REDUCED ORBITAL CHARGES
--------------------------------
  0 O s       :     3.798849  s :     3.798849
      pz      :     1.718094  p :     4.671855
      px      :     1.598459
      py      :     1.355302
      dz2     :     0.010991  d :     0.059502
      dxz     :     0.009223
      dyz     :     0.013083
      dx2y2   :     0.009017
      dxy     :     0.017187
      f0      :     0.000579  f :     0.004384
      f+1     :     0.000536
      f-1     :     0.000709
      f+2     :     0.000651
      f-2     :     0.000580
      f+3     :     0.000600
      f-3     :     0.000728
  1 H s       :     0.626667  s :     0.626667
      pz      :     0.013133  p :     0.044759
      px      :     0.015876
      py      :     0.015750
  2 C s       :     3.191897  s :     3.191897
      pz      :     0.898847  p :     2.749815
      px      :     1.026993
      py      :     0.823975
      dz2     :     0.043622  d :     0.135631
      dxz     :     0.012103
      dyz     :     0.021556
      dx2y2   :     0.021570
      dxy     :     0.036780
      f0      :     0.001768  f :     0.012186
      f+1     :     0.000904
      f-1     :     0.003020
      f+2     :     0.001418
      f-2     :     0.001750
      f+3     :     0.001707
      f-3     :     0.001619
  3 H s       :     0.865660  s :     0.865660
      pz      :     0.004532  p :     0.024215
      px      :     0.009389
      py      :     0.010294
  4 H s       :     0.882890  s :     0.882890
      pz      :     0.004327  p :     0.023191
      px      :     0.013608
      py      :     0.005255
  5 H s       :     0.885255  s :     0.885255
      pz      :     0.014560  p :     0.023352
      px      :     0.004579
      py      :     0.004213
  6 O s       :     3.799660  s :     3.799660
      pz      :     1.501402  p :     4.670109
      px      :     1.669918
      py      :     1.498788
      dz2     :     0.011341  d :     0.059797
      dxz     :     0.015341
      dyz     :     0.009697
      dx2y2   :     0.011285
      dxy     :     0.012133
      f0      :     0.000618  f :     0.004390
      f+1     :     0.000738
      f-1     :     0.000591
      f+2     :     0.000697
      f-2     :     0.000680
      f+3     :     0.000643
      f-3     :     0.000423
  7 H s       :     0.629505  s :     0.629505
      pz      :     0.013559  p :     0.044584
      px      :     0.012907
      py      :     0.018119
  8 C s       :     3.191911  s :     3.191911
      pz      :     0.800151  p :     2.751402
      px      :     0.918014
      py      :     1.033237
      dz2     :     0.033513  d :     0.135379
      dxz     :     0.021052
      dyz     :     0.035300
      dx2y2   :     0.030586
      dxy     :     0.014928
      f0      :     0.002281  f :     0.012240
      f+1     :     0.002029
      f-1     :     0.001615
      f+2     :     0.002415
      f-2     :     0.001740
      f+3     :     0.001326
      f-3     :     0.000835
  9 H s       :     0.863511  s :     0.863511
      pz      :     0.005393  p :     0.024267
      px      :     0.005418
      py      :     0.013456
 10 H s       :     0.884064  s :     0.884064
      pz      :     0.004008  p :     0.023197
      px      :     0.014568
      py      :     0.004620
 11 H s       :     0.882525  s :     0.882525
      pz      :     0.010045  p :     0.023352
      px      :     0.004222
      py      :     0.009085


                     *******************************
                     * LOEWDIN POPULATION ANALYSIS *
                     *******************************

----------------------
LOEWDIN ATOMIC CHARGES
----------------------
   0 O :   -0.124786
   1 H :    0.187070
   2 C :   -0.342720
   3 H :    0.102212
   4 H :    0.089440
   5 H :    0.088726
   6 O :   -0.122139
   7 H :    0.186865
   8 C :   -0.346707
   9 H :    0.103403
  10 H :    0.088969
  11 H :    0.089667

-------------------------------
LOEWDIN REDUCED ORBITAL CHARGES
-------------------------------
  0 O s       :     3.392400  s :     3.392400
      pz      :     1.683228  p :     4.629181
      px      :     1.576557
      py      :     1.369397
      dz2     :     0.019166  d :     0.096258
      dxz     :     0.011087
      dyz     :     0.021405
      dx2y2   :     0.014165
      dxy     :     0.030435
      f0      :     0.000752  f :     0.006947
      f+1     :     0.000746
      f-1     :     0.001234
      f+2     :     0.001036
      f-2     :     0.001025
      f+3     :     0.000857
      f-3     :     0.001298
  1 H s       :     0.664169  s :     0.664169
      pz      :     0.036606  p :     0.148761
      px      :     0.063210
      py      :     0.048945
  2 C s       :     2.862153  s :     2.862153
      pz      :     0.986342  p :     2.977935
      px      :     1.074487
      py      :     0.917106
      dz2     :     0.144194  d :     0.441083
      dxz     :     0.029864
      dyz     :     0.087138
      dx2y2   :     0.062081
      dxy     :     0.117806
      f0      :     0.005670  f :     0.061549
      f+1     :     0.003889
      f-1     :     0.015673
      f+2     :     0.010582
      f-2     :     0.011249
      f+3     :     0.007932
      f-3     :     0.006554
  3 H s       :     0.833908  s :     0.833908
      pz      :     0.012685  p :     0.063880
      px      :     0.025484
      py      :     0.025711
  4 H s       :     0.846697  s :     0.846697
      pz      :     0.012380  p :     0.063863
      px      :     0.036596
      py      :     0.014888
  5 H s       :     0.847636  s :     0.847636
      pz      :     0.038186  p :     0.063638
      px      :     0.013369
      py      :     0.012083
  6 O s       :     3.391152  s :     3.391152
      pz      :     1.503808  p :     4.626719
      px      :     1.653513
      py      :     1.469399
      dz2     :     0.019988  d :     0.097247
      dxz     :     0.023932
      dyz     :     0.020553
      dx2y2   :     0.017225
      dxy     :     0.015549
      f0      :     0.001182  f :     0.007021
      f+1     :     0.001228
      f-1     :     0.000855
      f+2     :     0.001006
      f-2     :     0.001199
      f+3     :     0.001040
      f-3     :     0.000509
  7 H s       :     0.665227  s :     0.665227
      pz      :     0.036400  p :     0.147908
      px      :     0.042836
      py      :     0.068672
  8 C s       :     2.861046  s :     2.861046
      pz      :     0.908047  p :     2.978974
      px      :     1.003029
      py      :     1.067898
      dz2     :     0.113862  d :     0.444383
      dxz     :     0.088910
      dyz     :     0.108307
      dx2y2   :     0.094543
      dxy     :     0.038761
      f0      :     0.013964  f :     0.062304
      f+1     :     0.013152
      f-1     :     0.006633
      f+2     :     0.009899
      f-2     :     0.010052
      f+3     :     0.005017
      f-3     :     0.003587
  9 H s       :     0.832765  s :     0.832765
      pz      :     0.013669  p :     0.063832
      px      :     0.015134
      py      :     0.035030
 10 H s       :     0.847319  s :     0.847319
      pz      :     0.011414  p :     0.063712
      px      :     0.038551
      py      :     0.013747
 11 H s       :     0.846598  s :     0.846598
      pz      :     0.026479  p :     0.063735
      px      :     0.012028
      py      :     0.025227


                      *****************************
                      * MAYER POPULATION ANALYSIS *
                      *****************************

  NA   - Mulliken gross atomic population
  ZA   - Total nuclear charge
  QA   - Mulliken gross atomic charge
  VA   - Mayer's total valence
  BVA  - Mayer's bonded valence
  FA   - Mayer's free valence

  ATOM       NA         ZA         QA         VA         BVA        FA
  0 O      8.5346     8.0000    -0.5346     2.0938     1.6889     0.4049
  1 H      0.6714     1.0000     0.3286     0.9043     0.8518     0.0525
  2 C      6.0895     6.0000    -0.0895     4.0083     3.7297     0.2786
  3 H      0.8899     1.0000     0.1101     0.9709     0.9240     0.0469
  4 H      0.9061     1.0000     0.0939     0.9716     0.9224     0.0492
  5 H      0.9086     1.0000     0.0914     0.9706     0.9214     0.0493
  6 O      8.5340     8.0000    -0.5340     2.0928     1.6882     0.4046
  7 H      0.6741     1.0000     0.3259     0.9054     0.8525     0.0529
  8 C      6.0909     6.0000    -0.0909     4.0040     3.7258     0.2782
  9 H      0.8878     1.0000     0.1122     0.9711     0.9242     0.0468
 10 H      0.9073     1.0000     0.0927     0.9710     0.9218     0.0492
 11 H      0.9059     1.0000     0.0941     0.9713     0.9221     0.0491

  Mayer bond orders larger than 0.100000
B(  0-O ,  1-H ) :   0.8414 B(  0-O ,  2-C ) :   0.8767 B(  2-C ,  3-H ) :   0.9458 
B(  2-C ,  4-H ) :   0.9499 B(  2-C ,  5-H ) :   0.9494 B(  6-O ,  7-H ) :   0.8426 
B(  6-O ,  8-C ) :   0.8740 B(  8-C ,  9-H ) :   0.9457 B(  8-C , 10-H ) :   0.9490 
B(  8-C , 11-H ) :   0.9496 


                *******************************************
                * RELAXED MP2 DENSITY POPULATION ANALYSIS *
                *******************************************

------------------------------------------------------------------------------
                           ORCA POPULATION ANALYSIS
------------------------------------------------------------------------------
Input electron density              ... 12meoh.boyd.etal.mol5,11-orca.engrad-mp2.def2tzvp.frozencore.pmp2re
BaseName (.gbw .S,...)              ... 12meoh.boyd.etal.mol5,11-orca.engrad-mp2.def2tzvp.frozencore

                    ********************************
                    * MULLIKEN POPULATION ANALYSIS *
                    ********************************

-----------------------
MULLIKEN ATOMIC CHARGES
-----------------------
   0 O :   -0.497325
   1 H :    0.323147
   2 C :   -0.171348
   3 H :    0.128112
   4 H :    0.109619
   5 H :    0.107651
   6 O :   -0.496844
   7 H :    0.320784
   8 C :   -0.172810
   9 H :    0.130165
  10 H :    0.108691
  11 H :    0.110158
Sum of atomic charges:   -0.0000000

--------------------------------
MULLIKEN REDUCED ORBITAL CHARGES
--------------------------------
  0 O s       :     3.800688  s :     3.800688
      pz      :     1.705329  p :     4.634924
      px      :     1.581780
      py      :     1.347815
      dz2     :     0.011018  d :     0.057386
      dxz     :     0.009289
      dyz     :     0.012111
      dx2y2   :     0.008845
      dxy     :     0.016122
      f0      :     0.000574  f :     0.004328
      f+1     :     0.000530
      f-1     :     0.000705
      f+2     :     0.000637
      f-2     :     0.000575
      f+3     :     0.000592
      f-3     :     0.000714
  1 H s       :     0.631524  s :     0.631524
      pz      :     0.014086  p :     0.045330
      px      :     0.015788
      py      :     0.015456
  2 C s       :     3.213806  s :     3.213806
      pz      :     0.923028  p :     2.819722
      px      :     1.053881
      py      :     0.842812
      dz2     :     0.039485  d :     0.126191
      dxz     :     0.013160
      dyz     :     0.019682
      dx2y2   :     0.019643
      dxy     :     0.034221
      f0      :     0.001683  f :     0.011629
      f+1     :     0.000868
      f-1     :     0.002880
      f+2     :     0.001329
      f-2     :     0.001715
      f+3     :     0.001636
      f-3     :     0.001519
  3 H s       :     0.848828  s :     0.848828
      pz      :     0.004700  p :     0.023060
      px      :     0.008842
      py      :     0.009518
  4 H s       :     0.868303  s :     0.868303
      pz      :     0.004548  p :     0.022078
      px      :     0.012311
      py      :     0.005219
  5 H s       :     0.870079  s :     0.870079
      pz      :     0.013106  p :     0.022271
      px      :     0.004811
      py      :     0.004354
  6 O s       :     3.801335  s :     3.801335
      pz      :     1.492929  p :     4.633503
      px      :     1.655115
      py      :     1.485459
      dz2     :     0.011077  d :     0.057671
      dxz     :     0.014281
      dyz     :     0.009686
      dx2y2   :     0.011050
      dxy     :     0.011578
      f0      :     0.000618  f :     0.004335
      f+1     :     0.000714
      f-1     :     0.000591
      f+2     :     0.000688
      f-2     :     0.000672
      f+3     :     0.000630
      f-3     :     0.000422
  7 H s       :     0.634052  s :     0.634052
      pz      :     0.013956  p :     0.045164
      px      :     0.013598
      py      :     0.017611
  8 C s       :     3.213931  s :     3.213931
      pz      :     0.819839  p :     2.821412
      px      :     0.942596
      py      :     1.058976
      dz2     :     0.032823  d :     0.125787
      dxz     :     0.020529
      dyz     :     0.031160
      dx2y2   :     0.026600
      dxy     :     0.014676
      f0      :     0.002150  f :     0.011680
      f+1     :     0.001969
      f-1     :     0.001525
      f+2     :     0.002335
      f-2     :     0.001643
      f+3     :     0.001252
      f-3     :     0.000805
  9 H s       :     0.846731  s :     0.846731
      pz      :     0.005380  p :     0.023104
      px      :     0.005434
      py      :     0.012290
 10 H s       :     0.869221  s :     0.869221
      pz      :     0.004197  p :     0.022088
      px      :     0.013073
      py      :     0.004818
 11 H s       :     0.867592  s :     0.867592
      pz      :     0.009255  p :     0.022250
      px      :     0.004473
      py      :     0.008522


                     *******************************
                     * LOEWDIN POPULATION ANALYSIS *
                     *******************************

----------------------
LOEWDIN ATOMIC CHARGES
----------------------
   0 O :   -0.111707
   1 H :    0.189683
   2 C :   -0.377684
   3 H :    0.109373
   4 H :    0.095525
   5 H :    0.094729
   6 O :   -0.109229
   7 H :    0.189565
   8 C :   -0.381600
   9 H :    0.110596
  10 H :    0.095083
  11 H :    0.095666

-------------------------------
LOEWDIN REDUCED ORBITAL CHARGES
-------------------------------
  0 O s       :     3.395382  s :     3.395382
      pz      :     1.673635  p :     4.613540
      px      :     1.570580
      py      :     1.369325
      dz2     :     0.019341  d :     0.095729
      dxz     :     0.011354
      dyz     :     0.020950
      dx2y2   :     0.014178
      dxy     :     0.029906
      f0      :     0.000761  f :     0.007056
      f+1     :     0.000751
      f-1     :     0.001263
      f+2     :     0.001059
      f-2     :     0.001039
      f+3     :     0.000873
      f-3     :     0.001311
  1 H s       :     0.660968  s :     0.660968
      pz      :     0.037505  p :     0.149349
      px      :     0.063503
      py      :     0.048340
  2 C s       :     2.868101  s :     2.868101
      pz      :     0.999938  p :     3.017880
      px      :     1.089673
      py      :     0.928269
      dz2     :     0.143389  d :     0.431658
      dxz     :     0.029548
      dyz     :     0.083820
      dx2y2   :     0.058891
      dxy     :     0.116010
      f0      :     0.005404  f :     0.060045
      f+1     :     0.003818
      f-1     :     0.015193
      f+2     :     0.010427
      f-2     :     0.011121
      f+3     :     0.007713
      f-3     :     0.006369
  3 H s       :     0.826394  s :     0.826394
      pz      :     0.013117  p :     0.064232
      px      :     0.025469
      py      :     0.025645
  4 H s       :     0.839877  s :     0.839877
      pz      :     0.012859  p :     0.064598
      px      :     0.036310
      py      :     0.015429
  5 H s       :     0.840871  s :     0.840871
      pz      :     0.038007  p :     0.064400
      px      :     0.013830
      py      :     0.012563
  6 O s       :     3.394107  s :     3.394107
      pz      :     1.499269  p :     4.611275
      px      :     1.643869
      py      :     1.468138
      dz2     :     0.020125  d :     0.096716
      dxz     :     0.023454
      dyz     :     0.020591
      dx2y2   :     0.017096
      dxy     :     0.015449
      f0      :     0.001208  f :     0.007132
      f+1     :     0.001249
      f-1     :     0.000867
      f+2     :     0.001025
      f-2     :     0.001224
      f+3     :     0.001044
      f-3     :     0.000514
  7 H s       :     0.661881  s :     0.661881
      pz      :     0.036515  p :     0.148554
      px      :     0.043681
      py      :     0.068358
  8 C s       :     2.866968  s :     2.866968
      pz      :     0.919474  p :     3.018911
      px      :     1.016734
      py      :     1.082702
      dz2     :     0.114337  d :     0.434948
      dxz     :     0.086713
      dyz     :     0.104461
      dx2y2   :     0.091462
      dxy     :     0.037975
      f0      :     0.013549  f :     0.060772
      f+1     :     0.012954
      f-1     :     0.006431
      f+2     :     0.009641
      f-2     :     0.009804
      f+3     :     0.004910
      f-3     :     0.003483
  9 H s       :     0.825229  s :     0.825229
      pz      :     0.014030  p :     0.064175
      px      :     0.015462
      py      :     0.034683
 10 H s       :     0.840457  s :     0.840457
      pz      :     0.011921  p :     0.064460
      px      :     0.038315
      py      :     0.014224
 11 H s       :     0.839857  s :     0.839857
      pz      :     0.026685  p :     0.064477
      px      :     0.012520
      py      :     0.025272


                      *****************************
                      * MAYER POPULATION ANALYSIS *
                      *****************************

  NA   - Mulliken gross atomic population
  ZA   - Total nuclear charge
  QA   - Mulliken gross atomic charge
  VA   - Mayer's total valence
  BVA  - Mayer's bonded valence
  FA   - Mayer's free valence

  ATOM       NA         ZA         QA         VA         BVA        FA
  0 O      8.4973     8.0000    -0.4973     2.1477     1.7492     0.3984
  1 H      0.6769     1.0000     0.3231     0.9068     0.8542     0.0526
  2 C      6.1713     6.0000    -0.1713     4.0305     3.7541     0.2764
  3 H      0.8719     1.0000     0.1281     0.9624     0.9160     0.0463
  4 H      0.8904     1.0000     0.1096     0.9651     0.9165     0.0485
  5 H      0.8923     1.0000     0.1077     0.9628     0.9142     0.0486
  6 O      8.4968     8.0000    -0.4968     2.1468     1.7488     0.3980
  7 H      0.6792     1.0000     0.3208     0.9077     0.8546     0.0531
  8 C      6.1728     6.0000    -0.1728     4.0256     3.7497     0.2760
  9 H      0.8698     1.0000     0.1302     0.9626     0.9163     0.0463
 10 H      0.8913     1.0000     0.1087     0.9641     0.9155     0.0486
 11 H      0.8898     1.0000     0.1102     0.9637     0.9152     0.0485

  Mayer bond orders larger than 0.100000
B(  0-O ,  1-H ) :   0.8417 B(  0-O ,  2-C ) :   0.9284 B(  2-C ,  3-H ) :   0.9378 
B(  2-C ,  4-H ) :   0.9399 B(  2-C ,  5-H ) :   0.9388 B(  6-O ,  7-H ) :   0.8426 
B(  6-O ,  8-C ) :   0.9257 B(  8-C ,  9-H ) :   0.9375 B(  8-C , 10-H ) :   0.9387 
B(  8-C , 11-H ) :   0.9390 


----------------------------------
MP2 DERIVATIVE INTEGRAL GENERATION
----------------------------------


Input Wavefunction Amplitudes       ... 12meoh.boyd.etal.mol5,11-orca.engrad-mp2.def2tzvp.frozencore.mp2tsaa.tmp
Input Correlated Electron Density   ... 12meoh.boyd.etal.mol5,11-orca.engrad-mp2.def2tzvp.frozencore.pmp2re
Input Energy Weighted Density       ... 12meoh.boyd.etal.mol5,11-orca.engrad-mp2.def2tzvp.frozencore.wmp2.tmp
Input SCF Electron Density          ... 12meoh.boyd.etal.mol5,11-orca.engrad-mp2.def2tzvp.frozencore.scfp

One-Electron Terms    ...
                        ... One-Electron Terms done
Prescreening matrices              ... done

Batch handling in the gradient evaluation:
Memory available                      ... 8000.0 MB
Memory per occupied orbital in Q2     ...    3.2 MB
Memory per occupied orbital in Q3     ...    0.1 MB
Total memory requirement per |i>      ...    3.2 MB
Max. Number of orbitals possible      ...   2481
Number of orbitals treated per batch  ...     14
Number of batches to be done          ...      1
Batch   0: i=    4 ...    17

---------------------------------------
MP2 TOTAL ENERGY:     -231.013224975 Eh
---------------------------------------

The final MP2 gradient
  0:  -0.01658392  -0.01222802   0.00183256
  1:   0.01868903   0.01985991  -0.00073163
  2:  -0.00369263  -0.00571689   0.00159820
  3:  -0.00123521  -0.00437411  -0.00066713
  4:   0.00318159  -0.00037829   0.00036245
  5:  -0.00028553   0.00288004  -0.00254792
  6:  -0.00968597   0.01956192   0.01048596
  7:   0.00936175  -0.02356141  -0.01260591
  8:  -0.00232210   0.00357701  -0.00163870
  9:  -0.00010416   0.00341179   0.00294380
 10:   0.00339124  -0.00030137  -0.00078585
 11:  -0.00071408  -0.00273059   0.00175418

-----------------------------------
NORM OF THE MP2 GRADIENT:  0.052153
-----------------------------------

-------------------------   --------------------
FINAL SINGLE POINT ENERGY      -231.013224975049
-------------------------   --------------------


                            ***************************************
                            *     ORCA property calculations      *
                            ***************************************

                                    ---------------------
                                    Active property flags
                                    ---------------------
   (+) Dipole Moment


------------------------------------------------------------------------------
                       ORCA ELECTRIC PROPERTIES CALCULATION
------------------------------------------------------------------------------

Dipole Moment Calculation                       ... on
Quadrupole Moment Calculation                   ... off
Polarizability Calculation                      ... off
GBWName                                         ... 12meoh.boyd.etal.mol5,11-orca.engrad-mp2.def2tzvp.frozencore.gbw
Electron density file                           ... 12meoh.boyd.etal.mol5,11-orca.engrad-mp2.def2tzvp.frozencore.scfp
The origin for moment calculation is the CENTER OF MASS  = ( 2.990556,  1.569807  0.569616)

-------------
DIPOLE MOMENT
-------------
                                X             Y             Z
Electronic contribution:     -1.52641       0.96462      -0.27952
Nuclear contribution   :      2.71089      -1.39527       0.12908
                        -----------------------------------------
Total Dipole Moment    :      1.18448      -0.43064      -0.15044
                        -----------------------------------------
Magnitude (a.u.)       :      1.26928
Magnitude (Debye)      :      3.22627



--------------------
Rotational spectrum 
--------------------
 
Rotational constants in cm-1:     0.642739     0.028922     0.028037 
Rotational constants in MHz : 19268.834257   867.070175   840.514930 

 Dipole components along the rotational axes: 
x,y,z [a.u.] :     0.721008     0.871414     0.576081 
x,y,z [Debye]:     1.832656     2.214958     1.464281 

 

                         *** MP2 UNRELAXED DENSITY ***

------------------------------------------------------------------------------
                       ORCA ELECTRIC PROPERTIES CALCULATION
------------------------------------------------------------------------------

Dipole Moment Calculation                       ... on
Quadrupole Moment Calculation                   ... off
Polarizability Calculation                      ... off
GBWName                                         ... 12meoh.boyd.etal.mol5,11-orca.engrad-mp2.def2tzvp.frozencore.gbw
Electron density file                           ... 12meoh.boyd.etal.mol5,11-orca.engrad-mp2.def2tzvp.frozencore.pmp2ur
The origin for moment calculation is the CENTER OF MASS  = ( 2.990556,  1.569807  0.569616)

-------------
DIPOLE MOMENT
-------------
                                X             Y             Z
Electronic contribution:     -1.54957       0.97464      -0.27726
Nuclear contribution   :      2.71089      -1.39527       0.12908
                        -----------------------------------------
Total Dipole Moment    :      1.16133      -0.42063      -0.14818
                        -----------------------------------------
Magnitude (a.u.)       :      1.24401
Magnitude (Debye)      :      3.16203



--------------------
Rotational spectrum 
--------------------
 
Rotational constants in cm-1:     0.642739     0.028922     0.028037 
Rotational constants in MHz : 19268.834257   867.070175   840.514930 

 Dipole components along the rotational axes: 
x,y,z [a.u.] :     0.706395     0.853304     0.566080 
x,y,z [Debye]:     1.795514     2.168927     1.438862 

 

                           *** MP2 RELAXED DENSITY ***

------------------------------------------------------------------------------
                       ORCA ELECTRIC PROPERTIES CALCULATION
------------------------------------------------------------------------------

Dipole Moment Calculation                       ... on
Quadrupole Moment Calculation                   ... off
Polarizability Calculation                      ... off
GBWName                                         ... 12meoh.boyd.etal.mol5,11-orca.engrad-mp2.def2tzvp.frozencore.gbw
Electron density file                           ... 12meoh.boyd.etal.mol5,11-orca.engrad-mp2.def2tzvp.frozencore.pmp2re
The origin for moment calculation is the CENTER OF MASS  = ( 2.990556,  1.569807  0.569616)

-------------
DIPOLE MOMENT
-------------
                                X             Y             Z
Electronic contribution:     -1.57984       0.98926      -0.27617
Nuclear contribution   :      2.71089      -1.39527       0.12908
                        -----------------------------------------
Total Dipole Moment    :      1.13105      -0.40601      -0.14709
                        -----------------------------------------
Magnitude (a.u.)       :      1.21069
Magnitude (Debye)      :      3.07732



--------------------
Rotational spectrum 
--------------------
 
Rotational constants in cm-1:     0.642739     0.028922     0.028037 
Rotational constants in MHz : 19268.834257   867.070175   840.514930 

 Dipole components along the rotational axes: 
x,y,z [a.u.] :     0.685935     0.829056     0.554905 
x,y,z [Debye]:     1.743509     2.107294     1.410457 

 

Timings for individual modules:

Sum of individual times         ...       28.960 sec (=   0.483 min)
GTO integral calculation        ...        1.899 sec (=   0.032 min)   6.6 %
SCF iterations                  ...        8.706 sec (=   0.145 min)  30.1 %
MP2 module                      ...       18.355 sec (=   0.306 min)  63.4 %
                             ****ORCA TERMINATED NORMALLY****
TOTAL RUN TIME: 0 days 0 hours 0 minutes 30 seconds 470 msec
