29
Energy:   -778.01333935
O   -1.40273165   2.54328377   0.88888760
H   -0.67280052   1.96201126   0.67545223
H   -2.13299495   2.21378992   0.36507354
O   -3.08022987   1.19236080  -0.89654827
H   -2.45105153   1.28424955  -1.61203617
H   -2.76429559   0.44137883  -0.39411075
O   -0.15181334  -1.30473435   3.42459834
H   -0.84527536  -0.66359335   3.26877633
H    0.16706812  -1.53049660   2.55076892
O    2.78498057   0.65952587  -1.08352710
H    1.94753612   0.79913053  -0.64145337
H    2.61970558  -0.06430528  -1.68766656
O    3.18892734  -1.67036100   0.37718283
H    2.27847536  -1.79242426   0.64627314
H    3.22676738  -0.76768039   0.06100614
O   -0.88544476   1.22346600  -2.60599878
H   -0.41203832   1.56924735  -1.84932616
H   -0.76502840   0.27542466  -2.55169078
O    2.32420655  -1.83550478  -2.24489222
H    1.38544135  -1.69653262  -2.11983825
H    2.65885256  -2.01800792  -1.36686233
O   -2.18788058   0.50138587   2.66541060
H   -1.87233945   1.34044591   2.32978597
H   -2.13823035  -0.09111859   1.91527383
S   -0.25763576  -0.74132187  -0.09053033
O    0.28946964   0.64231423  -0.01098893
O   -1.67870315  -0.74001433   0.35742700
O   -0.18084341  -1.22564909  -1.49752361
O    0.53953388  -1.64193828   0.78896422
