29
Energy:   -773.00915848
O   -0.49337918   1.81303622   3.17486595
H   -0.58774484   1.95095359   2.23236620
H   -0.16533745   0.91735247   3.25468510
O    1.57012898   2.38345805  -3.60525801
H    1.00089384   2.16757963  -2.86661079
H    2.07858431   1.58683552  -3.75723683
O    2.35514131  -1.88043188  -0.64087624
H    2.02735597  -1.14477808  -0.12357352
H    1.57174222  -2.26577675  -1.03333903
O   -3.03750141   1.44669110   2.14370739
H   -2.42498889   1.58187205   2.86674706
H   -2.50311840   1.54259362   1.35537412
O   -2.35330315  -1.20262861   1.76811464
H   -2.67941422  -0.31890912   1.93818307
H   -1.93758651  -1.14362177   0.90792297
O    0.18011245  -0.83560969   2.88887599
H    0.63770301  -0.51326615   2.11238557
H   -0.69329780  -1.06792043   2.57356960
O    1.98488492  -0.41380687  -2.94460614
H    2.36988040  -0.86445215  -2.19298844
H    1.35531706   0.19702881  -2.56151878
O    0.11098278  -2.35508159  -2.23000407
H    0.63202325  -1.70214230  -2.69735722
H   -0.42701118  -1.84449998  -1.62494146
S   -0.16812012   0.57208625  -0.28007472
O    0.27274567   1.13033941  -1.58930761
O   -1.03252384  -0.61884487  -0.51371821
O    1.02570911   0.17078007   0.51605665
O   -0.93841142   1.60607038   0.46667032
