29
Energy:   -772.73319162
O    0.43303131   1.80176252   2.04414602
H    0.15611724   1.54981893   1.16319490
H    0.90357956   1.03698834   2.37571297
O   -3.20487519  -2.57760867  -0.89524431
H   -2.98213060  -2.15578851  -0.06537418
H   -2.49599991  -2.32923198  -1.48857112
O   -1.16706514   3.36901920   0.17162433
H   -1.05378979   2.49656725  -0.20550713
H   -0.68869014   3.33631990   1.00006864
O    1.76175276   1.30070233  -1.96170514
H    0.97009122   1.29230243  -1.42371509
H    2.23112772   0.50523065  -1.71042083
O    1.12886630  -0.72911426   2.93000518
H    0.19847789  -0.65490044   3.14237649
H    1.14459228  -1.00340797   2.01308233
O   -1.50200827   0.12311399   3.17100706
H   -1.68443412  -0.36492078   2.36802840
H   -1.02319077   0.89814683   2.87725591
O    0.76050403  -0.69809551  -3.59870042
H    0.10519571  -1.00581193  -2.97251078
H    1.04401871   0.14825199  -3.25294448
O    2.64151429  -1.31702804  -1.64335431
H    2.08527391  -1.37862042  -0.86680112
H    2.02977673  -1.34030330  -2.37919891
S   -0.50914565  -0.67644470  -0.20560836
O   -0.81598483  -1.28554975  -1.53035013
O    0.78478880  -1.21448437   0.30069879
O   -0.40917070   0.80312634  -0.35043438
O   -1.59621588  -1.00887101   0.75765229
