29
Energy:   -774.21870520
O    0.40014952   2.27302367  -2.08494051
H    0.82290431   1.51966547  -2.49720458
H   -0.21442601   1.89039348  -1.45874333
O    2.49466478   1.51705189  -0.38695216
H    2.04582913   0.88692258   0.17671038
H    1.78880328   2.00566427  -0.81033063
O    1.60819978  -2.85437592  -2.54431459
H    0.94037276  -2.49883616  -1.95794406
H    2.11610295  -2.09139947  -2.82023698
O   -2.45403123   0.03753571   3.00110314
H   -2.34379304   0.91506789   2.63502028
H   -2.16008371  -0.55116936   2.30593910
O    0.23498723   0.63480849   3.37106911
H    0.61141212   0.31370385   2.55166203
H   -0.64074981   0.24948629   3.40010874
O   -1.40696110   2.36391626   1.92355715
H   -1.35423221   1.94625935   1.06389779
H   -0.68934337   1.97514562   2.42367116
O    1.88373726  -0.01661535  -2.58496790
H    2.31542096   0.40722119  -1.84318383
H    1.15211743  -0.49532828  -2.19535502
O   -2.17136796  -3.23045440  -0.74639363
H   -2.09228232  -2.66479420   0.02172475
H   -1.51471402  -2.89762960  -1.35816573
S   -0.38229535  -0.45822058   0.09984640
O    0.86114213  -0.21684596   0.88451290
O   -1.34939947  -1.23268266   0.92750460
O   -0.98978395   0.84755099  -0.28227692
O   -0.05114012  -1.23090470  -1.13035501
