29
Energy:   -772.47903488
O    1.39898349   2.29063689  -1.17261531
H    0.58953363   2.15947392  -0.67883494
H    1.32532558   1.69360676  -1.91716980
O    2.18564724  -1.61763238  -1.37804364
H    1.30276961  -1.62528022  -1.00831342
H    2.66445112  -0.98468302  -0.84292328
O   -3.83237546  -0.62580767  -2.14655287
H   -3.74168526  -0.67273063  -1.19481479
H   -2.96653780  -0.36134339  -2.45738346
O    2.37494772   0.39532141   0.53422806
H    2.15505877   1.14124081  -0.02388031
H    1.59153488  -0.15448218   0.51966176
O    0.16030625  -1.10352870   2.80585340
H    0.07507818  -1.25999990   1.86538288
H    0.26755776  -0.15546201   2.88265516
O    0.73903930   1.58837948   2.44533919
H    1.49975130   1.22652639   1.99079388
H    0.06515895   1.65620111   1.76893890
O   -2.60300592  -1.38616881   2.73996001
H   -2.68787361  -1.05588365   1.84556578
H   -1.66388336  -1.34912584   2.92136696
O    1.16396574   0.29329359  -3.08943525
H    0.25791215   0.25767358  -2.78279221
H    1.60527230  -0.41231849  -2.61658013
S   -1.08149500   0.03439748  -0.31895679
O   -1.15754877   0.08235665  -1.80624148
O   -2.39163976  -0.41392974   0.23115536
O   -0.01617492  -0.92228682   0.09329108
O   -0.76061652   1.39144985   0.20596787
