
                                 *****************
                                 * O   R   C   A *
                                 *****************

           --- An Ab Initio, DFT and Semiempirical electronic structure package ---

                  #######################################################
                  #                        -***-                        #
                  #          Department of theory and spectroscopy      #
                  #               Directorship: Frank Neese             #
                  #        Max Planck Institute fuer Kohlenforschung    #
                  #                Kaiser Wilhelm Platz 1               #
                  #                 D-45470 Muelheim/Ruhr               #
                  #                      Germany                        #
                  #                                                     #
                  #                  All rights reserved                #
                  #                        -***-                        #
                  #######################################################


                         Program Version 4.2.0 -  RELEASE  -


 With contributions from (in alphabetic order):
   Daniel Aravena         : Magnetic Suceptibility
   Michael Atanasov       : Ab Initio Ligand Field Theory (pilot matlab implementation)
   Alexander A. Auer      : GIAO ZORA, VPT2
   Ute Becker             : Parallelization
   Giovanni Bistoni       : ED, misc. LED, open-shell LED, HFLED
   Martin Brehm           : Molecular dynamics
   Dmytro Bykov           : SCF Hessian
   Vijay G. Chilkuri      : MRCI spin determinant printing, contributions to CSF-ICE
   Dipayan Datta          : RHF DLPNO-CCSD density
   Achintya Kumar Dutta   : EOM-CC, STEOM-CC
   Dmitry Ganyushin       : Spin-Orbit,Spin-Spin,Magnetic field MRCI
   Miquel Garcia          : C-PCM Hessian, Gaussian charge scheme
   Yang Guo               : DLPNO-NEVPT2, CIM, IAO-localization
   Andreas Hansen         : Spin unrestricted coupled pair/coupled cluster methods
   Benjamin Helmich-Paris : CASSCF linear response (MC-RPA)
   Lee Huntington         : MR-EOM, pCC
   Robert Izsak           : Overlap fitted RIJCOSX, COSX-SCS-MP3, EOM
   Christian Kollmar      : KDIIS, OOCD, Brueckner-CCSD(T), CCSD density
   Simone Kossmann        : Meta GGA functionals, TD-DFT gradient, OOMP2, MP2 Hessian
   Martin Krupicka        : AUTO-CI
   Lucas Lang             : DCDCAS
   Dagmar Lenk            : GEPOL surface, SMD
   Dimitrios Liakos       : Extrapolation schemes; Compound Job, initial MDCI parallelization
   Dimitrios Manganas     : Further ROCIS development; embedding schemes
   Dimitrios Pantazis     : SARC Basis sets
   Taras Petrenko         : DFT Hessian,TD-DFT gradient, ASA, ECA, R-Raman, ABS, FL, XAS/XES, NRVS
   Peter Pinski           : DLPNO-MP2, DLPNO-MP2 Gradient
   Christoph Reimann      : Effective Core Potentials
   Marius Retegan         : Local ZFS, SOC
   Christoph Riplinger    : Optimizer, TS searches, QM/MM, DLPNO-CCSD(T), (RO)-DLPNO pert. Triples
   Tobias Risthaus        : Range-separated hybrids, TD-DFT gradient, RPA, STAB
   Michael Roemelt        : Original ROCIS implementation
   Masaaki Saitow         : Open-shell DLPNO-CCSD energy and density
   Barbara Sandhoefer     : DKH picture change effects
   Avijit Sen             : IP-ROCIS
   Kantharuban Sivalingam : CASSCF convergence, NEVPT2, FIC-MRCI
   Bernardo de Souza      : ESD, SOC TD-DFT
   Georgi Stoychev        : AutoAux, RI-MP2 NMR
   Willem Van den Heuvel  : Paramagnetic NMR
   Boris Wezisla          : Elementary symmetry handling
   Frank Wennmohs         : Technical directorship


 We gratefully acknowledge several colleagues who have allowed us to
 interface, adapt or use parts of their codes:
   Stefan Grimme, W. Hujo, H. Kruse,             : VdW corrections, initial TS optimization,
                  C. Bannwarth                     DFT functionals, gCP, sTDA/sTD-DF
   Ed Valeev, F. Pavosevic, A. Kumar             : LibInt (2-el integral package), F12 methods
   Garnet Chan, S. Sharma, J. Yang, R. Olivares  : DMRG
   Ulf Ekstrom                                   : XCFun DFT Library
   Mihaly Kallay                                 : mrcc  (arbitrary order and MRCC methods)
   Andreas Klamt, Michael Diedenhofen            : otool_cosmo (COSMO solvation model)
   Jiri Pittner, Ondrej Demel                    : Mk-CCSD
   Frank Weinhold                                : gennbo (NPA and NBO analysis)
   Christopher J. Cramer and Donald G. Truhlar   : smd solvation model
   Lars Goerigk                                  : TD-DFT with DH, B97 family of functionals
   V. Asgeirsson, H. Jonsson                     : NEB implementation
   FAccTs GmbH                                   : IRC, NEB, NEB-TS, Multilevel, MM, QM/MM, CI optimization
   S Lehtola, MJT Oliveira, MAL Marques          : LibXC Library


 Your calculation uses the libint2 library for the computation of 2-el integrals
 For citations please refer to: http://libint.valeyev.net

 Your ORCA version has been built with support for libXC version: 4.2.3
 For citations please refer to: https://tddft.org/programs/libxc/

 This ORCA versions uses:
   CBLAS   interface :  Fast vector & matrix operations
   LAPACKE interface :  Fast linear algebra routines
   SCALAPACK package :  Parallel linear algebra routines


----- Orbital basis set information -----
Your calculation utilizes the basis: def2-TZVP
   F. Weigend and R. Ahlrichs, Phys. Chem. Chem. Phys. 7, 3297 (2005).

================================================================================
                                        WARNINGS
                       Please study these warnings very carefully!
================================================================================


WARNING: The frozen-core approximation for MP2-gradient calculations is turned on by default.

INFO   : the flag for use of LIBINT has been found!

================================================================================
                                       INPUT FILE
================================================================================
NAME = 12h2o.su.etal.mol1,2,5,8,10-orca.engrad-mp2.def2tzvp.frozencore.inp
|  1> # 12h2o.su.etal.mol1,2,5,8,10
|  2> ! MP2 def2-TZVP EnGrad TightSCF
|  3> 
|  4> %pal
|  5>     nprocs 6
|  6> end
|  7> 
|  8> %maxcore 8000
|  9> 
| 10> %scf
| 11>     ConvForced true
| 12> end
| 13> 
| 14> *xyz 0 1
| 15> O  -1.794470000  -0.923410000   2.768350000
| 16> H  -2.338250000  -1.359750000   3.430940000
| 17> H  -0.879480000  -1.303000000   2.865760000
| 18> O   0.923410000  -1.794470000  -2.768350000
| 19> H   1.359750000  -2.338250000  -3.430940000
| 20> H   1.303000000  -0.879480000  -2.865760000
| 21> O   0.885520000  -1.737840000   0.052730000
| 22> H   1.284090000  -0.839590000   0.017130000
| 23> H   1.032320000  -2.090180000  -0.841890000
| 24> O   1.752130000   0.741530000  -2.896280000
| 25> H   2.036450000   0.920500000  -1.984040000
| 26> H   0.921210000   1.242140000  -2.984230000
| 27> O  -0.923410000   1.794470000  -2.768350000
| 28> H  -1.359750000   2.338250000  -3.430940000
| 29> H  -1.303000000   0.879480000  -2.865760000
| 30> *
| 31> 
| 32>                          ****END OF INPUT****
================================================================================

                     *******************************
                     * Energy+Gradient Calculation *
                     *******************************

---------------------------------
CARTESIAN COORDINATES (ANGSTROEM)
---------------------------------
  O     -1.794470   -0.923410    2.768350
  H     -2.338250   -1.359750    3.430940
  H     -0.879480   -1.303000    2.865760
  O      0.923410   -1.794470   -2.768350
  H      1.359750   -2.338250   -3.430940
  H      1.303000   -0.879480   -2.865760
  O      0.885520   -1.737840    0.052730
  H      1.284090   -0.839590    0.017130
  H      1.032320   -2.090180   -0.841890
  O      1.752130    0.741530   -2.896280
  H      2.036450    0.920500   -1.984040
  H      0.921210    1.242140   -2.984230
  O     -0.923410    1.794470   -2.768350
  H     -1.359750    2.338250   -3.430940
  H     -1.303000    0.879480   -2.865760

----------------------------
CARTESIAN COORDINATES (A.U.)
----------------------------
  NO LB      ZA    FRAG     MASS         X           Y           Z
   0 O     8.0000    0    15.999   -3.391057   -1.744992    5.231423
   1 H     1.0000    0     1.008   -4.418652   -2.569555    6.483537
   2 H     1.0000    0     1.008   -1.661976   -2.462313    5.415502
   3 O     8.0000    0    15.999    1.744992   -3.391057   -5.231423
   4 H     1.0000    0     1.008    2.569555   -4.418652   -6.483537
   5 H     1.0000    0     1.008    2.462313   -1.661976   -5.415502
   6 O     8.0000    0    15.999    1.673390   -3.284042    0.099645
   7 H     1.0000    0     1.008    2.426578   -1.586595    0.032371
   8 H     1.0000    0     1.008    1.950802   -3.949868   -1.590942
   9 O     8.0000    0    15.999    3.311046    1.401289   -5.473176
  10 H     1.0000    0     1.008    3.848333    1.739493   -3.749292
  11 H     1.0000    0     1.008    1.740835    2.347304   -5.639377
  12 O     8.0000    0    15.999   -1.744992    3.391057   -5.231423
  13 H     1.0000    0     1.008   -2.569555    4.418652   -6.483537
  14 H     1.0000    0     1.008   -2.462313    1.661976   -5.415502

--------------------------------
INTERNAL COORDINATES (ANGSTROEM)
--------------------------------
 O      0   0   0     0.000000000000     0.00000000     0.00000000
 H      1   0   0     0.961828878803     0.00000000     0.00000000
 H      1   2   0     0.995381322057   106.21731035     0.00000000
 O      3   1   2     5.935920367146   102.58474291   140.89009172
 H      4   3   1     0.961828878803   146.97742434   224.01286022
 H      4   3   1     0.995381322057    97.62005672    87.72090689
 O      4   3   1     2.821902722526    17.32744736   169.52589616
 H      7   4   3     0.983350632989    88.66470709   258.45499027
 H      7   4   3     0.972645187106    21.75017499   124.29821266
 O      6   4   3     1.682356278379   171.61043709   321.17145860
 H     10   6   4     0.972136791249   103.79460456    70.64587838
 H     10   6   4     0.974050112161   105.61118924   321.69395179
 O     12  10   6     1.937600461318   161.54375213    39.05245435
 H     13  12  10     0.961828878803   121.08403650   202.75419110
 H     13  12  10     0.995381322057    95.17003195   315.21089530

---------------------------
INTERNAL COORDINATES (A.U.)
---------------------------
 O      0   0   0     0.000000000000     0.00000000     0.00000000
 H      1   0   0     1.817593168635     0.00000000     0.00000000
 H      1   2   0     1.880998097508   106.21731035     0.00000000
 O      3   1   2    11.217263846671   102.58474291   140.89009172
 H      4   3   1     1.817593168635   146.97742434   224.01286022
 H      4   3   1     1.880998097508    97.62005672    87.72090689
 O      4   3   1     5.332623322141    17.32744736   169.52589616
 H      7   4   3     1.858263389967    88.66470709   258.45499027
 H      7   4   3     1.838033029106    21.75017499   124.29821266
 O      6   4   3     3.179192625819   171.61043709   321.17145860
 H     10   6   4     1.837072300170   103.79460456    70.64587838
 H     10   6   4     1.840687952699   105.61118924   321.69395179
 O     12  10   6     3.661534228851   161.54375213    39.05245435
 H     13  12  10     1.817593168635   121.08403650   202.75419110
 H     13  12  10     1.880998097508    95.17003195   315.21089530

---------------------
BASIS SET INFORMATION
---------------------
There are 2 groups of distinct atoms

 Group   1 Type O   : 11s6p2d1f contracted to 5s3p2d1f pattern {62111/411/11/1}
 Group   2 Type H   : 5s1p contracted to 3s1p pattern {311/1}

Atom   0O    basis set group =>   1
Atom   1H    basis set group =>   2
Atom   2H    basis set group =>   2
Atom   3O    basis set group =>   1
Atom   4H    basis set group =>   2
Atom   5H    basis set group =>   2
Atom   6O    basis set group =>   1
Atom   7H    basis set group =>   2
Atom   8H    basis set group =>   2
Atom   9O    basis set group =>   1
Atom  10H    basis set group =>   2
Atom  11H    basis set group =>   2
Atom  12O    basis set group =>   1
Atom  13H    basis set group =>   2
Atom  14H    basis set group =>   2


           ************************************************************
           *        Program running with 6 parallel MPI-processes     *
           *              working on a common directory               *
           ************************************************************
------------------------------------------------------------------------------
                           ORCA GTO INTEGRAL CALCULATION
------------------------------------------------------------------------------

                         BASIS SET STATISTICS AND STARTUP INFO

 # of primitive gaussian shells          ...  160
 # of primitive gaussian functions       ...  310
 # of contracted shells                  ...   95
 # of contracted basis functions         ...  215
 Highest angular momentum                ...    3
 Maximum contraction depth               ...    6
 Integral package used                   ... LIBINT
 Integral threshhold            Thresh   ...  2.500e-11
 Primitive cut-off              TCut     ...  2.500e-12


------------------------------ INTEGRAL EVALUATION ----------------------------


 * One electron integrals 
 Pre-screening matrix                    ... done
 Shell pair data                         ... done (   0.001 sec)



           ************************************************************
           *        Program running with 6 parallel MPI-processes     *
           *              working on a common directory               *
           ************************************************************
-------------------------------------------------------------------------------
                                 ORCA SCF
-------------------------------------------------------------------------------

------------
SCF SETTINGS
------------
Hamiltonian:
 Ab initio Hamiltonian  Method          .... Hartree-Fock(GTOs)


General Settings:
 Integral files         IntName         .... 12h2o.su.etal.mol1,2,5,8,10-orca.engrad-mp2.def2tzvp.frozencore
 Hartree-Fock type      HFTyp           .... RHF
 Total Charge           Charge          ....    0
 Multiplicity           Mult            ....    1
 Number of Electrons    NEL             ....   50
 Basis Dimension        Dim             ....  215
 Nuclear Repulsion      ENuc            ....    178.0714432742 Eh

Convergence Acceleration:
 DIIS                   CNVDIIS         .... on
   Start iteration      DIISMaxIt       ....    12
   Startup error        DIISStart       ....  0.200000
   # of expansion vecs  DIISMaxEq       ....     5
   Bias factor          DIISBfac        ....   1.050
   Max. coefficient     DIISMaxC        ....  10.000
 Newton-Raphson         CNVNR           .... off
 SOSCF                  CNVSOSCF        .... on
   Start iteration      SOSCFMaxIt      ....   150
   Startup grad/error   SOSCFStart      ....  0.003300
 Level Shifting         CNVShift        .... on
   Level shift para.    LevelShift      ....    0.2500
   Turn off err/grad.   ShiftErr        ....    0.0010
 Zerner damping         CNVZerner       .... off
 Static damping         CNVDamp         .... on
   Fraction old density DampFac         ....    0.7000
   Max. Damping (<1)    DampMax         ....    0.9800
   Min. Damping (>=0)   DampMin         ....    0.0000
   Turn off err/grad.   DampErr         ....    0.1000
 Fernandez-Rico         CNVRico         .... off

SCF Procedure:
 Maximum # iterations   MaxIter         ....   125
 SCF integral mode      SCFMode         .... Direct
   Integral package                     .... LIBINT
 Reset frequency        DirectResetFreq ....    20
 Integral Threshold     Thresh          ....  2.500e-11 Eh
 Primitive CutOff       TCut            ....  2.500e-12 Eh

Convergence Tolerance:
 Convergence Check Mode ConvCheckMode   .... Total+1el-Energy
 Convergence forced     ConvForced      .... 1
 Energy Change          TolE            ....  1.000e-08 Eh
 1-El. energy change                    ....  1.000e-05 Eh
 Orbital Gradient       TolG            ....  1.000e-05
 Orbital Rotation angle TolX            ....  1.000e-05
 DIIS Error             TolErr          ....  5.000e-07


Diagonalization of the overlap matrix:
Smallest eigenvalue                        ... 4.166e-03
Time for diagonalization                   ...    0.006 sec
Threshold for overlap eigenvalues          ... 1.000e-08
Number of eigenvalues below threshold      ... 0
Time for construction of square roots      ...    0.003 sec
Total time needed                          ...    0.009 sec

-------------------
DFT GRID GENERATION
-------------------

General Integration Accuracy     IntAcc      ...  4.340
Radial Grid Type                 RadialGrid  ... Gauss-Chebyshev
Angular Grid (max. acc.)         AngularGrid ... Lebedev-110
Angular grid pruning method      GridPruning ... 3 (G Style)
Weight generation scheme         WeightScheme... Becke
Basis function cutoff            BFCut       ...    1.0000e-11
Integration weight cutoff        WCut        ...    1.0000e-14
Grids for H and He will be reduced by one unit

# of grid points (after initial pruning)     ...  16520 (   0.0 sec)
# of grid points (after weights+screening)   ...  15849 (   0.0 sec)
nearest neighbour list constructed           ...    0.0 sec
Grid point re-assignment to atoms done       ...    0.0 sec
Grid point division into batches done        ...    0.0 sec
Reduced shell lists constructed in    0.0 sec

Total number of grid points                  ...    15849
Total number of batches                      ...      255
Average number of points per batch           ...       62
Average number of grid points per atom       ...     1057
Average number of shells per batch           ...    33.02 (34.76%)
Average number of basis functions per batch  ...    64.57 (30.03%)
Average number of large shells per batch     ...    21.59 (65.38%)
Average number of large basis fcns per batch ...    45.55 (70.54%)
Maximum spatial batch extension              ...  15.12, 20.95, 17.80 au
Average spatial batch extension              ...   0.81,  0.97,  0.81 au

Time for grid setup =    0.041 sec

------------------------------
INITIAL GUESS: MODEL POTENTIAL
------------------------------
Loading Hartree-Fock densities                     ... done
Calculating cut-offs                               ... done
Setting up the integral package                    ... done
Initializing the effective Hamiltonian             ... done
Starting the Coulomb interaction                   ... done (   0.0 sec)
Reading the grid                                   ... done
Mapping shells                                     ... done
Starting the XC term evaluation                    ... done (   0.0 sec)
Transforming the Hamiltonian                       ... done (   0.0 sec)
Diagonalizing the Hamiltonian                      ... done (   0.0 sec)
Back transforming the eigenvectors                 ... done (   0.0 sec)
Now organizing SCF variables                       ... done
                      ------------------
                      INITIAL GUESS DONE (   0.1 sec)
                      ------------------
--------------
SCF ITERATIONS
--------------
ITER       Energy         Delta-E        Max-DP      RMS-DP      [F,P]     Damp
               ***  Starting incremental Fock matrix formation  ***
  0   -379.8411696310   0.000000000000 0.04339795  0.00107539  0.3495871 0.7000
  1   -380.0237140622  -0.182544431149 0.02896247  0.00074194  0.2163244 0.7000
                               ***Turning on DIIS***
  2   -380.1196943645  -0.095980302272 0.01684796  0.00040982  0.1638308 0.7000
  3   -380.9748533050  -0.855158940574 0.00775675  0.00018231  0.1218976 0.7000
  4   -380.8000391941   0.174814110964 0.01708256  0.00041943  0.0861849 0.0000
  5   -380.3403589560   0.459680238101 0.00209143  0.00006788  0.0059433 0.0000
                      *** Initiating the SOSCF procedure ***
                           *** Shutting down DIIS ***
                      *** Re-Reading the Fockian *** 
                      *** Removing any level shift *** 
ITER      Energy       Delta-E        Grad      Rot      Max-DP    RMS-DP
  6   -380.31274741   0.0276115417  0.000838  0.000838  0.001359  0.000041
               *** Restarting incremental Fock matrix formation ***
  7   -380.30414424   0.0086031723  0.000365  0.000521  0.000656  0.000018
  8   -380.30415179  -0.0000075526  0.000149  0.000378  0.000508  0.000015
  9   -380.30415362  -0.0000018286  0.000073  0.000046  0.000097  0.000003
 10   -380.30415377  -0.0000001501  0.000008  0.000007  0.000017  0.000000
                  ***Gradient check signals convergence***
              ***Rediagonalizing the Fockian in SOSCF/NRSCF***

               *****************************************************
               *                     SUCCESS                       *
               *           SCF CONVERGED AFTER  11 CYCLES          *
               *****************************************************


----------------
TOTAL SCF ENERGY
----------------

Total Energy       :         -380.30415378 Eh          -10348.60214 eV

Components:
Nuclear Repulsion  :          178.07144327 Eh            4845.57032 eV
Electronic Energy  :         -558.37559705 Eh          -15194.17245 eV
One Electron Energy:         -879.86038284 Eh          -23942.21822 eV
Two Electron Energy:          321.48478579 Eh            8748.04576 eV

Virial components:
Potential Energy   :         -760.04110971 Eh          -20681.77004 eV
Kinetic Energy     :          379.73695593 Eh           10333.16790 eV
Virial Ratio       :            2.00149366


---------------
SCF CONVERGENCE
---------------

  Last Energy change         ...   -3.2835e-09  Tolerance :   1.0000e-08
  Last MAX-Density change    ...    4.0674e-06  Tolerance :   1.0000e-07
  Last RMS-Density change    ...    1.5277e-07  Tolerance :   5.0000e-09
  Last Orbital Gradient      ...    1.6487e-06  Tolerance :   1.0000e-05
  Last Orbital Rotation      ...    2.5234e-06  Tolerance :   1.0000e-05

             **** THE GBW FILE WAS UPDATED (12h2o.su.etal.mol1,2,5,8,10-orca.engrad-mp2.def2tzvp.frozencore.gbw) ****
             **** DENSITY FILE WAS UPDATED (12h2o.su.etal.mol1,2,5,8,10-orca.engrad-mp2.def2tzvp.frozencore.scfp) ****
             **** ENERGY FILE WAS UPDATED (12h2o.su.etal.mol1,2,5,8,10-orca.engrad-mp2.def2tzvp.frozencore.en.tmp) ****
             **** THE GBW FILE WAS UPDATED (12h2o.su.etal.mol1,2,5,8,10-orca.engrad-mp2.def2tzvp.frozencore.gbw) ****
             **** DENSITY FILE WAS UPDATED (12h2o.su.etal.mol1,2,5,8,10-orca.engrad-mp2.def2tzvp.frozencore.scfp) ****
----------------
ORBITAL ENERGIES
----------------

  NO   OCC          E(Eh)            E(eV) 
   0   2.0000     -20.597013      -560.4732 
   1   2.0000     -20.581850      -560.0606 
   2   2.0000     -20.544134      -559.0343 
   3   2.0000     -20.542836      -558.9990 
   4   2.0000     -20.526509      -558.5547 
   5   2.0000      -1.378241       -37.5039 
   6   2.0000      -1.367397       -37.2088 
   7   2.0000      -1.327528       -36.1239 
   8   2.0000      -1.319538       -35.9065 
   9   2.0000      -1.304432       -35.4954 
  10   2.0000      -0.744601       -20.2616 
  11   2.0000      -0.728728       -19.8297 
  12   2.0000      -0.711066       -19.3491 
  13   2.0000      -0.687754       -18.7147 
  14   2.0000      -0.673837       -18.3360 
  15   2.0000      -0.626736       -17.0544 
  16   2.0000      -0.601846       -16.3771 
  17   2.0000      -0.573377       -15.6024 
  18   2.0000      -0.555757       -15.1229 
  19   2.0000      -0.547744       -14.9049 
  20   2.0000      -0.538074       -14.6417 
  21   2.0000      -0.517050       -14.0696 
  22   2.0000      -0.490300       -13.3418 
  23   2.0000      -0.487268       -13.2592 
  24   2.0000      -0.471857       -12.8399 
  25   0.0000       0.098013         2.6671 
  26   0.0000       0.128209         3.4887 
  27   0.0000       0.145418         3.9570 
  28   0.0000       0.160091         4.3563 
  29   0.0000       0.190795         5.1918 
  30   0.0000       0.203642         5.5414 
  31   0.0000       0.235925         6.4198 
  32   0.0000       0.273898         7.4531 
  33   0.0000       0.292944         7.9714 
  34   0.0000       0.334772         9.1096 
  35   0.0000       0.452606        12.3160 
  36   0.0000       0.479703        13.0534 
  37   0.0000       0.505741        13.7619 
  38   0.0000       0.513769        13.9804 
  39   0.0000       0.534904        14.5555 
  40   0.0000       0.551702        15.0126 
  41   0.0000       0.557866        15.1803 
  42   0.0000       0.574112        15.6224 
  43   0.0000       0.580864        15.8061 
  44   0.0000       0.596605        16.2344 
  45   0.0000       0.602045        16.3825 
  46   0.0000       0.619891        16.8681 
  47   0.0000       0.635087        17.2816 
  48   0.0000       0.641013        17.4429 
  49   0.0000       0.659950        17.9582 
  50   0.0000       0.663558        18.0563 
  51   0.0000       0.716753        19.5038 
  52   0.0000       0.733442        19.9580 
  53   0.0000       0.738484        20.0952 
  54   0.0000       0.743580        20.2338 
  55   0.0000       0.770094        20.9553 
  56   0.0000       0.787742        21.4355 
  57   0.0000       0.797767        21.7083 
  58   0.0000       0.815942        22.2029 
  59   0.0000       0.841572        22.9003 
  60   0.0000       0.854120        23.2418 
  61   0.0000       0.904717        24.6186 
  62   0.0000       0.921192        25.0669 
  63   0.0000       0.996593        27.1187 
  64   0.0000       1.033347        28.1188 
  65   0.0000       1.351672        36.7809 
  66   0.0000       1.389297        37.8047 
  67   0.0000       1.404611        38.2214 
  68   0.0000       1.417388        38.5691 
  69   0.0000       1.435994        39.0754 
  70   0.0000       1.442315        39.2474 
  71   0.0000       1.454209        39.5710 
  72   0.0000       1.459689        39.7202 
  73   0.0000       1.486377        40.4464 
  74   0.0000       1.504524        40.9402 
  75   0.0000       1.541165        41.9372 
  76   0.0000       1.567783        42.6616 
  77   0.0000       1.572331        42.7853 
  78   0.0000       1.616931        43.9989 
  79   0.0000       1.656781        45.0833 
  80   0.0000       1.788497        48.6675 
  81   0.0000       1.810393        49.2633 
  82   0.0000       1.820333        49.5338 
  83   0.0000       1.855335        50.4862 
  84   0.0000       1.873148        50.9709 
  85   0.0000       1.893659        51.5291 
  86   0.0000       1.918072        52.1934 
  87   0.0000       1.960859        53.3577 
  88   0.0000       1.973795        53.7097 
  89   0.0000       1.996108        54.3169 
  90   0.0000       2.024879        55.0998 
  91   0.0000       2.033516        55.3348 
  92   0.0000       2.053346        55.8744 
  93   0.0000       2.135250        58.1031 
  94   0.0000       2.156677        58.6862 
  95   0.0000       2.234291        60.7981 
  96   0.0000       2.291924        62.3664 
  97   0.0000       2.297644        62.5221 
  98   0.0000       2.314016        62.9676 
  99   0.0000       2.337219        63.5990 
 100   0.0000       2.342935        63.7545 
 101   0.0000       2.348619        63.9092 
 102   0.0000       2.356587        64.1260 
 103   0.0000       2.378981        64.7354 
 104   0.0000       2.384238        64.8784 
 105   0.0000       2.408638        65.5424 
 106   0.0000       2.414397        65.6991 
 107   0.0000       2.500656        68.0463 
 108   0.0000       2.509822        68.2957 
 109   0.0000       2.547620        69.3243 
 110   0.0000       2.573844        70.0378 
 111   0.0000       2.595132        70.6171 
 112   0.0000       2.600886        70.7737 
 113   0.0000       2.637401        71.7673 
 114   0.0000       2.648771        72.0767 
 115   0.0000       2.661730        72.4294 
 116   0.0000       2.691679        73.2443 
 117   0.0000       2.716547        73.9210 
 118   0.0000       2.742446        74.6257 
 119   0.0000       2.781255        75.6818 
 120   0.0000       2.871843        78.1468 
 121   0.0000       2.922897        79.5361 
 122   0.0000       2.929202        79.7077 
 123   0.0000       2.945247        80.1442 
 124   0.0000       2.961949        80.5987 
 125   0.0000       2.988460        81.3201 
 126   0.0000       2.993987        81.4705 
 127   0.0000       3.005402        81.7812 
 128   0.0000       3.027079        82.3710 
 129   0.0000       3.032802        82.5267 
 130   0.0000       3.057683        83.2038 
 131   0.0000       3.070340        83.5482 
 132   0.0000       3.096771        84.2674 
 133   0.0000       3.137457        85.3745 
 134   0.0000       3.161989        86.0421 
 135   0.0000       3.223856        87.7256 
 136   0.0000       3.272274        89.0431 
 137   0.0000       3.281583        89.2964 
 138   0.0000       3.307521        90.0022 
 139   0.0000       3.511449        95.5514 
 140   0.0000       3.963248       107.8455 
 141   0.0000       4.001586       108.8887 
 142   0.0000       4.026290       109.5609 
 143   0.0000       4.076963       110.9398 
 144   0.0000       4.114673       111.9660 
 145   0.0000       4.278241       116.4168 
 146   0.0000       4.303547       117.1055 
 147   0.0000       4.328910       117.7956 
 148   0.0000       4.339707       118.0894 
 149   0.0000       4.384845       119.3177 
 150   0.0000       5.514434       150.0554 
 151   0.0000       5.522396       150.2720 
 152   0.0000       5.565511       151.4453 
 153   0.0000       5.569935       151.5656 
 154   0.0000       5.582064       151.8957 
 155   0.0000       5.610849       152.6790 
 156   0.0000       5.650228       153.7505 
 157   0.0000       5.658943       153.9877 
 158   0.0000       5.672298       154.3511 
 159   0.0000       5.690692       154.8516 
 160   0.0000       5.779884       157.2787 
 161   0.0000       5.802558       157.8956 
 162   0.0000       5.811920       158.1504 
 163   0.0000       5.832480       158.7098 
 164   0.0000       5.834229       158.7574 
 165   0.0000       5.846916       159.1027 
 166   0.0000       5.858484       159.4174 
 167   0.0000       5.867990       159.6761 
 168   0.0000       5.870044       159.7320 
 169   0.0000       5.873429       159.8241 
 170   0.0000       5.885946       160.1647 
 171   0.0000       5.901879       160.5983 
 172   0.0000       5.931786       161.4121 
 173   0.0000       5.936739       161.5469 
 174   0.0000       5.945065       161.7734 
 175   0.0000       6.397644       174.0888 
 176   0.0000       6.450265       175.5206 
 177   0.0000       6.464701       175.9135 
 178   0.0000       6.486127       176.4965 
 179   0.0000       6.502439       176.9404 
 180   0.0000       6.664180       181.3416 
 181   0.0000       6.688701       182.0088 
 182   0.0000       6.715407       182.7355 
 183   0.0000       6.717555       182.7940 
 184   0.0000       6.744734       183.5335 
 185   0.0000       6.833671       185.9536 
 186   0.0000       6.840848       186.1489 
 187   0.0000       6.845982       186.2886 
 188   0.0000       6.865734       186.8261 
 189   0.0000       6.879963       187.2133 
 190   0.0000       6.902610       187.8296 
 191   0.0000       6.908343       187.9856 
 192   0.0000       6.908381       187.9866 
 193   0.0000       6.916751       188.2144 
 194   0.0000       6.942749       188.9218 
 195   0.0000       6.948034       189.0656 
 196   0.0000       6.956958       189.3084 
 197   0.0000       6.981309       189.9711 
 198   0.0000       7.000344       190.4891 
 199   0.0000       7.082120       192.7143 
 200   0.0000       7.347909       199.9468 
 201   0.0000       7.381055       200.8487 
 202   0.0000       7.393541       201.1885 
 203   0.0000       7.434055       202.2909 
 204   0.0000       7.459942       202.9953 
 205   0.0000       7.489018       203.7865 
 206   0.0000       7.506917       204.2736 
 207   0.0000       7.526169       204.7975 
 208   0.0000       7.567504       205.9223 
 209   0.0000       7.593439       206.6280 
 210   0.0000      44.841290      1220.1935 
 211   0.0000      44.853053      1220.5136 
 212   0.0000      44.949375      1223.1347 
 213   0.0000      44.974390      1223.8154 
 214   0.0000      44.987180      1224.1634 

                    ********************************
                    * MULLIKEN POPULATION ANALYSIS *
                    ********************************

-----------------------
MULLIKEN ATOMIC CHARGES
-----------------------
   0 O :   -0.701943
   1 H :    0.339726
   2 H :    0.361107
   3 O :   -0.768262
   4 H :    0.344447
   5 H :    0.394120
   6 O :   -0.715587
   7 H :    0.314390
   8 H :    0.389295
   9 O :   -0.731315
  10 H :    0.355762
  11 H :    0.399568
  12 O :   -0.728296
  13 H :    0.364743
  14 H :    0.382243
Sum of atomic charges:    0.0000000

--------------------------------
MULLIKEN REDUCED ORBITAL CHARGES
--------------------------------
  0 O s       :     3.813622  s :     3.813622
      pz      :     1.717969  p :     4.861197
      px      :     1.349911
      py      :     1.793316
      dz2     :     0.004474  d :     0.025572
      dxz     :     0.004936
      dyz     :     0.005966
      dx2y2   :     0.002518
      dxy     :     0.007677
      f0      :     0.000092  f :     0.001552
      f+1     :     0.000345
      f-1     :     0.000194
      f+2     :     0.000070
      f-2     :     0.000360
      f+3     :     0.000098
      f-3     :     0.000392
  1 H s       :     0.614258  s :     0.614258
      pz      :     0.017258  p :     0.046015
      px      :     0.013565
      py      :     0.015193
  2 H s       :     0.596768  s :     0.596768
      pz      :     0.011315  p :     0.042125
      px      :     0.017835
      py      :     0.012975
  3 O s       :     3.809776  s :     3.809776
      pz      :     1.709727  p :     4.934003
      px      :     1.808512
      py      :     1.415765
      dz2     :     0.003665  d :     0.023057
      dxz     :     0.005472
      dyz     :     0.004260
      dx2y2   :     0.002263
      dxy     :     0.007397
      f0      :     0.000079  f :     0.001425
      f+1     :     0.000176
      f-1     :     0.000311
      f+2     :     0.000069
      f-2     :     0.000348
      f+3     :     0.000354
      f-3     :     0.000089
  4 H s       :     0.609793  s :     0.609793
      pz      :     0.016857  p :     0.045759
      px      :     0.014948
      py      :     0.013955
  5 H s       :     0.549174  s :     0.549174
      pz      :     0.010343  p :     0.056706
      px      :     0.014098
      py      :     0.032265
  6 O s       :     3.809522  s :     3.809522
      pz      :     1.590361  p :     4.879513
      px      :     1.870885
      py      :     1.418267
      dz2     :     0.010992  d :     0.025079
      dxz     :     0.002610
      dyz     :     0.002766
      dx2y2   :     0.003181
      dxy     :     0.005530
      f0      :     0.000163  f :     0.001474
      f+1     :     0.000125
      f-1     :     0.000444
      f+2     :     0.000079
      f-2     :     0.000041
      f+3     :     0.000491
      f-3     :     0.000131
  7 H s       :     0.641421  s :     0.641421
      pz      :     0.010677  p :     0.044189
      px      :     0.015622
      py      :     0.017889
  8 H s       :     0.561496  s :     0.561496
      pz      :     0.024805  p :     0.049209
      px      :     0.013169
      py      :     0.011235
  9 O s       :     3.794809  s :     3.794809
      pz      :     1.517409  p :     4.910251
      px      :     1.599721
      py      :     1.793121
      dz2     :     0.012288  d :     0.024857
      dxz     :     0.001257
      dyz     :     0.002365
      dx2y2   :     0.002318
      dxy     :     0.006629
      f0      :     0.000253  f :     0.001398
      f+1     :     0.000388
      f-1     :     0.000157
      f+2     :     0.000052
      f-2     :     0.000056
      f+3     :     0.000048
      f-3     :     0.000445
 10 H s       :     0.600333  s :     0.600333
      pz      :     0.019132  p :     0.043905
      px      :     0.011882
      py      :     0.012891
 11 H s       :     0.551243  s :     0.551243
      pz      :     0.009443  p :     0.049189
      px      :     0.024334
      py      :     0.015412
 12 O s       :     3.809119  s :     3.809119
      pz      :     1.737313  p :     4.893159
      px      :     1.778410
      py      :     1.377436
      dz2     :     0.004442  d :     0.024517
      dxz     :     0.005538
      dyz     :     0.005038
      dx2y2   :     0.002583
      dxy     :     0.006916
      f0      :     0.000094  f :     0.001501
      f+1     :     0.000184
      f-1     :     0.000352
      f+2     :     0.000060
      f-2     :     0.000356
      f+3     :     0.000364
      f-3     :     0.000091
 13 H s       :     0.589927  s :     0.589927
      pz      :     0.017366  p :     0.045330
      px      :     0.014685
      py      :     0.013279
 14 H s       :     0.576542  s :     0.576542
      pz      :     0.010958  p :     0.041215
      px      :     0.012117
      py      :     0.018140


                     *******************************
                     * LOEWDIN POPULATION ANALYSIS *
                     *******************************

----------------------
LOEWDIN ATOMIC CHARGES
----------------------
   0 O :   -0.339347
   1 H :    0.153914
   2 H :    0.183951
   3 O :   -0.347943
   4 H :    0.152394
   5 H :    0.151972
   6 O :   -0.348998
   7 H :    0.155412
   8 H :    0.156657
   9 O :   -0.289843
  10 H :    0.167353
  11 H :    0.162616
  12 O :   -0.316749
  13 H :    0.164976
  14 H :    0.193636

-------------------------------
LOEWDIN REDUCED ORBITAL CHARGES
-------------------------------
  0 O s       :     3.475991  s :     3.475991
      pz      :     1.704729  p :     4.828373
      px      :     1.350952
      py      :     1.772693
      dz2     :     0.005033  d :     0.032840
      dxz     :     0.007480
      dyz     :     0.006102
      dx2y2   :     0.003926
      dxy     :     0.010298
      f0      :     0.000079  f :     0.002143
      f+1     :     0.000464
      f-1     :     0.000280
      f+2     :     0.000036
      f-2     :     0.000632
      f+3     :     0.000094
      f-3     :     0.000557
  1 H s       :     0.683356  s :     0.683356
      pz      :     0.066060  p :     0.162730
      px      :     0.043782
      py      :     0.052888
  2 H s       :     0.668538  s :     0.668538
      pz      :     0.033302  p :     0.147511
      px      :     0.070742
      py      :     0.043467
  3 O s       :     3.461851  s :     3.461851
      pz      :     1.677369  p :     4.854572
      px      :     1.781478
      py      :     1.395725
      dz2     :     0.004671  d :     0.029532
      dxz     :     0.005709
      dyz     :     0.006818
      dx2y2   :     0.003261
      dxy     :     0.009072
      f0      :     0.000084  f :     0.001989
      f+1     :     0.000261
      f-1     :     0.000429
      f+2     :     0.000034
      f-2     :     0.000618
      f+3     :     0.000478
      f-3     :     0.000084
  4 H s       :     0.682740  s :     0.682740
      pz      :     0.065836  p :     0.164866
      px      :     0.053274
      py      :     0.045755
  5 H s       :     0.651770  s :     0.651770
      pz      :     0.033512  p :     0.196258
      px      :     0.047798
      py      :     0.114948
  6 O s       :     3.472328  s :     3.472328
      pz      :     1.575349  p :     4.842745
      px      :     1.831705
      py      :     1.435691
      dz2     :     0.014101  d :     0.031818
      dxz     :     0.001669
      dyz     :     0.003735
      dx2y2   :     0.004768
      dxy     :     0.007546
      f0      :     0.000334  f :     0.002106
      f+1     :     0.000201
      f-1     :     0.000727
      f+2     :     0.000045
      f-2     :     0.000040
      f+3     :     0.000681
      f-3     :     0.000078
  7 H s       :     0.692064  s :     0.692064
      pz      :     0.031059  p :     0.152525
      px      :     0.049487
      py      :     0.071978
  8 H s       :     0.670736  s :     0.670736
      pz      :     0.094665  p :     0.172607
      px      :     0.042607
      py      :     0.035335
  9 O s       :     3.452654  s :     3.452654
      pz      :     1.513398  p :     4.803434
      px      :     1.556972
      py      :     1.733063
      dz2     :     0.016330  d :     0.031648
      dxz     :     0.002093
      dyz     :     0.001910
      dx2y2   :     0.003338
      dxy     :     0.007976
      f0      :     0.000473  f :     0.002108
      f+1     :     0.000575
      f-1     :     0.000333
      f+2     :     0.000021
      f-2     :     0.000051
      f+3     :     0.000026
      f-3     :     0.000628
 10 H s       :     0.673480  s :     0.673480
      pz      :     0.080304  p :     0.159167
      px      :     0.036734
      py      :     0.042129
 11 H s       :     0.662408  s :     0.662408
      pz      :     0.029337  p :     0.174977
      px      :     0.087637
      py      :     0.058002
 12 O s       :     3.467326  s :     3.467326
      pz      :     1.711849  p :     4.815926
      px      :     1.740759
      py      :     1.363318
      dz2     :     0.005029  d :     0.031433
      dxz     :     0.005468
      dyz     :     0.007145
      dx2y2   :     0.004342
      dxy     :     0.009449
      f0      :     0.000079  f :     0.002063
      f+1     :     0.000271
      f-1     :     0.000456
      f+2     :     0.000033
      f-2     :     0.000610
      f+3     :     0.000524
      f-3     :     0.000090
 13 H s       :     0.671597  s :     0.671597
      pz      :     0.066468  p :     0.163426
      px      :     0.052477
      py      :     0.044482
 14 H s       :     0.657701  s :     0.657701
      pz      :     0.033230  p :     0.148663
      px      :     0.043357
      py      :     0.072076


                      *****************************
                      * MAYER POPULATION ANALYSIS *
                      *****************************

  NA   - Mulliken gross atomic population
  ZA   - Total nuclear charge
  QA   - Mulliken gross atomic charge
  VA   - Mayer's total valence
  BVA  - Mayer's bonded valence
  FA   - Mayer's free valence

  ATOM       NA         ZA         QA         VA         BVA        FA
  0 O      8.7019     8.0000    -0.7019     1.7697     1.7697     0.0000
  1 H      0.6603     1.0000     0.3397     0.8990     0.8990     0.0000
  2 H      0.6389     1.0000     0.3611     0.8834     0.8834     0.0000
  3 O      8.7683     8.0000    -0.7683     1.6910     1.6910     0.0000
  4 H      0.6556     1.0000     0.3444     0.8974     0.8974    -0.0000
  5 H      0.6059     1.0000     0.3941     0.8835     0.8835    -0.0000
  6 O      8.7156     8.0000    -0.7156     1.7518     1.7518     0.0000
  7 H      0.6856     1.0000     0.3144     0.9177     0.9177     0.0000
  8 H      0.6107     1.0000     0.3893     0.8803     0.8803     0.0000
  9 O      8.7313     8.0000    -0.7313     1.7447     1.7447    -0.0000
 10 H      0.6442     1.0000     0.3558     0.8888     0.8888    -0.0000
 11 H      0.6004     1.0000     0.3996     0.8730     0.8730    -0.0000
 12 O      8.7283     8.0000    -0.7283     1.7652     1.7652    -0.0000
 13 H      0.6353     1.0000     0.3647     0.8819     0.8819    -0.0000
 14 H      0.6178     1.0000     0.3822     0.8680     0.8680    -0.0000

  Mayer bond orders larger than 0.100000
B(  0-O ,  1-H ) :   0.8935 B(  0-O ,  2-H ) :   0.8758 B(  3-O ,  4-H ) :   0.8891 
B(  3-O ,  5-H ) :   0.7985 B(  6-O ,  7-H ) :   0.9092 B(  6-O ,  8-H ) :   0.8415 
B(  9-O , 10-H ) :   0.8811 B(  9-O , 11-H ) :   0.8248 B( 12-O , 13-H ) :   0.8746 
B( 12-O , 14-H ) :   0.8578 

-------
TIMINGS
-------

Total SCF time: 0 days 0 hours 0 min 6 sec 

Total time                  ....       6.096 sec
Sum of individual times     ....       5.903 sec  ( 96.8%)

Fock matrix formation       ....       5.653 sec  ( 92.7%)
Diagonalization             ....       0.046 sec  (  0.8%)
Density matrix formation    ....       0.004 sec  (  0.1%)
Population analysis         ....       0.022 sec  (  0.4%)
Initial guess               ....       0.102 sec  (  1.7%)
Orbital Transformation      ....       0.000 sec  (  0.0%)
Orbital Orthonormalization  ....       0.000 sec  (  0.0%)
DIIS solution               ....       0.016 sec  (  0.3%)
SOSCF solution              ....       0.019 sec  (  0.3%)


           ************************************************************
           *        Program running with 6 parallel MPI-processes     *
           *              working on a common directory               *
           ************************************************************

------------------------------------------------------------------------------
                                ORCA  MP2 
------------------------------------------------------------------------------

Freezing NCore=10 chemical core electrons
MP2 will be done in the AO integral direct mode
The Q1-step will be done using symmetric double matrices
Dimension of the basis                    ...  215
Memory devoted for MP2                    ... 8000 MB   
Memory needed for all in one shot         ...  153 MB
Number of MOs that can be treated together...  209      
MP2 density construction                  ... relaxed
The MP2 gradient is requested => amplitudes will be stored on disk
Total number of MOs              ...   20
Number of MOs treated per batch  ...    4 
Number of batches necessary      ...    1 
OPERATORS   0/  0 PASS   0
-----------------------------------------------
 MP2 CORRELATION ENERGY   :     -1.287571137 Eh
-----------------------------------------------


---------------------
MP2 DENSITY FORMATION
---------------------

Completing the external part of the density      ... done
Storing the unrelaxed density                    ... done

Calculating G(D)                                 ... done
Completing the Lagrangian                        ... done
Solving the Z-vector equations                   ... 

------------------------------------------------------------------------------
                           ORCA CP-SCF CALCULATION
------------------------------------------------------------------------------

Input orbitals are from        ... 12h2o.su.etal.mol1,2,5,8,10-orca.engrad-mp2.def2tzvp.frozencore.gbw
Input Perturbation             ... 12h2o.su.etal.mol1,2,5,8,10-orca.engrad-mp2.def2tzvp.frozencore.pin.tmp
Wavefunction output            ... 12h2o.su.etal.mol1,2,5,8,10-orca.engrad-mp2.def2tzvp.frozencore.pout.tmp
Perturbation mode              ... Real perturbation (singlet)
Solver                         ... POPLE
Max. number of iterations      ... 128
Convergence tolerance          ... 1.000e-08
Integral handling              ... Direct
Number of perturbations        ... 1
Number of operators            ... 1
Orbital ranges used for CP-SCF:
 Operator 0:  Orbitals   0... 24  to  25...214
Variables per vector in CP-SCF ... 4750
Number of vectors sought       ... 1
     CP-SCF ITERATION   0: 
     CP-SCF ITERATION   1:      0.000627925483
     CP-SCF ITERATION   2:      0.000014840960
     CP-SCF ITERATION   3:      0.000000780364
     CP-SCF ITERATION   4:      0.000000065004
     CP-SCF ITERATION   5:      0.000000005512
                                                 ... done
Finalizing the relaxed density                   ... done
Transforming P to the AO basis                   ... done
Storing the relaxed density                      ... done

------------------------------------
ENERGY WEIGHTED DENSITY FINALIZATION
------------------------------------

Gathering the parts of the W-matrix              ...                                                      done
Forming the Z-density                            ... done
Transforming Z to the AO basis                   ... done
Calculating G(Z)                                 ... done
Finalizing the W-matrix                          ...                                                      done
Transforming W to the AO basis and storing       ... done

                *********************************************
                * UNRELAXED MP2 DENSITY POPULATION ANALYSIS *
                *********************************************

------------------------------------------------------------------------------
                           ORCA POPULATION ANALYSIS
------------------------------------------------------------------------------
Input electron density              ... 12h2o.su.etal.mol1,2,5,8,10-orca.engrad-mp2.def2tzvp.frozencore.pmp2ur
BaseName (.gbw .S,...)              ... 12h2o.su.etal.mol1,2,5,8,10-orca.engrad-mp2.def2tzvp.frozencore

                    ********************************
                    * MULLIKEN POPULATION ANALYSIS *
                    ********************************

-----------------------
MULLIKEN ATOMIC CHARGES
-----------------------
   0 O :   -0.697184
   1 H :    0.337573
   2 H :    0.358469
   3 O :   -0.762245
   4 H :    0.342155
   5 H :    0.389269
   6 O :   -0.710241
   7 H :    0.311770
   8 H :    0.386190
   9 O :   -0.724635
  10 H :    0.353268
  11 H :    0.396250
  12 O :   -0.722692
  13 H :    0.362579
  14 H :    0.379474
Sum of atomic charges:    0.0000000

--------------------------------
MULLIKEN REDUCED ORBITAL CHARGES
--------------------------------
  0 O s       :     3.808814  s :     3.808814
      pz      :     1.707560  p :     4.832384
      px      :     1.342589
      py      :     1.782235
      dz2     :     0.009813  d :     0.051897
      dxz     :     0.010168
      dyz     :     0.011229
      dx2y2   :     0.007827
      dxy     :     0.012860
      f0      :     0.000459  f :     0.004089
      f+1     :     0.000704
      f-1     :     0.000556
      f+2     :     0.000435
      f-2     :     0.000722
      f+3     :     0.000465
      f-3     :     0.000748
  1 H s       :     0.614750  s :     0.614750
      pz      :     0.017770  p :     0.047677
      px      :     0.013974
      py      :     0.015932
  2 H s       :     0.597826  s :     0.597826
      pz      :     0.012170  p :     0.043705
      px      :     0.017789
      py      :     0.013746
  3 O s       :     3.804825  s :     3.804825
      pz      :     1.698824  p :     4.902914
      px      :     1.797052
      py      :     1.407037
      dz2     :     0.009297  d :     0.050498
      dxz     :     0.010899
      dyz     :     0.009740
      dx2y2   :     0.007796
      dxy     :     0.012766
      f0      :     0.000451  f :     0.004007
      f+1     :     0.000542
      f-1     :     0.000678
      f+2     :     0.000439
      f-2     :     0.000714
      f+3     :     0.000720
      f-3     :     0.000463
  4 H s       :     0.610420  s :     0.610420
      pz      :     0.017345  p :     0.047426
      px      :     0.015676
      py      :     0.014405
  5 H s       :     0.552366  s :     0.552366
      pz      :     0.011162  p :     0.058365
      px      :     0.014834
      py      :     0.032369
  6 O s       :     3.804626  s :     3.804626
      pz      :     1.580500  p :     4.849856
      px      :     1.859294
      py      :     1.410062
      dz2     :     0.016144  d :     0.051731
      dxz     :     0.008124
      dyz     :     0.008079
      dx2y2   :     0.008552
      dxy     :     0.010832
      f0      :     0.000547  f :     0.004029
      f+1     :     0.000497
      f-1     :     0.000810
      f+2     :     0.000440
      f-2     :     0.000405
      f+3     :     0.000839
      f-3     :     0.000492
  7 H s       :     0.642254  s :     0.642254
      pz      :     0.011568  p :     0.045977
      px      :     0.016442
      py      :     0.017967
  8 H s       :     0.563103  s :     0.563103
      pz      :     0.024889  p :     0.050708
      px      :     0.014004
      py      :     0.011814
  9 O s       :     3.789553  s :     3.789553
      pz      :     1.508300  p :     4.878880
      px      :     1.590061
      py      :     1.780520
      dz2     :     0.017405  d :     0.052206
      dxz     :     0.006700
      dyz     :     0.007959
      dx2y2   :     0.008032
      dxy     :     0.012110
      f0      :     0.000632  f :     0.003996
      f+1     :     0.000756
      f-1     :     0.000533
      f+2     :     0.000415
      f-2     :     0.000424
      f+3     :     0.000426
      f-3     :     0.000810
 10 H s       :     0.601214  s :     0.601214
      pz      :     0.019220  p :     0.045518
      px      :     0.012577
      py      :     0.013721
 11 H s       :     0.553094  s :     0.553094
      pz      :     0.010180  p :     0.050656
      px      :     0.024519
      py      :     0.015957
 12 O s       :     3.804246  s :     3.804246
      pz      :     1.726674  p :     4.863045
      px      :     1.766610
      py      :     1.369760
      dz2     :     0.009823  d :     0.051346
      dxz     :     0.010929
      dyz     :     0.010318
      dx2y2   :     0.008028
      dxy     :     0.012247
      f0      :     0.000462  f :     0.004056
      f+1     :     0.000548
      f-1     :     0.000713
      f+2     :     0.000429
      f-2     :     0.000719
      f+3     :     0.000724
      f-3     :     0.000461
 13 H s       :     0.590544  s :     0.590544
      pz      :     0.017845  p :     0.046877
      px      :     0.015369
      py      :     0.013664
 14 H s       :     0.577815  s :     0.577815
      pz      :     0.011786  p :     0.042711
      px      :     0.012849
      py      :     0.018075


                     *******************************
                     * LOEWDIN POPULATION ANALYSIS *
                     *******************************

----------------------
LOEWDIN ATOMIC CHARGES
----------------------
   0 O :   -0.336629
   1 H :    0.152765
   2 H :    0.182300
   3 O :   -0.344710
   4 H :    0.151072
   5 H :    0.149320
   6 O :   -0.345999
   7 H :    0.153603
   8 H :    0.154674
   9 O :   -0.285708
  10 H :    0.165838
  11 H :    0.160515
  12 O :   -0.312921
  13 H :    0.163893
  14 H :    0.191986

-------------------------------
LOEWDIN REDUCED ORBITAL CHARGES
-------------------------------
  0 O s       :     3.472233  s :     3.472233
      pz      :     1.694357  p :     4.799316
      px      :     1.343109
      py      :     1.761850
      dz2     :     0.010454  d :     0.060208
      dxz     :     0.012927
      dyz     :     0.011653
      dx2y2   :     0.009346
      dxy     :     0.015826
      f0      :     0.000456  f :     0.004872
      f+1     :     0.000870
      f-1     :     0.000662
      f+2     :     0.000409
      f-2     :     0.001037
      f+3     :     0.000474
      f-3     :     0.000966
  1 H s       :     0.681321  s :     0.681321
      pz      :     0.067348  p :     0.165914
      px      :     0.044653
      py      :     0.053912
  2 H s       :     0.667081  s :     0.667081
      pz      :     0.034136  p :     0.150619
      px      :     0.072031
      py      :     0.044452
  3 O s       :     3.458209  s :     3.458209
      pz      :     1.665986  p :     4.823636
      px      :     1.770392
      py      :     1.387259
      dz2     :     0.010397  d :     0.058097
      dxz     :     0.011473
      dyz     :     0.012514
      dx2y2   :     0.008904
      dxy     :     0.014808
      f0      :     0.000468  f :     0.004768
      f+1     :     0.000646
      f-1     :     0.000844
      f+2     :     0.000411
      f-2     :     0.001029
      f+3     :     0.000898
      f-3     :     0.000472
  4 H s       :     0.680825  s :     0.680825
      pz      :     0.067110  p :     0.168103
      px      :     0.054287
      py      :     0.046706
  5 H s       :     0.651976  s :     0.651976
      pz      :     0.034350  p :     0.198704
      px      :     0.048675
      py      :     0.115679
  6 O s       :     3.468555  s :     3.468555
      pz      :     1.565525  p :     4.812991
      px      :     1.820490
      py      :     1.426976
      dz2     :     0.019864  d :     0.059598
      dxz     :     0.007108
      dyz     :     0.009085
      dx2y2   :     0.010359
      dxy     :     0.013181
      f0      :     0.000747  f :     0.004855
      f+1     :     0.000589
      f-1     :     0.001160
      f+2     :     0.000413
      f-2     :     0.000410
      f+3     :     0.001085
      f-3     :     0.000450
  7 H s       :     0.690293  s :     0.690293
      pz      :     0.031925  p :     0.156105
      px      :     0.050536
      py      :     0.073644
  8 H s       :     0.669951  s :     0.669951
      pz      :     0.095934  p :     0.175375
      px      :     0.043383
      py      :     0.036059
  9 O s       :     3.448856  s :     3.448856
      pz      :     1.503967  p :     4.771930
      px      :     1.547404
      py      :     1.720559
      dz2     :     0.022157  d :     0.060019
      dxz     :     0.007479
      dyz     :     0.007430
      dx2y2   :     0.009004
      dxy     :     0.013949
      f0      :     0.000895  f :     0.004903
      f+1     :     0.000998
      f-1     :     0.000733
      f+2     :     0.000390
      f-2     :     0.000426
      f+3     :     0.000409
      f-3     :     0.001053
 10 H s       :     0.671822  s :     0.671822
      pz      :     0.081882  p :     0.162340
      px      :     0.037515
      py      :     0.042943
 11 H s       :     0.661831  s :     0.661831
      pz      :     0.030058  p :     0.177654
      px      :     0.088721
      py      :     0.058875
 12 O s       :     3.463541  s :     3.463541
      pz      :     1.701291  p :     4.785281
      px      :     1.728717
      py      :     1.355273
      dz2     :     0.010533  d :     0.059289
      dxz     :     0.011136
      dyz     :     0.012641
      dx2y2   :     0.009879
      dxy     :     0.015101
      f0      :     0.000456  f :     0.004810
      f+1     :     0.000655
      f-1     :     0.000864
      f+2     :     0.000408
      f-2     :     0.001016
      f+3     :     0.000936
      f-3     :     0.000474
 13 H s       :     0.669724  s :     0.669724
      pz      :     0.067662  p :     0.166382
      px      :     0.053428
      py      :     0.045293
 14 H s       :     0.656414  s :     0.656414
      pz      :     0.034044  p :     0.151600
      px      :     0.044301
      py      :     0.073255


                      *****************************
                      * MAYER POPULATION ANALYSIS *
                      *****************************

  NA   - Mulliken gross atomic population
  ZA   - Total nuclear charge
  QA   - Mulliken gross atomic charge
  VA   - Mayer's total valence
  BVA  - Mayer's bonded valence
  FA   - Mayer's free valence

  ATOM       NA         ZA         QA         VA         BVA        FA
  0 O      8.6972     8.0000    -0.6972     2.0742     1.6877     0.3865
  1 H      0.6624     1.0000     0.3376     0.9049     0.8580     0.0469
  2 H      0.6415     1.0000     0.3585     0.8893     0.8415     0.0478
  3 O      8.7622     8.0000    -0.7622     2.0065     1.6127     0.3938
  4 H      0.6578     1.0000     0.3422     0.9033     0.8560     0.0473
  5 H      0.6107     1.0000     0.3893     0.8915     0.8448     0.0467
  6 O      8.7102     8.0000    -0.7102     2.0593     1.6700     0.3893
  7 H      0.6882     1.0000     0.3118     0.9244     0.8729     0.0515
  8 H      0.6138     1.0000     0.3862     0.8865     0.8425     0.0440
  9 O      8.7246     8.0000    -0.7246     2.0541     1.6661     0.3880
 10 H      0.6467     1.0000     0.3533     0.8947     0.8477     0.0471
 11 H      0.6037     1.0000     0.3963     0.8792     0.8357     0.0435
 12 O      8.7227     8.0000    -0.7227     2.0744     1.6850     0.3894
 13 H      0.6374     1.0000     0.3626     0.8874     0.8424     0.0450
 14 H      0.6205     1.0000     0.3795     0.8740     0.8274     0.0465

  Mayer bond orders larger than 0.100000
B(  0-O ,  1-H ) :   0.8529 B(  0-O ,  2-H ) :   0.8344 B(  3-O ,  4-H ) :   0.8484 
B(  3-O ,  5-H ) :   0.7621 B(  6-O ,  7-H ) :   0.8649 B(  6-O ,  8-H ) :   0.8048 
B(  9-O , 10-H ) :   0.8405 B(  9-O , 11-H ) :   0.7890 B( 12-O , 13-H ) :   0.8357 
B( 12-O , 14-H ) :   0.8177 


                *******************************************
                * RELAXED MP2 DENSITY POPULATION ANALYSIS *
                *******************************************

------------------------------------------------------------------------------
                           ORCA POPULATION ANALYSIS
------------------------------------------------------------------------------
Input electron density              ... 12h2o.su.etal.mol1,2,5,8,10-orca.engrad-mp2.def2tzvp.frozencore.pmp2re
BaseName (.gbw .S,...)              ... 12h2o.su.etal.mol1,2,5,8,10-orca.engrad-mp2.def2tzvp.frozencore

                    ********************************
                    * MULLIKEN POPULATION ANALYSIS *
                    ********************************

-----------------------
MULLIKEN ATOMIC CHARGES
-----------------------
   0 O :   -0.684583
   1 H :    0.331488
   2 H :    0.351284
   3 O :   -0.738092
   4 H :    0.335546
   5 H :    0.365189
   6 O :   -0.692166
   7 H :    0.305559
   8 H :    0.369593
   9 O :   -0.697005
  10 H :    0.347443
  11 H :    0.379157
  12 O :   -0.702285
  13 H :    0.356374
  14 H :    0.372497
Sum of atomic charges:    0.0000000

--------------------------------
MULLIKEN REDUCED ORBITAL CHARGES
--------------------------------
  0 O s       :     3.813534  s :     3.813534
      pz      :     1.701924  p :     4.817434
      px      :     1.338999
      py      :     1.776511
      dz2     :     0.009524  d :     0.049598
      dxz     :     0.009568
      dyz     :     0.010943
      dx2y2   :     0.007569
      dxy     :     0.011993
      f0      :     0.000456  f :     0.004017
      f+1     :     0.000685
      f-1     :     0.000548
      f+2     :     0.000436
      f-2     :     0.000701
      f+3     :     0.000463
      f-3     :     0.000727
  1 H s       :     0.620085  s :     0.620085
      pz      :     0.017927  p :     0.048427
      px      :     0.013904
      py      :     0.016596
  2 H s       :     0.604394  s :     0.604394
      pz      :     0.013063  p :     0.044323
      px      :     0.016807
      py      :     0.014453
  3 O s       :     3.806731  s :     3.806731
      pz      :     1.688129  p :     4.878795
      px      :     1.791322
      py      :     1.399344
      dz2     :     0.009145  d :     0.048625
      dxz     :     0.010580
      dyz     :     0.009168
      dx2y2   :     0.007682
      dxy     :     0.012049
      f0      :     0.000449  f :     0.003941
      f+1     :     0.000534
      f-1     :     0.000660
      f+2     :     0.000439
      f-2     :     0.000695
      f+3     :     0.000703
      f-3     :     0.000461
  4 H s       :     0.616253  s :     0.616253
      pz      :     0.017483  p :     0.048200
      px      :     0.016284
      py      :     0.014433
  5 H s       :     0.576236  s :     0.576236
      pz      :     0.011889  p :     0.058575
      px      :     0.015379
      py      :     0.031306
  6 O s       :     3.806168  s :     3.806168
      pz      :     1.574758  p :     4.832525
      px      :     1.854601
      py      :     1.403166
      dz2     :     0.015061  d :     0.049516
      dxz     :     0.008147
      dyz     :     0.007838
      dx2y2   :     0.008231
      dxy     :     0.010239
      f0      :     0.000534  f :     0.003957
      f+1     :     0.000491
      f-1     :     0.000780
      f+2     :     0.000440
      f-2     :     0.000403
      f+3     :     0.000818
      f-3     :     0.000491
  7 H s       :     0.647550  s :     0.647550
      pz      :     0.012434  p :     0.046891
      px      :     0.017321
      py      :     0.017135
  8 H s       :     0.579156  s :     0.579156
      pz      :     0.024202  p :     0.051251
      px      :     0.014877
      py      :     0.012172
  9 O s       :     3.788779  s :     3.788779
      pz      :     1.503085  p :     4.854000
      px      :     1.588554
      py      :     1.762361
      dz2     :     0.016100  d :     0.050304
      dxz     :     0.006652
      dyz     :     0.007946
      dx2y2   :     0.008030
      dxy     :     0.011575
      f0      :     0.000614  f :     0.003923
      f+1     :     0.000734
      f-1     :     0.000524
      f+2     :     0.000415
      f-2     :     0.000422
      f+3     :     0.000426
      f-3     :     0.000787
 10 H s       :     0.606364  s :     0.606364
      pz      :     0.018453  p :     0.046193
      px      :     0.013130
      py      :     0.014609
 11 H s       :     0.569774  s :     0.569774
      pz      :     0.010762  p :     0.051069
      px      :     0.024045
      py      :     0.016261
 12 O s       :     3.807327  s :     3.807327
      pz      :     1.721722  p :     4.841813
      px      :     1.753225
      py      :     1.366867
      dz2     :     0.009550  d :     0.049163
      dxz     :     0.010674
      dyz     :     0.009740
      dx2y2   :     0.007739
      dxy     :     0.011460
      f0      :     0.000460  f :     0.003982
      f+1     :     0.000540
      f-1     :     0.000694
      f+2     :     0.000428
      f-2     :     0.000698
      f+3     :     0.000702
      f-3     :     0.000459
 13 H s       :     0.596084  s :     0.596084
      pz      :     0.017990  p :     0.047542
      px      :     0.015978
      py      :     0.013575
 14 H s       :     0.584280  s :     0.584280
      pz      :     0.012607  p :     0.043223
      px      :     0.013505
      py      :     0.017112


                     *******************************
                     * LOEWDIN POPULATION ANALYSIS *
                     *******************************

----------------------
LOEWDIN ATOMIC CHARGES
----------------------
   0 O :   -0.340012
   1 H :    0.154504
   2 H :    0.183512
   3 O :   -0.342472
   4 H :    0.152863
   5 H :    0.141673
   6 O :   -0.347633
   7 H :    0.155214
   8 H :    0.149958
   9 O :   -0.279562
  10 H :    0.167374
  11 H :    0.155560
  12 O :   -0.310058
  13 H :    0.165803
  14 H :    0.193276

-------------------------------
LOEWDIN REDUCED ORBITAL CHARGES
-------------------------------
  0 O s       :     3.474422  s :     3.474422
      pz      :     1.693552  p :     4.801870
      px      :     1.348092
      py      :     1.760227
      dz2     :     0.010274  d :     0.058828
      dxz     :     0.012514
      dyz     :     0.011593
      dx2y2   :     0.009109
      dxy     :     0.015338
      f0      :     0.000458  f :     0.004892
      f+1     :     0.000877
      f-1     :     0.000661
      f+2     :     0.000409
      f-2     :     0.001036
      f+3     :     0.000477
      f-3     :     0.000973
  1 H s       :     0.679448  s :     0.679448
      pz      :     0.067560  p :     0.166048
      px      :     0.043899
      py      :     0.054588
  2 H s       :     0.665801  s :     0.665801
      pz      :     0.034928  p :     0.150687
      px      :     0.070559
      py      :     0.045201
  3 O s       :     3.459874  s :     3.459874
      pz      :     1.660734  p :     4.820323
      px      :     1.768810
      py      :     1.390778
      dz2     :     0.010449  d :     0.057469
      dxz     :     0.011408
      dyz     :     0.012169
      dx2y2   :     0.008907
      dxy     :     0.014536
      f0      :     0.000471  f :     0.004807
      f+1     :     0.000647
      f-1     :     0.000856
      f+2     :     0.000412
      f-2     :     0.001030
      f+3     :     0.000914
      f-3     :     0.000477
  4 H s       :     0.678890  s :     0.678890
      pz      :     0.067129  p :     0.168247
      px      :     0.054859
      py      :     0.046260
  5 H s       :     0.659343  s :     0.659343
      pz      :     0.034943  p :     0.198984
      px      :     0.049262
      py      :     0.114779
  6 O s       :     3.469909  s :     3.469909
      pz      :     1.566106  p :     4.814467
      px      :     1.818230
      py      :     1.430131
      dz2     :     0.019353  d :     0.058382
      dxz     :     0.007165
      dyz     :     0.008878
      dx2y2   :     0.010136
      dxy     :     0.012849
      f0      :     0.000748  f :     0.004875
      f+1     :     0.000588
      f-1     :     0.001170
      f+2     :     0.000416
      f-2     :     0.000409
      f+3     :     0.001091
      f-3     :     0.000453
  7 H s       :     0.687951  s :     0.687951
      pz      :     0.032604  p :     0.156835
      px      :     0.051428
      py      :     0.072803
  8 H s       :     0.674332  s :     0.674332
      pz      :     0.095358  p :     0.175710
      px      :     0.044312
      py      :     0.036040
  9 O s       :     3.449765  s :     3.449765
      pz      :     1.506166  p :     4.765630
      px      :     1.549249
      py      :     1.710215
      dz2     :     0.021504  d :     0.059243
      dxz     :     0.007347
      dyz     :     0.007464
      dx2y2   :     0.009109
      dxy     :     0.013819
      f0      :     0.000893  f :     0.004925
      f+1     :     0.001005
      f-1     :     0.000734
      f+2     :     0.000391
      f-2     :     0.000426
      f+3     :     0.000410
      f-3     :     0.001065
 10 H s       :     0.670118  s :     0.670118
      pz      :     0.081068  p :     0.162508
      px      :     0.037829
      py      :     0.043611
 11 H s       :     0.666407  s :     0.666407
      pz      :     0.030398  p :     0.178033
      px      :     0.088390
      py      :     0.059246
 12 O s       :     3.465053  s :     3.465053
      pz      :     1.700500  p :     4.782086
      px      :     1.721139
      py      :     1.360446
      dz2     :     0.010375  d :     0.058092
      dxz     :     0.011101
      dyz     :     0.012262
      dx2y2   :     0.009658
      dxy     :     0.014695
      f0      :     0.000459  f :     0.004827
      f+1     :     0.000655
      f-1     :     0.000869
      f+2     :     0.000408
      f-2     :     0.001017
      f+3     :     0.000942
      f-3     :     0.000477
 13 H s       :     0.668075  s :     0.668075
      pz      :     0.067742  p :     0.166122
      px      :     0.053820
      py      :     0.044560
 14 H s       :     0.655299  s :     0.655299
      pz      :     0.034774  p :     0.151425
      px      :     0.044876
      py      :     0.071775


                      *****************************
                      * MAYER POPULATION ANALYSIS *
                      *****************************

  NA   - Mulliken gross atomic population
  ZA   - Total nuclear charge
  QA   - Mulliken gross atomic charge
  VA   - Mayer's total valence
  BVA  - Mayer's bonded valence
  FA   - Mayer's free valence

  ATOM       NA         ZA         QA         VA         BVA        FA
  0 O      8.6846     8.0000    -0.6846     2.0783     1.6966     0.3817
  1 H      0.6685     1.0000     0.3315     0.9092     0.8623     0.0470
  2 H      0.6487     1.0000     0.3513     0.8955     0.8476     0.0479
  3 O      8.7381     8.0000    -0.7381     2.0286     1.6404     0.3882
  4 H      0.6645     1.0000     0.3355     0.9077     0.8603     0.0474
  5 H      0.6348     1.0000     0.3652     0.9206     0.8748     0.0458
  6 O      8.6922     8.0000    -0.6922     2.0706     1.6865     0.3841
  7 H      0.6944     1.0000     0.3056     0.9299     0.8785     0.0514
  8 H      0.6304     1.0000     0.3696     0.9095     0.8660     0.0436
  9 O      8.6970     8.0000    -0.6970     2.0869     1.7048     0.3821
 10 H      0.6526     1.0000     0.3474     0.8993     0.8522     0.0471
 11 H      0.6208     1.0000     0.3792     0.9026     0.8596     0.0429
 12 O      8.7023     8.0000    -0.7023     2.0988     1.7150     0.3838
 13 H      0.6436     1.0000     0.3564     0.8920     0.8470     0.0450
 14 H      0.6275     1.0000     0.3725     0.8807     0.8342     0.0465

  Mayer bond orders larger than 0.100000
B(  0-O ,  1-H ) :   0.8570 B(  0-O ,  2-H ) :   0.8389 B(  3-O ,  4-H ) :   0.8512 
B(  3-O ,  5-H ) :   0.7613 B(  6-O ,  7-H ) :   0.8677 B(  6-O ,  8-H ) :   0.8103 
B(  9-O , 10-H ) :   0.8432 B(  9-O , 11-H ) :   0.7914 B( 12-O , 13-H ) :   0.8393 
B( 12-O , 14-H ) :   0.8214 


----------------------------------
MP2 DERIVATIVE INTEGRAL GENERATION
----------------------------------


Input Wavefunction Amplitudes       ... 12h2o.su.etal.mol1,2,5,8,10-orca.engrad-mp2.def2tzvp.frozencore.mp2tsaa.tmp
Input Correlated Electron Density   ... 12h2o.su.etal.mol1,2,5,8,10-orca.engrad-mp2.def2tzvp.frozencore.pmp2re
Input Energy Weighted Density       ... 12h2o.su.etal.mol1,2,5,8,10-orca.engrad-mp2.def2tzvp.frozencore.wmp2.tmp
Input SCF Electron Density          ... 12h2o.su.etal.mol1,2,5,8,10-orca.engrad-mp2.def2tzvp.frozencore.scfp

One-Electron Terms    ...
                        ... One-Electron Terms done
Prescreening matrices              ... done

Batch handling in the gradient evaluation:
Memory available                      ... 8000.0 MB
Memory per occupied orbital in Q2     ...    7.1 MB
Memory per occupied orbital in Q3     ...    0.1 MB
Total memory requirement per |i>      ...    7.1 MB
Max. Number of orbitals possible      ...   1121
Number of orbitals treated per batch  ...     20
Number of batches to be done          ...      1
Batch   0: i=    5 ...    24

---------------------------------------
MP2 TOTAL ENERGY:     -381.591724913 Eh
---------------------------------------

The final MP2 gradient
  0:  -0.02596649   0.00685495  -0.00154012
  1:  -0.00291987   0.00198676  -0.00087023
  2:   0.02909124  -0.00891346   0.00344902
  3:  -0.00377941  -0.00614652   0.00000636
  4:  -0.00040273  -0.00105584   0.00068057
  5:   0.00442656   0.01308474   0.00259314
  6:  -0.01138047  -0.01664911  -0.00286935
  7:   0.00926271   0.01999032  -0.00072980
  8:   0.00387242  -0.00417850   0.00078555
  9:  -0.00296408  -0.00379676  -0.00975244
 10:   0.00070976  -0.00138809   0.00863048
 11:   0.00168062  -0.00218174  -0.00108077
 12:   0.00315088   0.02778651   0.00202609
 13:   0.00244173   0.00087741   0.00134531
 14:  -0.00722288  -0.02627065  -0.00267380

-----------------------------------
NORM OF THE MP2 GRADIENT:  0.067881
-----------------------------------

-------------------------   --------------------
FINAL SINGLE POINT ENERGY      -381.591724913107
-------------------------   --------------------


                            ***************************************
                            *     ORCA property calculations      *
                            ***************************************

                                    ---------------------
                                    Active property flags
                                    ---------------------
   (+) Dipole Moment


------------------------------------------------------------------------------
                       ORCA ELECTRIC PROPERTIES CALCULATION
------------------------------------------------------------------------------

Dipole Moment Calculation                       ... on
Quadrupole Moment Calculation                   ... off
Polarizability Calculation                      ... off
GBWName                                         ... 12h2o.su.etal.mol1,2,5,8,10-orca.engrad-mp2.def2tzvp.frozencore.gbw
Electron density file                           ... 12h2o.su.etal.mol1,2,5,8,10-orca.engrad-mp2.def2tzvp.frozencore.scfp
The origin for moment calculation is the CENTER OF MASS  = ( 0.326500, -0.716888 -2.139303)

-------------
DIPOLE MOMENT
-------------
                                X             Y             Z
Electronic contribution:     -0.19208       0.28396      -0.15167
Nuclear contribution   :      0.30796       0.34090      -0.72077
                        -----------------------------------------
Total Dipole Moment    :      0.11588       0.62486      -0.87244
                        -----------------------------------------
Magnitude (a.u.)       :      1.07936
Magnitude (Debye)      :      2.74352



--------------------
Rotational spectrum 
--------------------
 
Rotational constants in cm-1:     0.069286     0.028041     0.022065 
Rotational constants in MHz :  2077.149170   840.634308   661.497860 

 Dipole components along the rotational axes: 
x,y,z [a.u.] :    -0.997368     0.411186    -0.034766 
x,y,z [Debye]:    -2.535107     1.045153    -0.088367 

 

                         *** MP2 UNRELAXED DENSITY ***

------------------------------------------------------------------------------
                       ORCA ELECTRIC PROPERTIES CALCULATION
------------------------------------------------------------------------------

Dipole Moment Calculation                       ... on
Quadrupole Moment Calculation                   ... off
Polarizability Calculation                      ... off
GBWName                                         ... 12h2o.su.etal.mol1,2,5,8,10-orca.engrad-mp2.def2tzvp.frozencore.gbw
Electron density file                           ... 12h2o.su.etal.mol1,2,5,8,10-orca.engrad-mp2.def2tzvp.frozencore.pmp2ur
The origin for moment calculation is the CENTER OF MASS  = ( 0.326500, -0.716888 -2.139303)

-------------
DIPOLE MOMENT
-------------
                                X             Y             Z
Electronic contribution:     -0.19827       0.28478      -0.14735
Nuclear contribution   :      0.30796       0.34090      -0.72077
                        -----------------------------------------
Total Dipole Moment    :      0.10969       0.62568      -0.86812
                        -----------------------------------------
Magnitude (a.u.)       :      1.07570
Magnitude (Debye)      :      2.73422



--------------------
Rotational spectrum 
--------------------
 
Rotational constants in cm-1:     0.069286     0.028041     0.022065 
Rotational constants in MHz :  2077.149170   840.634308   661.497860 

 Dipole components along the rotational axes: 
x,y,z [a.u.] :    -0.991618     0.415651    -0.032614 
x,y,z [Debye]:    -2.520492     1.056502    -0.082899 

 

                           *** MP2 RELAXED DENSITY ***

------------------------------------------------------------------------------
                       ORCA ELECTRIC PROPERTIES CALCULATION
------------------------------------------------------------------------------

Dipole Moment Calculation                       ... on
Quadrupole Moment Calculation                   ... off
Polarizability Calculation                      ... off
GBWName                                         ... 12h2o.su.etal.mol1,2,5,8,10-orca.engrad-mp2.def2tzvp.frozencore.gbw
Electron density file                           ... 12h2o.su.etal.mol1,2,5,8,10-orca.engrad-mp2.def2tzvp.frozencore.pmp2re
The origin for moment calculation is the CENTER OF MASS  = ( 0.326500, -0.716888 -2.139303)

-------------
DIPOLE MOMENT
-------------
                                X             Y             Z
Electronic contribution:     -0.21400       0.30415      -0.15069
Nuclear contribution   :      0.30796       0.34090      -0.72077
                        -----------------------------------------
Total Dipole Moment    :      0.09396       0.64505      -0.87146
                        -----------------------------------------
Magnitude (a.u.)       :      1.08828
Magnitude (Debye)      :      2.76619



--------------------
Rotational spectrum 
--------------------
 
Rotational constants in cm-1:     0.069286     0.028041     0.022065 
Rotational constants in MHz :  2077.149170   840.634308   661.497860 

 Dipole components along the rotational axes: 
x,y,z [a.u.] :    -0.994685     0.440511    -0.030105 
x,y,z [Debye]:    -2.528288     1.119691    -0.076520 

 

Timings for individual modules:

Sum of individual times         ...       27.994 sec (=   0.467 min)
GTO integral calculation        ...        0.847 sec (=   0.014 min)   3.0 %
SCF iterations                  ...        6.671 sec (=   0.111 min)  23.8 %
MP2 module                      ...       20.475 sec (=   0.341 min)  73.1 %
                             ****ORCA TERMINATED NORMALLY****
TOTAL RUN TIME: 0 days 0 hours 0 minutes 28 seconds 922 msec
