4
Energy:   -229.49612796
O  -0.140377530  -0.054084840  -0.060606400
H  -0.214252310   0.681156130  -0.669042990
H  -0.933619780  -0.568891180  -0.208839370
Ca   1.539628600  -0.032313560   1.095957990
