4
Energy:   -230.31679090
O  -0.063650150  -0.131552890   0.056475650
H   0.349378390  -0.683789890   0.720308140
H  -0.941730890  -0.497989180  -0.048073360
Ca   0.779185090   1.562486120  -0.856781110
