4
Energy:   -223.16144163
O   0.048585130   0.100072810   0.147027320
H  -0.003622410   0.850521390  -0.444862150
H   0.598368100   0.402376500   0.869926350
Ca  -0.755611600  -1.587808490  -0.735889650
