4
Energy:   -224.09748989
O  -0.132562320  -0.137313570  -0.040209640
H  -0.308040970   0.384020370  -0.823567800
H  -0.095470400  -1.040123920  -0.356104420
Ca   0.686351180   0.979564260   1.400809130
