4
Energy:   -233.92597797
O   0.097950890  -0.087522950  -0.072488560
H   0.975552580   0.128208720   0.242958680
H   0.207035580  -0.917587490  -0.536520070
Ca  -1.504797690   1.043066700   0.457559090
