4
Energy:   -233.05117068
O  -0.039860420  -0.056714550  -0.137500230
H   0.520911060  -0.332431040  -0.862584790
H  -0.871884010   0.172731140  -0.551412360
Ca   0.465417330   0.279052220   1.834802920
