4
Energy:   -229.26138953
O   0.119310750   0.132294570   0.058806280
H   0.791259610  -0.297651490   0.587827040
H  -0.230943340   0.818349940   0.627033300
Ca  -0.840118590  -0.818072660  -1.472933850
