4
Energy:   -225.00694427
O   0.019607610  -0.022833390  -0.213690350
H  -0.886733080  -0.117810120  -0.506534720
H   0.286150340   0.839007980  -0.533715770
Ca   0.643269360  -0.773699000   1.546085930
