4
Energy:   -232.39130513
O  -0.099402930   0.057972480  -0.109243700
H  -0.724674900   0.521301770   0.448064820
H  -0.145492350   0.512032940  -0.950633450
Ca   1.154915460  -1.266716610   0.757421860
