4
Energy:   -222.00570164
O   0.053260350  -0.022370380  -0.177938690
H  -0.677400710  -0.468462220  -0.606153970
H   0.832683580  -0.361682950  -0.617936700
Ca  -0.268045730   0.975427170   1.691109830
