4
Energy:   -231.57601487
O  -0.003252990  -0.093400540   0.145282310
H  -0.358515360   0.455528430   0.844351320
H   0.762380680  -0.514305080   0.536276290
Ca  -0.449891820   0.229189050  -1.810733440
