4
Energy:   -220.33276821
O   0.097975210  -0.034208320  -0.204378170
H  -0.739699710  -0.356629440  -0.536909690
H   0.270506160   0.756755490  -0.715104290
Ca   0.358389570  -0.391688530   1.768717480
