4
Energy:   -233.97112750
O  -0.052925490   0.138509080  -0.006994720
H  -0.793482550   0.466469770  -0.517140660
H   0.174488660   0.861327130   0.577854590
Ca   0.790533360  -1.739327420  -0.056287420
