4
Energy:   -224.50325914
O  -0.055845580  -0.068912910   0.149716100
H   0.127682870   0.396836140   0.965575750
H  -0.124732240  -0.987946270   0.408297120
Ca   0.094064990   0.786961810  -1.810846440
