4
Energy:   -224.42487867
O  -0.085912000   0.147336170   0.091984370
H   0.167511050   0.917723270  -0.416456710
H   0.056011530   0.403845020   1.003188390
Ca  -0.102307710  -1.747695710  -0.822258930
