4
Energy:   -232.54323902
O   0.115088900   0.071438620  -0.102823370
H   0.744037710  -0.483834840  -0.563612500
H  -0.316785010   0.570990630  -0.795762450
Ca  -0.682658470  -0.222900020   1.712712830
