4
Energy:   -226.81023755
O  -0.134081360   0.008797250   0.127585270
H  -0.363192770  -0.897114390  -0.079933190
H  -0.975796860   0.459119370   0.197990250
Ca   1.744231110   0.478721460  -0.355675420
