4
Energy:   -221.57869723
O  -0.053705860   0.014564500   0.174664770
H   0.328352820  -0.029401970   1.051209100
H  -0.655627800   0.757874730   0.212237860
Ca   0.462831850  -0.847126200  -1.729794560
