4
Energy:   -224.09119054
O  -0.155470560  -0.138818280   0.056181750
H   0.295542960  -0.977115950  -0.044195850
H  -0.346658410  -0.079735360   0.992231030
Ca   0.328795760   1.434236750  -1.167374730
