4
Energy:   -232.37836273
O  -0.113798590  -0.103249560   0.004578600
H  -0.908607830  -0.498813200   0.362404710
H  -0.088669270  -0.396843500  -0.906137030
Ca   1.323402580   1.190376300   0.605351650
