4
Energy:   -228.09642813
O  -0.108009490   0.120677490  -0.027174640
H  -0.708292570   0.866207580  -0.018403000
H  -0.190343120  -0.243369030  -0.908607090
Ca   1.202037840  -0.913028030   1.093070490
