4
Energy:   -224.31356665
O   0.154816100   0.077590760  -0.059808200
H   0.385575820   1.005677370  -0.019347900
H   0.383812880  -0.188034800  -0.950445830
Ca  -1.137875280  -1.057627100   1.198243080
