4
Energy:   -223.27584788
O   0.014072950  -0.018807270  -0.174725710
H   0.072662910  -0.084324630  -1.127881810
H  -0.064857910  -0.924864250   0.123707730
Ca  -0.033347010   1.171176650   1.437437900
