4
Energy:   -229.98964502
O  -0.036440580   0.165185440   0.073056750
H  -0.672125440   0.091755880   0.784916780
H  -0.421903860   0.802561540  -0.528110140
Ca   1.297629740  -1.296880250  -0.417090200
