7
Energy:   -427.80943284
O    0.80978683  -1.52967884  -0.65577046
H    1.40880493  -2.20551858  -0.97302401
H   -0.05082526  -1.94861523  -0.66419464
O   -0.73927796   1.58201075   0.67144417
H   -0.94679705   2.51536170   0.62645889
H   -1.52831678   1.17785686   1.03242787
Ca   1.13717503   0.42865237  -0.05177645
