7
Energy:   -467.08910860
O   -0.73758455  -0.15354771  -1.84005316
H   -0.33347113   0.13310396  -2.65904951
H   -1.57637766  -0.53067445  -2.10544605
O    0.73758496   0.15354561   1.84005317
H    0.33352023  -0.13319355   2.65904291
H    1.57632414   0.53078779   2.10545242
Ca   0.00000425  -0.00002312   0.00000024
