7
Energy:   -441.43090466
O   -0.12071233   0.57588525  -1.75608848
H   -0.55861786   1.20813840  -2.32593632
H    0.31659520  -0.02672710  -2.35763010
O    0.09084878  -0.58484617   1.82102823
H    0.24748748  -1.30312190   2.43403406
H    0.74062703   0.07746978   2.05631033
Ca  -0.78951930   0.06553178   0.10470343
