7
Energy:   -441.85784484
O    0.11290063  -0.79330616   1.38798220
H    0.84695383  -1.16082223   0.89571228
H    0.17426342  -1.20209693   2.25132255
O   -0.19066801   0.76165438  -1.35656065
H   -0.58397822   0.42298048  -2.16082362
H    0.53817809   1.30501914  -1.65617699
Ca  -0.96465787   0.77139684   0.70093106
