36
Energy:   -474.65779957
O   -2.77687336   1.53032968   1.82067559
H   -2.24943957   0.89136106   2.30001319
H   -3.24952102   2.01000500   2.50093115
O    1.51392943   1.74100174  -1.68272620
H    0.78945930   2.08970157  -1.16331950
H    2.23676761   1.65763143  -1.06080483
O   -3.57872731  -0.49069570   0.09216087
H   -3.47876430   0.25860492   0.67934723
H   -3.10487941  -0.23924050  -0.70060032
O   -0.63949333   1.97956137   0.10427345
H   -0.04593503   1.40460420   0.58733105
H   -1.40711064   2.06205457   0.67012713
O   -0.08479932  -1.57974965  -0.56542821
H   -0.66860178  -0.99765608  -1.05181654
H   -0.66564847  -2.07270486   0.01408993
O    4.26207436  -0.98270619  -1.35393513
H    3.43145799  -1.03046433  -1.82725051
H    4.85807403  -1.53610677  -1.85867669
O   -1.65793890   0.29391098  -1.76797237
H   -1.32378051   0.97882026  -1.18877526
H   -1.37619510   0.56096141  -2.64292171
O    1.81021058  -0.87702206  -2.47508880
H    1.20434962  -1.30191920  -1.86794239
H    1.66361771   0.05977655  -2.34412796
O   -2.05511065  -2.41440101   1.20529118
H   -2.56298740  -3.21082771   1.36020269
H   -2.67801965  -1.80610497   0.80755741
O    0.97941833   0.13962130   1.27856604
H    1.87263202   0.38992319   1.04245140
H    0.74428753  -0.53749602   0.64417066
O    3.39042749   1.02329403   0.24577480
H    3.78136053   0.30919161  -0.25767426
H    4.13676736   1.47964754   0.63429777
O   -1.21470981  -0.37871303   2.90208029
H   -0.33888750  -0.20758986   2.55583763
H   -1.48923817  -1.18810307   2.47108865
