36
Energy:   -475.38186724
O   -0.74857579  -2.38970266  -3.78563119
H   -0.12524352  -1.68633951  -3.60405744
H   -0.73419791  -2.48314717  -4.73815061
O    1.78852492  -2.15421938  -0.91374089
H    1.79931255  -1.84732398  -0.00713696
H    1.00095078  -2.69480804  -0.97475488
O    2.05702214   1.58268041   0.24705427
H    2.89643102   1.98622217   0.02619541
H    1.68064324   2.15993352   0.91139576
O   -2.29354744   0.72797344   2.04621989
H   -2.22267808   1.53814546   1.54141231
H   -2.09307013   0.03493050   1.41714742
O   -0.74709470  -3.27272641  -1.22512266
H   -1.08365891  -4.16814208  -1.19066740
H   -0.81933120  -3.02449183  -2.14674804
O    1.32031074  -0.74367540   1.49067054
H    1.71954000   0.02012753   1.07419373
H    0.97546922  -0.41211132   2.31975523
O   -0.22160704   1.20446068  -1.22767933
H    0.62409359   1.34672067  -0.80249185
H   -0.57494076   0.42248544  -0.80353095
O   -1.07764418  -0.94285714   0.21689079
H   -1.10954000  -1.76711035  -0.26872340
H   -0.24875223  -0.97753515   0.69435012
O   -0.02981143   0.65360146   3.49332309
H   -0.22170637   0.55307729   4.42568733
H   -0.88837542   0.65253630   3.07012269
O   -1.56235999   2.88081892   0.44539443
H   -2.07317779   3.53999169  -0.02448672
H   -1.15062200   2.35992105  -0.24407572
O    0.67916072   2.94847638   2.09557810
H    0.47182721   2.24800586   2.71411323
H   -0.13450091   3.08994955   1.61166493
O    1.02149328  -0.51620838  -2.99402560
H    0.57196833   0.17890412  -2.51342413
H    1.45219098  -1.03688992  -2.31607126
