36
Energy:   -475.37813263
O   -2.33876503   1.17281353  -1.11900914
H   -1.78285098   1.78583560  -0.63797343
H   -2.76894631   0.65451684  -0.43890293
O    3.33855793   0.50342734  -1.15042809
H    3.46626963   0.88859051  -0.28349620
H    4.22338014   0.40513669  -1.50208198
O    1.03441479   1.73513536  -2.11627206
H    1.88981754   1.36457300  -1.89901297
H    0.52488936   0.99091974  -2.43683219
O    0.71380751   0.88606616   1.79748948
H    0.00942964   0.37279803   2.19326655
H    0.26298994   1.55917900   1.28767139
O   -0.33609464   2.68409189   0.01067523
H   -0.40532807   3.63692338  -0.04891276
H    0.17808973   2.43239061  -0.75645758
O   -2.17199473  -2.50788409  -1.10112573
H   -1.64166795  -1.89357833  -1.60868241
H   -2.67180668  -2.99288721  -1.75777773
O    1.20431441  -0.94445966  -0.15494454
H    1.04405153  -0.31768724   0.55053685
H    2.02329373  -0.65165140  -0.55465447
O   -3.21113178  -0.64472494   0.69721740
H   -2.98376700  -1.36962619   0.11493287
H   -2.58662135  -0.71212702   1.41948849
O   -0.58904321  -0.56487074  -2.17818715
H    0.01478918  -0.69050028  -1.44617928
H   -1.22818623   0.07053891  -1.85572378
O   -0.36152025  -2.92588406   0.96687149
H   -1.01616252  -2.99402261   0.27186611
H    0.35792023  -2.43364343   0.57147750
O    3.38344484   1.45286342   1.40174951
H    3.81927578   1.75265760   2.19950053
H    2.47821560   1.29276559   1.66850887
O   -1.21025205  -0.94443683   2.57623441
H   -1.46732199  -1.29171312   3.43036910
H   -0.89829016  -1.70808704   2.09069349
