36
Energy:   -475.60317076
O    0.52887527   1.77346413   2.91693727
H    0.85622124   2.10497010   3.75310727
H    0.41355896   0.83403667   3.05980102
O   -2.57731847  -0.61807181   2.23030059
H   -3.40977411  -0.66398595   2.70055728
H   -2.45115173   0.31467178   2.05622243
O    1.50007415   1.33763255   0.38395363
H    0.66392201   1.40849778  -0.07654563
H    1.30261057   1.60302099   1.28217908
O   -1.29730798  -2.70041380  -2.57980899
H   -1.91746405  -2.36537746  -3.22741144
H   -1.56371383  -2.28947729  -1.75737908
O    0.83171698   0.64181036  -2.93282843
H    1.04478760  -0.28027568  -2.78933593
H    1.64040068   1.11007037  -2.72547587
O   -1.93118844   1.92480496   1.62235198
H   -1.11155148   2.05388455   2.09959987
H   -1.67744409   1.94551578   0.69962953
O    1.30137379  -2.01981433  -2.26533725
H    1.87364038  -2.59908331  -2.76851738
H    0.41747851  -2.33999022  -2.44547158
O    1.05114250  -1.35780218   0.41799218
H    1.34474026  -0.44675251   0.41344249
H    1.30777364  -1.69693143  -0.43954129
O   -1.58410324  -1.28293011  -0.24423851
H   -0.67363754  -1.39266369   0.03006532
H   -2.07090412  -1.18342121   0.57390251
O    0.07979765  -0.87771579   3.02333940
H   -0.85995895  -0.94163202   2.85303352
H    0.49066948  -1.26430653   2.25005822
O   -0.88941618   1.26996069  -0.91431867
H   -1.24603289   0.39734825  -0.74817446
H   -0.41716737   1.18256501  -1.74231318
O    3.01437695   1.89816735  -1.84192573
H    3.37430885   2.78337496  -1.78635271
H    2.62536274   1.74280551  -0.98125013
