
                                 *****************
                                 * O   R   C   A *
                                 *****************

           --- An Ab Initio, DFT and Semiempirical electronic structure package ---

                  #######################################################
                  #                        -***-                        #
                  #          Department of theory and spectroscopy      #
                  #               Directorship: Frank Neese             #
                  #        Max Planck Institute fuer Kohlenforschung    #
                  #                Kaiser Wilhelm Platz 1               #
                  #                 D-45470 Muelheim/Ruhr               #
                  #                      Germany                        #
                  #                                                     #
                  #                  All rights reserved                #
                  #                        -***-                        #
                  #######################################################


                         Program Version 4.2.0 -  RELEASE  -


 With contributions from (in alphabetic order):
   Daniel Aravena         : Magnetic Suceptibility
   Michael Atanasov       : Ab Initio Ligand Field Theory (pilot matlab implementation)
   Alexander A. Auer      : GIAO ZORA, VPT2
   Ute Becker             : Parallelization
   Giovanni Bistoni       : ED, misc. LED, open-shell LED, HFLED
   Martin Brehm           : Molecular dynamics
   Dmytro Bykov           : SCF Hessian
   Vijay G. Chilkuri      : MRCI spin determinant printing, contributions to CSF-ICE
   Dipayan Datta          : RHF DLPNO-CCSD density
   Achintya Kumar Dutta   : EOM-CC, STEOM-CC
   Dmitry Ganyushin       : Spin-Orbit,Spin-Spin,Magnetic field MRCI
   Miquel Garcia          : C-PCM Hessian, Gaussian charge scheme
   Yang Guo               : DLPNO-NEVPT2, CIM, IAO-localization
   Andreas Hansen         : Spin unrestricted coupled pair/coupled cluster methods
   Benjamin Helmich-Paris : CASSCF linear response (MC-RPA)
   Lee Huntington         : MR-EOM, pCC
   Robert Izsak           : Overlap fitted RIJCOSX, COSX-SCS-MP3, EOM
   Christian Kollmar      : KDIIS, OOCD, Brueckner-CCSD(T), CCSD density
   Simone Kossmann        : Meta GGA functionals, TD-DFT gradient, OOMP2, MP2 Hessian
   Martin Krupicka        : AUTO-CI
   Lucas Lang             : DCDCAS
   Dagmar Lenk            : GEPOL surface, SMD
   Dimitrios Liakos       : Extrapolation schemes; Compound Job, initial MDCI parallelization
   Dimitrios Manganas     : Further ROCIS development; embedding schemes
   Dimitrios Pantazis     : SARC Basis sets
   Taras Petrenko         : DFT Hessian,TD-DFT gradient, ASA, ECA, R-Raman, ABS, FL, XAS/XES, NRVS
   Peter Pinski           : DLPNO-MP2, DLPNO-MP2 Gradient
   Christoph Reimann      : Effective Core Potentials
   Marius Retegan         : Local ZFS, SOC
   Christoph Riplinger    : Optimizer, TS searches, QM/MM, DLPNO-CCSD(T), (RO)-DLPNO pert. Triples
   Tobias Risthaus        : Range-separated hybrids, TD-DFT gradient, RPA, STAB
   Michael Roemelt        : Original ROCIS implementation
   Masaaki Saitow         : Open-shell DLPNO-CCSD energy and density
   Barbara Sandhoefer     : DKH picture change effects
   Avijit Sen             : IP-ROCIS
   Kantharuban Sivalingam : CASSCF convergence, NEVPT2, FIC-MRCI
   Bernardo de Souza      : ESD, SOC TD-DFT
   Georgi Stoychev        : AutoAux, RI-MP2 NMR
   Willem Van den Heuvel  : Paramagnetic NMR
   Boris Wezisla          : Elementary symmetry handling
   Frank Wennmohs         : Technical directorship


 We gratefully acknowledge several colleagues who have allowed us to
 interface, adapt or use parts of their codes:
   Stefan Grimme, W. Hujo, H. Kruse,             : VdW corrections, initial TS optimization,
                  C. Bannwarth                     DFT functionals, gCP, sTDA/sTD-DF
   Ed Valeev, F. Pavosevic, A. Kumar             : LibInt (2-el integral package), F12 methods
   Garnet Chan, S. Sharma, J. Yang, R. Olivares  : DMRG
   Ulf Ekstrom                                   : XCFun DFT Library
   Mihaly Kallay                                 : mrcc  (arbitrary order and MRCC methods)
   Andreas Klamt, Michael Diedenhofen            : otool_cosmo (COSMO solvation model)
   Jiri Pittner, Ondrej Demel                    : Mk-CCSD
   Frank Weinhold                                : gennbo (NPA and NBO analysis)
   Christopher J. Cramer and Donald G. Truhlar   : smd solvation model
   Lars Goerigk                                  : TD-DFT with DH, B97 family of functionals
   V. Asgeirsson, H. Jonsson                     : NEB implementation
   FAccTs GmbH                                   : IRC, NEB, NEB-TS, Multilevel, MM, QM/MM, CI optimization
   S Lehtola, MJT Oliveira, MAL Marques          : LibXC Library


 Your calculation uses the libint2 library for the computation of 2-el integrals
 For citations please refer to: http://libint.valeyev.net

 Your ORCA version has been built with support for libXC version: 4.2.3
 For citations please refer to: https://tddft.org/programs/libxc/

 This ORCA versions uses:
   CBLAS   interface :  Fast vector & matrix operations
   LAPACKE interface :  Fast linear algebra routines
   SCALAPACK package :  Parallel linear algebra routines


----- Orbital basis set information -----
Your calculation utilizes the basis: def2-TZVP
   F. Weigend and R. Ahlrichs, Phys. Chem. Chem. Phys. 7, 3297 (2005).

================================================================================
                                        WARNINGS
                       Please study these warnings very carefully!
================================================================================


WARNING: The frozen-core approximation for MP2-gradient calculations is turned on by default.

INFO   : the flag for use of LIBINT has been found!

================================================================================
                                       INPUT FILE
================================================================================
NAME = 12meoh.boyd.etal.mol1,7,8-orca.engrad-mp2.def2tzvp.frozencore.inp
|  1> # 12meoh.boyd.etal.mol1,7,8
|  2> ! MP2 def2-TZVP EnGrad TightSCF
|  3> 
|  4> %pal
|  5>     nprocs 6
|  6> end
|  7> 
|  8> %maxcore 8000
|  9> 
| 10> %scf
| 11>     ConvForced true
| 12> end
| 13> 
| 14> *xyz 0 1
| 15> O   0.666045193  -2.600503172   0.138317521
| 16> H  -0.227115049  -2.712051982  -0.281868004
| 17> C   0.490021232  -1.851247678   1.341189459
| 18> H   1.466500502  -1.466176022   1.645844415
| 19> H   0.097564527  -2.488364683   2.146902740
| 20> H  -0.187588112  -1.000787499   1.200739571
| 21> O   4.310535586  -1.588322800   0.656128299
| 22> H   3.804372199  -1.630404735  -0.196849819
| 23> C   4.312298137  -2.894980854   1.222112691
| 24> H   4.713177833  -2.819907076   2.237066773
| 25> H   4.957796734  -3.574699304   0.648211180
| 26> H   3.302735989  -3.324433205   1.269756773
| 27> O   3.570084754   2.361662577  -0.202416728
| 28> H   3.393280933   1.755669977   0.560634073
| 29> C   4.368082883   1.644741793  -1.143112807
| 30> H   4.552851717   2.311801738  -1.989632421
| 31> H   3.862427494   0.740851663  -1.508095690
| 32> H   5.333949674   1.357289092  -0.706288100
| 33> *
| 34> 
| 35>                          ****END OF INPUT****
================================================================================

                     *******************************
                     * Energy+Gradient Calculation *
                     *******************************

---------------------------------
CARTESIAN COORDINATES (ANGSTROEM)
---------------------------------
  O      0.666045   -2.600503    0.138318
  H     -0.227115   -2.712052   -0.281868
  C      0.490021   -1.851248    1.341189
  H      1.466501   -1.466176    1.645844
  H      0.097565   -2.488365    2.146903
  H     -0.187588   -1.000787    1.200740
  O      4.310536   -1.588323    0.656128
  H      3.804372   -1.630405   -0.196850
  C      4.312298   -2.894981    1.222113
  H      4.713178   -2.819907    2.237067
  H      4.957797   -3.574699    0.648211
  H      3.302736   -3.324433    1.269757
  O      3.570085    2.361663   -0.202417
  H      3.393281    1.755670    0.560634
  C      4.368083    1.644742   -1.143113
  H      4.552852    2.311802   -1.989632
  H      3.862427    0.740852   -1.508096
  H      5.333950    1.357289   -0.706288

----------------------------
CARTESIAN COORDINATES (A.U.)
----------------------------
  NO LB      ZA    FRAG     MASS         X           Y           Z
   0 O     8.0000    0    15.999    1.258643   -4.914239    0.261382
   1 H     1.0000    0     1.008   -0.429185   -5.125036   -0.532653
   2 C     6.0000    0    12.011    0.926006   -3.498351    2.534481
   3 H     1.0000    0     1.008    2.771284   -2.770671    3.110195
   4 H     1.0000    0     1.008    0.184370   -4.702328    4.057058
   5 H     1.0000    0     1.008   -0.354490   -1.891214    2.269069
   6 O     8.0000    0    15.999    8.145732   -3.001495    1.239903
   7 H     1.0000    0     1.008    7.189222   -3.081018   -0.371992
   8 C     6.0000    0    12.011    8.149062   -5.470721    2.309458
   9 H     1.0000    0     1.008    8.906615   -5.328852    4.227444
  10 H     1.0000    0     1.008    9.368878   -6.755203    1.224942
  11 H     1.0000    0     1.008    6.241267   -6.282268    2.399493
  12 O     8.0000    0    15.999    6.746482    4.462895   -0.382512
  13 H     1.0000    0     1.008    6.412372    3.317735    1.059445
  14 C     6.0000    0    12.011    8.254480    3.108112   -2.160170
  15 H     1.0000    0     1.008    8.603643    4.368672   -3.759860
  16 H     1.0000    0     1.008    7.298930    1.400007   -2.849888
  17 H     1.0000    0     1.008   10.079704    2.564905   -1.334691

--------------------------------
INTERNAL COORDINATES (ANGSTROEM)
--------------------------------
 O      0   0   0     0.000000000000     0.00000000     0.00000000
 H      1   0   0     0.993344970452     0.00000000     0.00000000
 C      1   2   0     1.428029806889   107.72168631     0.00000000
 H      3   1   2     1.092980597819   108.03002173   196.92065363
 H      3   1   2     1.099597305626   110.92803308    78.01457186
 H      3   1   2     1.096431990677   112.03981228   316.17366467
 O      4   3   1     3.013800488531   137.49932552   359.48863910
 H      7   4   3     0.992745653921    78.62301788    31.53566763
 C      7   4   3     1.423972158666    84.71163290   282.31126035
 H      9   7   4     1.093833804276   107.83521386   265.97215801
 H      9   7   4     1.099112621312   111.14100782   147.58128516
 H      9   7   4     1.098141617007   112.02184717    25.75574610
 O      8   7   4     3.998940237225    89.35546632    84.29139222
 H     13   8   7     0.990319719728    53.02422335   313.69274294
 C     13   8   7     1.426774522293    57.76025055   110.53103754
 H     15  13   8     1.093482486887   107.36091639   160.15343741
 H     15  13   8     1.098142633914   112.03586382    40.73349782
 H     15  13   8     1.098336714270   111.16969712   278.80180802

---------------------------
INTERNAL COORDINATES (A.U.)
---------------------------
 O      0   0   0     0.000000000000     0.00000000     0.00000000
 H      1   0   0     1.877149950662     0.00000000     0.00000000
 C      1   2   0     2.698585246096   107.72168631     0.00000000
 H      3   1   2     2.065433999568   108.03002173   196.92065363
 H      3   1   2     2.077937765230   110.92803308    78.01457186
 H      3   1   2     2.071956186850   112.03981228   316.17366467
 O      4   3   1     5.695257545601   137.49932552   359.48863910
 H      7   4   3     1.876017406552    78.62301788    31.53566763
 C      7   4   3     2.690917402208    84.71163290   282.31126035
 H      9   7   4     2.067046326107   107.83521386   265.97215801
 H      9   7   4     2.077021844616   111.14100782   147.58128516
 H      9   7   4     2.075186912405   112.02184717    25.75574610
 O      8   7   4     7.556901874274    89.35546632    84.29139222
 H     13   8   7     1.871433055307    53.02422335   313.69274294
 C     13   8   7     2.696213101990    57.76025055   110.53103754
 H     15  13   8     2.066382432455   107.36091639   160.15343741
 H     15  13   8     2.075188834080   112.03586382    40.73349782
 H     15  13   8     2.075555592802   111.16969712   278.80180802

---------------------
BASIS SET INFORMATION
---------------------
There are 3 groups of distinct atoms

 Group   1 Type O   : 11s6p2d1f contracted to 5s3p2d1f pattern {62111/411/11/1}
 Group   2 Type H   : 5s1p contracted to 3s1p pattern {311/1}
 Group   3 Type C   : 11s6p2d1f contracted to 5s3p2d1f pattern {62111/411/11/1}

Atom   0O    basis set group =>   1
Atom   1H    basis set group =>   2
Atom   2C    basis set group =>   3
Atom   3H    basis set group =>   2
Atom   4H    basis set group =>   2
Atom   5H    basis set group =>   2
Atom   6O    basis set group =>   1
Atom   7H    basis set group =>   2
Atom   8C    basis set group =>   3
Atom   9H    basis set group =>   2
Atom  10H    basis set group =>   2
Atom  11H    basis set group =>   2
Atom  12O    basis set group =>   1
Atom  13H    basis set group =>   2
Atom  14C    basis set group =>   3
Atom  15H    basis set group =>   2
Atom  16H    basis set group =>   2
Atom  17H    basis set group =>   2


           ************************************************************
           *        Program running with 6 parallel MPI-processes     *
           *              working on a common directory               *
           ************************************************************
------------------------------------------------------------------------------
                           ORCA GTO INTEGRAL CALCULATION
------------------------------------------------------------------------------

                         BASIS SET STATISTICS AND STARTUP INFO

 # of primitive gaussian shells          ...  192
 # of primitive gaussian functions       ...  372
 # of contracted shells                  ...  114
 # of contracted basis functions         ...  258
 Highest angular momentum                ...    3
 Maximum contraction depth               ...    6
 Integral package used                   ... LIBINT
 Integral threshhold            Thresh   ...  2.500e-11
 Primitive cut-off              TCut     ...  2.500e-12


------------------------------ INTEGRAL EVALUATION ----------------------------


 * One electron integrals 
 Pre-screening matrix                    ... done
 Shell pair data                         ... done (   0.001 sec)



           ************************************************************
           *        Program running with 6 parallel MPI-processes     *
           *              working on a common directory               *
           ************************************************************
-------------------------------------------------------------------------------
                                 ORCA SCF
-------------------------------------------------------------------------------

------------
SCF SETTINGS
------------
Hamiltonian:
 Ab initio Hamiltonian  Method          .... Hartree-Fock(GTOs)


General Settings:
 Integral files         IntName         .... 12meoh.boyd.etal.mol1,7,8-orca.engrad-mp2.def2tzvp.frozencore
 Hartree-Fock type      HFTyp           .... RHF
 Total Charge           Charge          ....    0
 Multiplicity           Mult            ....    1
 Number of Electrons    NEL             ....   54
 Basis Dimension        Dim             ....  258
 Nuclear Repulsion      ENuc            ....    232.4072266404 Eh

Convergence Acceleration:
 DIIS                   CNVDIIS         .... on
   Start iteration      DIISMaxIt       ....    12
   Startup error        DIISStart       ....  0.200000
   # of expansion vecs  DIISMaxEq       ....     5
   Bias factor          DIISBfac        ....   1.050
   Max. coefficient     DIISMaxC        ....  10.000
 Newton-Raphson         CNVNR           .... off
 SOSCF                  CNVSOSCF        .... on
   Start iteration      SOSCFMaxIt      ....   150
   Startup grad/error   SOSCFStart      ....  0.003300
 Level Shifting         CNVShift        .... on
   Level shift para.    LevelShift      ....    0.2500
   Turn off err/grad.   ShiftErr        ....    0.0010
 Zerner damping         CNVZerner       .... off
 Static damping         CNVDamp         .... on
   Fraction old density DampFac         ....    0.7000
   Max. Damping (<1)    DampMax         ....    0.9800
   Min. Damping (>=0)   DampMin         ....    0.0000
   Turn off err/grad.   DampErr         ....    0.1000
 Fernandez-Rico         CNVRico         .... off

SCF Procedure:
 Maximum # iterations   MaxIter         ....   125
 SCF integral mode      SCFMode         .... Direct
   Integral package                     .... LIBINT
 Reset frequency        DirectResetFreq ....    20
 Integral Threshold     Thresh          ....  2.500e-11 Eh
 Primitive CutOff       TCut            ....  2.500e-12 Eh

Convergence Tolerance:
 Convergence Check Mode ConvCheckMode   .... Total+1el-Energy
 Convergence forced     ConvForced      .... 1
 Energy Change          TolE            ....  1.000e-08 Eh
 1-El. energy change                    ....  1.000e-05 Eh
 Orbital Gradient       TolG            ....  1.000e-05
 Orbital Rotation angle TolX            ....  1.000e-05
 DIIS Error             TolErr          ....  5.000e-07


Diagonalization of the overlap matrix:
Smallest eigenvalue                        ... 1.213e-03
Time for diagonalization                   ...    0.010 sec
Threshold for overlap eigenvalues          ... 1.000e-08
Number of eigenvalues below threshold      ... 0
Time for construction of square roots      ...    0.005 sec
Total time needed                          ...    0.015 sec

-------------------
DFT GRID GENERATION
-------------------

General Integration Accuracy     IntAcc      ...  4.340
Radial Grid Type                 RadialGrid  ... Gauss-Chebyshev
Angular Grid (max. acc.)         AngularGrid ... Lebedev-110
Angular grid pruning method      GridPruning ... 3 (G Style)
Weight generation scheme         WeightScheme... Becke
Basis function cutoff            BFCut       ...    1.0000e-11
Integration weight cutoff        WCut        ...    1.0000e-14
Grids for H and He will be reduced by one unit

# of grid points (after initial pruning)     ...  19644 (   0.0 sec)
# of grid points (after weights+screening)   ...  18531 (   0.0 sec)
nearest neighbour list constructed           ...    0.0 sec
Grid point re-assignment to atoms done       ...    0.0 sec
Grid point division into batches done        ...    0.0 sec
Reduced shell lists constructed in    0.0 sec

Total number of grid points                  ...    18531
Total number of batches                      ...      297
Average number of points per batch           ...       62
Average number of grid points per atom       ...     1030
Average number of shells per batch           ...    62.53 (54.85%)
Average number of basis functions per batch  ...   132.33 (51.29%)
Average number of large shells per batch     ...    45.94 (73.47%)
Average number of large basis fcns per batch ...    98.73 (74.60%)
Maximum spatial batch extension              ...  16.01, 21.86, 17.21 au
Average spatial batch extension              ...   0.51,  0.61,  0.54 au

Time for grid setup =    0.057 sec

------------------------------
INITIAL GUESS: MODEL POTENTIAL
------------------------------
Loading Hartree-Fock densities                     ... done
Calculating cut-offs                               ... done
Setting up the integral package                    ... done
Initializing the effective Hamiltonian             ... done
Starting the Coulomb interaction                   ... done (   0.0 sec)
Reading the grid                                   ... done
Mapping shells                                     ... done
Starting the XC term evaluation                    ... done (   0.0 sec)
Transforming the Hamiltonian                       ... done (   0.0 sec)
Diagonalizing the Hamiltonian                      ... done (   0.0 sec)
Back transforming the eigenvectors                 ... done (   0.0 sec)
Now organizing SCF variables                       ... done
                      ------------------
                      INITIAL GUESS DONE (   0.2 sec)
                      ------------------
--------------
SCF ITERATIONS
--------------
ITER       Energy         Delta-E        Max-DP      RMS-DP      [F,P]     Damp
               ***  Starting incremental Fock matrix formation  ***
  0   -344.9199430168   0.000000000000 0.03642967  0.00076579  0.2890373 0.7000
  1   -345.0479976257  -0.128054608884 0.02518836  0.00056684  0.2178786 0.7000
                               ***Turning on DIIS***
  2   -345.1219908951  -0.073993269436 0.01496582  0.00034895  0.1627881 0.7000
  3   -345.9889760985  -0.866985203423 0.00745568  0.00019455  0.1199358 0.7000
  4   -345.8371525420   0.151823556530 0.01672682  0.00046596  0.0845448 0.0000
  5   -345.3024644563   0.534688085692 0.00215665  0.00006262  0.0061885 0.0000
                      *** Initiating the SOSCF procedure ***
                           *** Shutting down DIIS ***
                      *** Re-Reading the Fockian *** 
                      *** Removing any level shift *** 
ITER      Energy       Delta-E        Grad      Rot      Max-DP    RMS-DP
  6   -345.27772548   0.0247389760  0.000638  0.000638  0.000766  0.000032
               *** Restarting incremental Fock matrix formation ***
  7   -345.27258483   0.0051406504  0.000273  0.000329  0.000482  0.000017
  8   -345.27259164  -0.0000068096  0.000127  0.000193  0.000335  0.000012
  9   -345.27259330  -0.0000016619  0.000028  0.000031  0.000053  0.000002
 10   -345.27259335  -0.0000000514  0.000005  0.000010  0.000020  0.000001
                 **** Energy Check signals convergence ****
              ***Rediagonalizing the Fockian in SOSCF/NRSCF***

               *****************************************************
               *                     SUCCESS                       *
               *           SCF CONVERGED AFTER  11 CYCLES          *
               *****************************************************


----------------
TOTAL SCF ENERGY
----------------

Total Energy       :         -345.27259336 Eh           -9395.34492 eV

Components:
Nuclear Repulsion  :          232.40722664 Eh            6324.12215 eV
Electronic Energy  :         -577.67982000 Eh          -15719.46706 eV
One Electron Energy:         -933.76428974 Eh          -25409.01809 eV
Two Electron Energy:          356.08446974 Eh            9689.55103 eV

Virial components:
Potential Energy   :         -689.89241341 Eh          -18772.92697 eV
Kinetic Energy     :          344.61982005 Eh            9377.58205 eV
Virial Ratio       :            2.00189418


---------------
SCF CONVERGENCE
---------------

  Last Energy change         ...   -4.4402e-09  Tolerance :   1.0000e-08
  Last MAX-Density change    ...    4.1143e-06  Tolerance :   1.0000e-07
  Last RMS-Density change    ...    1.3402e-07  Tolerance :   5.0000e-09
  Last Orbital Gradient      ...    1.4771e-06  Tolerance :   1.0000e-05
  Last Orbital Rotation      ...    3.5170e-06  Tolerance :   1.0000e-05

             **** THE GBW FILE WAS UPDATED (12meoh.boyd.etal.mol1,7,8-orca.engrad-mp2.def2tzvp.frozencore.gbw) ****
             **** DENSITY FILE WAS UPDATED (12meoh.boyd.etal.mol1,7,8-orca.engrad-mp2.def2tzvp.frozencore.scfp) ****
             **** ENERGY FILE WAS UPDATED (12meoh.boyd.etal.mol1,7,8-orca.engrad-mp2.def2tzvp.frozencore.en.tmp) ****
             **** THE GBW FILE WAS UPDATED (12meoh.boyd.etal.mol1,7,8-orca.engrad-mp2.def2tzvp.frozencore.gbw) ****
             **** DENSITY FILE WAS UPDATED (12meoh.boyd.etal.mol1,7,8-orca.engrad-mp2.def2tzvp.frozencore.scfp) ****
----------------
ORBITAL ENERGIES
----------------

  NO   OCC          E(Eh)            E(eV) 
   0   2.0000     -20.567618      -559.6733 
   1   2.0000     -20.559134      -559.4425 
   2   2.0000     -20.547618      -559.1291 
   3   2.0000     -11.277828      -306.8853 
   4   2.0000     -11.269197      -306.6504 
   5   2.0000     -11.262869      -306.4782 
   6   2.0000      -1.355592       -36.8875 
   7   2.0000      -1.348390       -36.6915 
   8   2.0000      -1.337112       -36.3847 
   9   2.0000      -0.927295       -25.2330 
  10   2.0000      -0.918432       -24.9918 
  11   2.0000      -0.910645       -24.7799 
  12   2.0000      -0.691952       -18.8290 
  13   2.0000      -0.681121       -18.5342 
  14   2.0000      -0.672099       -18.2887 
  15   2.0000      -0.624696       -16.9988 
  16   2.0000      -0.618030       -16.8174 
  17   2.0000      -0.607824       -16.5397 
  18   2.0000      -0.596484       -16.2312 
  19   2.0000      -0.591469       -16.0947 
  20   2.0000      -0.580551       -15.7976 
  21   2.0000      -0.509877       -13.8745 
  22   2.0000      -0.500829       -13.6283 
  23   2.0000      -0.492505       -13.4018 
  24   2.0000      -0.458584       -12.4787 
  25   2.0000      -0.449411       -12.2291 
  26   2.0000      -0.440511       -11.9869 
  27   0.0000       0.115105         3.1322 
  28   0.0000       0.138333         3.7642 
  29   0.0000       0.159544         4.3414 
  30   0.0000       0.166029         4.5179 
  31   0.0000       0.190205         5.1758 
  32   0.0000       0.200510         5.4562 
  33   0.0000       0.216934         5.9031 
  34   0.0000       0.225879         6.1465 
  35   0.0000       0.235122         6.3980 
  36   0.0000       0.238916         6.5012 
  37   0.0000       0.244497         6.6531 
  38   0.0000       0.253511         6.8984 
  39   0.0000       0.271852         7.3975 
  40   0.0000       0.276463         7.5229 
  41   0.0000       0.294310         8.0086 
  42   0.0000       0.330019         8.9803 
  43   0.0000       0.336806         9.1650 
  44   0.0000       0.340576         9.2675 
  45   0.0000       0.351216         9.5571 
  46   0.0000       0.399505        10.8711 
  47   0.0000       0.451951        12.2982 
  48   0.0000       0.470701        12.8084 
  49   0.0000       0.473153        12.8752 
  50   0.0000       0.501052        13.6343 
  51   0.0000       0.524040        14.2599 
  52   0.0000       0.527079        14.3426 
  53   0.0000       0.560117        15.2416 
  54   0.0000       0.566062        15.4033 
  55   0.0000       0.577885        15.7251 
  56   0.0000       0.590623        16.0717 
  57   0.0000       0.611193        16.6314 
  58   0.0000       0.617398        16.8003 
  59   0.0000       0.632105        17.2005 
  60   0.0000       0.643427        17.5085 
  61   0.0000       0.647502        17.6194 
  62   0.0000       0.652424        17.7534 
  63   0.0000       0.663127        18.0446 
  64   0.0000       0.671328        18.2678 
  65   0.0000       0.683876        18.6092 
  66   0.0000       0.703894        19.1539 
  67   0.0000       0.710053        19.3215 
  68   0.0000       0.711810        19.3693 
  69   0.0000       0.720773        19.6132 
  70   0.0000       0.746256        20.3067 
  71   0.0000       0.767087        20.8735 
  72   0.0000       0.809821        22.0364 
  73   0.0000       0.825300        22.4575 
  74   0.0000       0.846003        23.0209 
  75   0.0000       0.876602        23.8536 
  76   0.0000       0.892193        24.2778 
  77   0.0000       0.911046        24.7908 
  78   0.0000       0.917092        24.9553 
  79   0.0000       0.930070        25.3085 
  80   0.0000       0.940757        25.5993 
  81   0.0000       0.956353        26.0237 
  82   0.0000       0.973195        26.4820 
  83   0.0000       1.001722        27.2582 
  84   0.0000       1.090278        29.6680 
  85   0.0000       1.100183        29.9375 
  86   0.0000       1.102226        29.9931 
  87   0.0000       1.133374        30.8407 
  88   0.0000       1.139504        31.0075 
  89   0.0000       1.196927        32.5700 
  90   0.0000       1.250570        34.0297 
  91   0.0000       1.263353        34.3776 
  92   0.0000       1.300849        35.3979 
  93   0.0000       1.540879        41.9294 
  94   0.0000       1.545429        42.0533 
  95   0.0000       1.546882        42.0928 
  96   0.0000       1.651853        44.9492 
  97   0.0000       1.663877        45.2764 
  98   0.0000       1.687530        45.9200 
  99   0.0000       1.704754        46.3887 
 100   0.0000       1.718158        46.7535 
 101   0.0000       1.723653        46.9030 
 102   0.0000       1.764212        48.0066 
 103   0.0000       1.777130        48.3582 
 104   0.0000       1.791962        48.7618 
 105   0.0000       1.796657        48.8895 
 106   0.0000       1.802197        49.0403 
 107   0.0000       1.804620        49.1062 
 108   0.0000       1.808897        49.2226 
 109   0.0000       1.814268        49.3687 
 110   0.0000       1.827134        49.7188 
 111   0.0000       1.849216        50.3197 
 112   0.0000       1.850425        50.3526 
 113   0.0000       1.858648        50.5764 
 114   0.0000       1.871323        50.9213 
 115   0.0000       1.886344        51.3300 
 116   0.0000       1.942648        52.8621 
 117   0.0000       1.957754        53.2732 
 118   0.0000       1.987226        54.0752 
 119   0.0000       2.010137        54.6986 
 120   0.0000       2.138369        58.1880 
 121   0.0000       2.148836        58.4728 
 122   0.0000       2.190460        59.6055 
 123   0.0000       2.195520        59.7431 
 124   0.0000       2.226311        60.5810 
 125   0.0000       2.232311        60.7443 
 126   0.0000       2.257861        61.4395 
 127   0.0000       2.265379        61.6441 
 128   0.0000       2.272019        61.8248 
 129   0.0000       2.290300        62.3222 
 130   0.0000       2.297311        62.5130 
 131   0.0000       2.299913        62.5838 
 132   0.0000       2.314998        62.9943 
 133   0.0000       2.331174        63.4345 
 134   0.0000       2.346308        63.8463 
 135   0.0000       2.444681        66.5232 
 136   0.0000       2.455052        66.8054 
 137   0.0000       2.461364        66.9771 
 138   0.0000       2.516940        68.4894 
 139   0.0000       2.555975        69.5516 
 140   0.0000       2.565192        69.8024 
 141   0.0000       2.576803        70.1184 
 142   0.0000       2.585287        70.3492 
 143   0.0000       2.594106        70.5892 
 144   0.0000       2.609490        71.0078 
 145   0.0000       2.616185        71.1900 
 146   0.0000       2.630947        71.5917 
 147   0.0000       2.645945        71.9998 
 148   0.0000       2.658764        72.3487 
 149   0.0000       2.680746        72.9468 
 150   0.0000       2.695505        73.3484 
 151   0.0000       2.704345        73.5890 
 152   0.0000       2.718175        73.9653 
 153   0.0000       2.771092        75.4052 
 154   0.0000       2.803108        76.2765 
 155   0.0000       2.818377        76.6919 
 156   0.0000       2.824213        76.8507 
 157   0.0000       2.850857        77.5758 
 158   0.0000       2.862799        77.9007 
 159   0.0000       2.900268        78.9203 
 160   0.0000       2.909647        79.1755 
 161   0.0000       2.924568        79.5815 
 162   0.0000       3.027622        82.3858 
 163   0.0000       3.057659        83.2031 
 164   0.0000       3.078134        83.7603 
 165   0.0000       3.104446        84.4763 
 166   0.0000       3.120054        84.9010 
 167   0.0000       3.138312        85.3978 
 168   0.0000       3.148706        85.6807 
 169   0.0000       3.154989        85.8516 
 170   0.0000       3.189451        86.7894 
 171   0.0000       3.251853        88.4874 
 172   0.0000       3.254594        88.5620 
 173   0.0000       3.288838        89.4938 
 174   0.0000       3.353627        91.2568 
 175   0.0000       3.364930        91.5644 
 176   0.0000       3.371182        91.7345 
 177   0.0000       3.419256        93.0427 
 178   0.0000       3.430680        93.3536 
 179   0.0000       3.434331        93.4529 
 180   0.0000       3.532059        96.1122 
 181   0.0000       3.547782        96.5401 
 182   0.0000       3.556729        96.7835 
 183   0.0000       3.634572        98.9017 
 184   0.0000       3.643414        99.1423 
 185   0.0000       3.654102        99.4332 
 186   0.0000       3.661382        99.6313 
 187   0.0000       3.671441        99.9050 
 188   0.0000       3.678846       100.1065 
 189   0.0000       3.728108       101.4470 
 190   0.0000       3.734469       101.6201 
 191   0.0000       3.743508       101.8660 
 192   0.0000       3.853844       104.8684 
 193   0.0000       3.869067       105.2827 
 194   0.0000       3.877270       105.5059 
 195   0.0000       3.883056       105.6633 
 196   0.0000       3.897723       106.0624 
 197   0.0000       3.903625       106.2230 
 198   0.0000       3.905670       106.2787 
 199   0.0000       3.908930       106.3674 
 200   0.0000       3.913191       106.4833 
 201   0.0000       4.241938       115.4290 
 202   0.0000       4.260729       115.9403 
 203   0.0000       4.295961       116.8990 
 204   0.0000       4.494464       122.3006 
 205   0.0000       4.506798       122.6362 
 206   0.0000       4.531970       123.3212 
 207   0.0000       4.543980       123.6480 
 208   0.0000       4.551754       123.8595 
 209   0.0000       4.559297       124.0648 
 210   0.0000       4.710499       128.1792 
 211   0.0000       4.728765       128.6762 
 212   0.0000       4.735117       128.8491 
 213   0.0000       4.862600       132.3181 
 214   0.0000       4.873660       132.6190 
 215   0.0000       4.927862       134.0939 
 216   0.0000       5.684139       154.6733 
 217   0.0000       5.693048       154.9157 
 218   0.0000       5.702786       155.1807 
 219   0.0000       5.755723       156.6212 
 220   0.0000       5.770618       157.0265 
 221   0.0000       5.787152       157.4764 
 222   0.0000       5.872563       159.8006 
 223   0.0000       5.880093       160.0055 
 224   0.0000       5.888582       160.2365 
 225   0.0000       6.146533       167.2557 
 226   0.0000       6.156625       167.5303 
 227   0.0000       6.165531       167.7726 
 228   0.0000       6.171207       167.9271 
 229   0.0000       6.175246       168.0370 
 230   0.0000       6.179560       168.1544 
 231   0.0000       6.307172       171.6269 
 232   0.0000       6.328003       172.1937 
 233   0.0000       6.333897       172.3541 
 234   0.0000       6.647985       180.9009 
 235   0.0000       6.667920       181.4433 
 236   0.0000       6.682375       181.8367 
 237   0.0000       6.939545       188.8346 
 238   0.0000       6.949331       189.1009 
 239   0.0000       6.959047       189.3653 
 240   0.0000       7.157707       194.7711 
 241   0.0000       7.161191       194.8659 
 242   0.0000       7.170983       195.1324 
 243   0.0000       7.208288       196.1475 
 244   0.0000       7.221590       196.5094 
 245   0.0000       7.225083       196.6045 
 246   0.0000       7.448343       202.6797 
 247   0.0000       7.469064       203.2436 
 248   0.0000       7.500575       204.1010 
 249   0.0000       7.579075       206.2371 
 250   0.0000       7.604296       206.9234 
 251   0.0000       7.639722       207.8874 
 252   0.0000      23.351353       635.4226 
 253   0.0000      23.375423       636.0776 
 254   0.0000      23.387234       636.3990 
 255   0.0000      45.132305      1228.1125 
 256   0.0000      45.152549      1228.6633 
 257   0.0000      45.234942      1230.9053 

                    ********************************
                    * MULLIKEN POPULATION ANALYSIS *
                    ********************************

-----------------------
MULLIKEN ATOMIC CHARGES
-----------------------
   0 O :   -0.558092
   1 H :    0.334309
   2 C :   -0.098274
   3 H :    0.121749
   4 H :    0.096462
   5 H :    0.102963
   6 O :   -0.563304
   7 H :    0.342118
   8 C :   -0.091822
   9 H :    0.105808
  10 H :    0.096898
  11 H :    0.114177
  12 O :   -0.554796
  13 H :    0.334790
  14 C :   -0.062024
  15 H :    0.107475
  16 H :    0.069688
  17 H :    0.101874
Sum of atomic charges:   -0.0000000

--------------------------------
MULLIKEN REDUCED ORBITAL CHARGES
--------------------------------
  0 O s       :     3.807374  s :     3.807374
      pz      :     1.456457  p :     4.717145
      px      :     1.486246
      py      :     1.774443
      dz2     :     0.006302  d :     0.031861
      dxz     :     0.007601
      dyz     :     0.006769
      dx2y2   :     0.008377
      dxy     :     0.002811
      f0      :     0.000259  f :     0.001711
      f+1     :     0.000067
      f-1     :     0.000502
      f+2     :     0.000407
      f-2     :     0.000172
      f+3     :     0.000259
      f-3     :     0.000044
  1 H s       :     0.622770  s :     0.622770
      pz      :     0.012835  p :     0.042921
      px      :     0.017034
      py      :     0.013052
  2 C s       :     3.198980  s :     3.198980
      pz      :     0.773613  p :     2.775169
      px      :     1.071494
      py      :     0.930062
      dz2     :     0.031054  d :     0.115215
      dxz     :     0.025203
      dyz     :     0.025456
      dx2y2   :     0.009567
      dxy     :     0.023935
      f0      :     0.001911  f :     0.008910
      f+1     :     0.001072
      f-1     :     0.002106
      f+2     :     0.001253
      f-2     :     0.001405
      f+3     :     0.000583
      f-3     :     0.000579
  3 H s       :     0.857029  s :     0.857029
      pz      :     0.003656  p :     0.021222
      px      :     0.012761
      py      :     0.004805
  4 H s       :     0.883148  s :     0.883148
      pz      :     0.009063  p :     0.020390
      px      :     0.004800
      py      :     0.006527
  5 H s       :     0.876889  s :     0.876889
      pz      :     0.002378  p :     0.020147
      px      :     0.007544
      py      :     0.010226
  6 O s       :     3.805626  s :     3.805626
      pz      :     1.458531  p :     4.723545
      px      :     1.792341
      py      :     1.472672
      dz2     :     0.007327  d :     0.032407
      dxz     :     0.007037
      dyz     :     0.005204
      dx2y2   :     0.009071
      dxy     :     0.003769
      f0      :     0.000166  f :     0.001726
      f+1     :     0.000576
      f-1     :     0.000121
      f+2     :     0.000385
      f-2     :     0.000091
      f+3     :     0.000137
      f-3     :     0.000250
  7 H s       :     0.615145  s :     0.615145
      pz      :     0.018143  p :     0.042737
      px      :     0.015421
      py      :     0.009173
  8 C s       :     3.198173  s :     3.198173
      pz      :     0.997723  p :     2.768774
      px      :     1.051345
      py      :     0.719706
      dz2     :     0.026787  d :     0.115865
      dxz     :     0.011905
      dyz     :     0.023154
      dx2y2   :     0.017646
      dxy     :     0.036373
      f0      :     0.000826  f :     0.009010
      f+1     :     0.000681
      f-1     :     0.001679
      f+2     :     0.001224
      f-2     :     0.001237
      f+3     :     0.001711
      f-3     :     0.001652
  9 H s       :     0.873156  s :     0.873156
      pz      :     0.013483  p :     0.021036
      px      :     0.005227
      py      :     0.002326
 10 H s       :     0.882760  s :     0.882760
      pz      :     0.005914  p :     0.020342
      px      :     0.007492
      py      :     0.006936
 11 H s       :     0.865695  s :     0.865695
      pz      :     0.003131  p :     0.020128
      px      :     0.012884
      py      :     0.004113
 12 O s       :     3.805526  s :     3.805526
      pz      :     1.381859  p :     4.715060
      px      :     1.744131
      py      :     1.589071
      dz2     :     0.003042  d :     0.032484
      dxz     :     0.003935
      dyz     :     0.014864
      dx2y2   :     0.004463
      dxy     :     0.006181
      f0      :     0.000113  f :     0.001725
      f+1     :     0.000342
      f-1     :     0.000399
      f+2     :     0.000310
      f-2     :     0.000368
      f+3     :     0.000086
      f-3     :     0.000107
 13 H s       :     0.622221  s :     0.622221
      pz      :     0.016762  p :     0.042988
      px      :     0.013185
      py      :     0.013041
 14 C s       :     3.187290  s :     3.187290
      pz      :     0.889835  p :     2.751888
      px      :     0.918514
      py      :     0.943538
      dz2     :     0.025046  d :     0.114005
      dxz     :     0.018083
      dyz     :     0.029289
      dx2y2   :     0.022292
      dxy     :     0.019295
      f0      :     0.000927  f :     0.008841
      f+1     :     0.000965
      f-1     :     0.001396
      f+2     :     0.002086
      f-2     :     0.001735
      f+3     :     0.001014
      f-3     :     0.000716
 15 H s       :     0.871516  s :     0.871516
      pz      :     0.010194  p :     0.021009
      px      :     0.003561
      py      :     0.007254
 16 H s       :     0.910198  s :     0.910198
      pz      :     0.004294  p :     0.020114
      px      :     0.005142
      py      :     0.010678
 17 H s       :     0.877868  s :     0.877868
      pz      :     0.004284  p :     0.020257
      px      :     0.012088
      py      :     0.003885


                     *******************************
                     * LOEWDIN POPULATION ANALYSIS *
                     *******************************

----------------------
LOEWDIN ATOMIC CHARGES
----------------------
   0 O :   -0.137786
   1 H :    0.190972
   2 C :   -0.335729
   3 H :    0.101307
   4 H :    0.090094
   5 H :    0.090781
   6 O :   -0.134065
   7 H :    0.191191
   8 C :   -0.335469
   9 H :    0.099571
  10 H :    0.089727
  11 H :    0.092806
  12 O :   -0.133248
  13 H :    0.188380
  14 C :   -0.332892
  15 H :    0.099440
  16 H :    0.082892
  17 H :    0.092028

-------------------------------
LOEWDIN REDUCED ORBITAL CHARGES
-------------------------------
  0 O s       :     3.394904  s :     3.394904
      pz      :     1.473204  p :     4.671339
      px      :     1.482795
      py      :     1.715340
      dz2     :     0.015294  d :     0.067481
      dxz     :     0.019473
      dyz     :     0.014854
      dx2y2   :     0.012216
      dxy     :     0.005644
      f0      :     0.000890  f :     0.004063
      f+1     :     0.000398
      f-1     :     0.000842
      f+2     :     0.000845
      f-2     :     0.000460
      f+3     :     0.000534
      f-3     :     0.000092
  1 H s       :     0.664136  s :     0.664136
      pz      :     0.035501  p :     0.144892
      px      :     0.073017
      py      :     0.036374
  2 C s       :     2.862649  s :     2.862649
      pz      :     0.888716  p :     2.997919
      px      :     1.098772
      py      :     1.010431
      dz2     :     0.117953  d :     0.418472
      dxz     :     0.079417
      dyz     :     0.111032
      dx2y2   :     0.034183
      dxy     :     0.075888
      f0      :     0.013541  f :     0.056689
      f+1     :     0.008273
      f-1     :     0.011984
      f+2     :     0.009745
      f-2     :     0.007382
      f+3     :     0.002615
      f-3     :     0.003151
  3 H s       :     0.838855  s :     0.838855
      pz      :     0.010759  p :     0.059839
      px      :     0.034554
      py      :     0.014526
  4 H s       :     0.851367  s :     0.851367
      pz      :     0.023879  p :     0.058539
      px      :     0.015496
      py      :     0.019164
  5 H s       :     0.850063  s :     0.850063
      pz      :     0.008909  p :     0.059156
      px      :     0.022142
      py      :     0.028105
  6 O s       :     3.392052  s :     3.392052
      pz      :     1.430098  p :     4.669809
      px      :     1.710872
      py      :     1.528839
      dz2     :     0.015831  d :     0.068101
      dxz     :     0.012297
      dyz     :     0.013429
      dx2y2   :     0.015667
      dxy     :     0.010878
      f0      :     0.000273  f :     0.004102
      f+1     :     0.000824
      f-1     :     0.000731
      f+2     :     0.000793
      f-2     :     0.000294
      f+3     :     0.000650
      f-3     :     0.000537
  7 H s       :     0.663399  s :     0.663399
      pz      :     0.066744  p :     0.145410
      px      :     0.050843
      py      :     0.027823
  8 C s       :     2.861127  s :     2.861127
      pz      :     1.044615  p :     2.995436
      px      :     1.089124
      py      :     0.861696
      dz2     :     0.087937  d :     0.421564
      dxz     :     0.037370
      dyz     :     0.085822
      dx2y2   :     0.085357
      dxy     :     0.125078
      f0      :     0.004589  f :     0.057342
      f+1     :     0.002493
      f-1     :     0.011749
      f+2     :     0.009293
      f-2     :     0.008631
      f+3     :     0.010621
      f-3     :     0.009966
  9 H s       :     0.841771  s :     0.841771
      pz      :     0.034622  p :     0.058658
      px      :     0.016002
      py      :     0.008034
 10 H s       :     0.851873  s :     0.851873
      pz      :     0.018064  p :     0.058401
      px      :     0.021569
      py      :     0.018769
 11 H s       :     0.847565  s :     0.847565
      pz      :     0.011625  p :     0.059629
      px      :     0.035273
      py      :     0.012732
 12 O s       :     3.394686  s :     3.394686
      pz      :     1.381011  p :     4.666636
      px      :     1.690315
      py      :     1.595310
      dz2     :     0.012633  d :     0.067839
      dxz     :     0.011113
      dyz     :     0.025256
      dx2y2   :     0.008236
      dxy     :     0.010600
      f0      :     0.000328  f :     0.004087
      f+1     :     0.000612
      f-1     :     0.000952
      f+2     :     0.000947
      f-2     :     0.000625
      f+3     :     0.000295
      f-3     :     0.000328
 13 H s       :     0.665427  s :     0.665427
      pz      :     0.056001  p :     0.146193
      px      :     0.036884
      py      :     0.053308
 14 C s       :     2.862465  s :     2.862465
      pz      :     0.965325  p :     2.991922
      px      :     0.999340
      py      :     1.027258
      dz2     :     0.076975  d :     0.421586
      dxz     :     0.073560
      dyz     :     0.112190
      dx2y2   :     0.080860
      dxy     :     0.078000
      f0      :     0.008834  f :     0.056919
      f+1     :     0.007020
      f-1     :     0.008512
      f+2     :     0.011027
      f-2     :     0.009846
      f+3     :     0.006871
      f-3     :     0.004809
 15 H s       :     0.842026  s :     0.842026
      pz      :     0.026085  p :     0.058534
      px      :     0.011469
      py      :     0.020980
 16 H s       :     0.858991  s :     0.858991
      pz      :     0.013628  p :     0.058117
      px      :     0.015693
      py      :     0.028796
 17 H s       :     0.849013  s :     0.849013
      pz      :     0.013867  p :     0.058959
      px      :     0.032365
      py      :     0.012727


                      *****************************
                      * MAYER POPULATION ANALYSIS *
                      *****************************

  NA   - Mulliken gross atomic population
  ZA   - Total nuclear charge
  QA   - Mulliken gross atomic charge
  VA   - Mayer's total valence
  BVA  - Mayer's bonded valence
  FA   - Mayer's free valence

  ATOM       NA         ZA         QA         VA         BVA        FA
  0 O      8.5581     8.0000    -0.5581     1.7804     1.7804    -0.0000
  1 H      0.6657     1.0000     0.3343     0.8965     0.8965    -0.0000
  2 C      6.0983     6.0000    -0.0983     3.8799     3.8799    -0.0000
  3 H      0.8783     1.0000     0.1217     0.9616     0.9616     0.0000
  4 H      0.9035     1.0000     0.0965     0.9618     0.9618     0.0000
  5 H      0.8970     1.0000     0.1030     0.9638     0.9638    -0.0000
  6 O      8.5633     8.0000    -0.5633     1.7789     1.7789     0.0000
  7 H      0.6579     1.0000     0.3421     0.8898     0.8898     0.0000
  8 C      6.0918     6.0000    -0.0918     3.8789     3.8789    -0.0000
  9 H      0.8942     1.0000     0.1058     0.9630     0.9630    -0.0000
 10 H      0.9031     1.0000     0.0969     0.9661     0.9661    -0.0000
 11 H      0.8858     1.0000     0.1142     0.9546     0.9546    -0.0000
 12 O      8.5548     8.0000    -0.5548     1.7913     1.7913    -0.0000
 13 H      0.6652     1.0000     0.3348     0.8972     0.8972    -0.0000
 14 C      6.0620     6.0000    -0.0620     3.8998     3.8998    -0.0000
 15 H      0.8925     1.0000     0.1075     0.9599     0.9599    -0.0000
 16 H      0.9303     1.0000     0.0697     0.9642     0.9642     0.0000
 17 H      0.8981     1.0000     0.1019     0.9648     0.9648     0.0000

  Mayer bond orders larger than 0.100000
B(  0-O ,  1-H ) :   0.8852 B(  0-O ,  2-C ) :   0.9190 B(  2-C ,  3-H ) :   0.9817 
B(  2-C ,  4-H ) :   0.9884 B(  2-C ,  5-H ) :   0.9866 B(  6-O ,  7-H ) :   0.8789 
B(  6-O ,  8-C ) :   0.9148 B(  8-C ,  9-H ) :   0.9850 B(  8-C , 10-H ) :   0.9904 
B(  8-C , 11-H ) :   0.9843 B( 12-O , 13-H ) :   0.8849 B( 12-O , 14-C ) :   0.9327 
B( 14-C , 15-H ) :   0.9821 B( 14-C , 16-H ) :   0.9891 B( 14-C , 17-H ) :   0.9896 


-------
TIMINGS
-------

Total SCF time: 0 days 0 hours 0 min 14 sec 

Total time                  ....      14.355 sec
Sum of individual times     ....      14.128 sec  ( 98.4%)

Fock matrix formation       ....      13.777 sec  ( 96.0%)
Diagonalization             ....       0.073 sec  (  0.5%)
Density matrix formation    ....       0.010 sec  (  0.1%)
Population analysis         ....       0.008 sec  (  0.1%)
Initial guess               ....       0.145 sec  (  1.0%)
Orbital Transformation      ....       0.000 sec  (  0.0%)
Orbital Orthonormalization  ....       0.000 sec  (  0.0%)
DIIS solution               ....       0.027 sec  (  0.2%)
SOSCF solution              ....       0.031 sec  (  0.2%)


           ************************************************************
           *        Program running with 6 parallel MPI-processes     *
           *              working on a common directory               *
           ************************************************************

------------------------------------------------------------------------------
                                ORCA  MP2 
------------------------------------------------------------------------------

Freezing NCore=12 chemical core electrons
MP2 will be done in the AO integral direct mode
The Q1-step will be done using symmetric double matrices
Dimension of the basis                    ...  258
Memory devoted for MP2                    ... 8000 MB   
Memory needed for all in one shot         ...  264 MB
Number of MOs that can be treated together...  120      
MP2 density construction                  ... relaxed
The MP2 gradient is requested => amplitudes will be stored on disk
Total number of MOs              ...   21
Number of MOs treated per batch  ...    4 
Number of batches necessary      ...    1 
OPERATORS   0/  0 PASS   0
-----------------------------------------------
 MP2 CORRELATION ENERGY   :     -1.254544571 Eh
-----------------------------------------------


---------------------
MP2 DENSITY FORMATION
---------------------

Completing the external part of the density      ... done
Storing the unrelaxed density                    ... done

Calculating G(D)                                 ... done
Completing the Lagrangian                        ... done
Solving the Z-vector equations                   ... 

------------------------------------------------------------------------------
                           ORCA CP-SCF CALCULATION
------------------------------------------------------------------------------

Input orbitals are from        ... 12meoh.boyd.etal.mol1,7,8-orca.engrad-mp2.def2tzvp.frozencore.gbw
Input Perturbation             ... 12meoh.boyd.etal.mol1,7,8-orca.engrad-mp2.def2tzvp.frozencore.pin.tmp
Wavefunction output            ... 12meoh.boyd.etal.mol1,7,8-orca.engrad-mp2.def2tzvp.frozencore.pout.tmp
Perturbation mode              ... Real perturbation (singlet)
Solver                         ... POPLE
Max. number of iterations      ... 128
Convergence tolerance          ... 1.000e-08
Integral handling              ... Direct
Number of perturbations        ... 1
Number of operators            ... 1
Orbital ranges used for CP-SCF:
 Operator 0:  Orbitals   0... 26  to  27...257
Variables per vector in CP-SCF ... 6237
Number of vectors sought       ... 1
     CP-SCF ITERATION   0: 
     CP-SCF ITERATION   1:      0.000363559135
     CP-SCF ITERATION   2:      0.000018901910
     CP-SCF ITERATION   3:      0.000003101197
     CP-SCF ITERATION   4:      0.000000163280
     CP-SCF ITERATION   5:      0.000000005175
                                                 ... done
Finalizing the relaxed density                   ... done
Transforming P to the AO basis                   ... done
Storing the relaxed density                      ... done

------------------------------------
ENERGY WEIGHTED DENSITY FINALIZATION
------------------------------------

Gathering the parts of the W-matrix              ...                                                      done
Forming the Z-density                            ... done
Transforming Z to the AO basis                   ... done
Calculating G(Z)                                 ... done
Finalizing the W-matrix                          ...                                                      done
Transforming W to the AO basis and storing       ... done

                *********************************************
                * UNRELAXED MP2 DENSITY POPULATION ANALYSIS *
                *********************************************

------------------------------------------------------------------------------
                           ORCA POPULATION ANALYSIS
------------------------------------------------------------------------------
Input electron density              ... 12meoh.boyd.etal.mol1,7,8-orca.engrad-mp2.def2tzvp.frozencore.pmp2ur
BaseName (.gbw .S,...)              ... 12meoh.boyd.etal.mol1,7,8-orca.engrad-mp2.def2tzvp.frozencore

                    ********************************
                    * MULLIKEN POPULATION ANALYSIS *
                    ********************************

-----------------------
MULLIKEN ATOMIC CHARGES
-----------------------
   0 O :   -0.546916
   1 H :    0.331616
   2 C :   -0.114231
   3 H :    0.124068
   4 H :    0.098971
   5 H :    0.105439
   6 O :   -0.551885
   7 H :    0.339343
   8 C :   -0.107623
   9 H :    0.108612
  10 H :    0.099411
  11 H :    0.116355
  12 O :   -0.543656
  13 H :    0.332086
  14 C :   -0.078280
  15 H :    0.110332
  16 H :    0.072111
  17 H :    0.104245
Sum of atomic charges:   -0.0000000

--------------------------------
MULLIKEN REDUCED ORBITAL CHARGES
--------------------------------
  0 O s       :     3.802180  s :     3.802180
      pz      :     1.444873  p :     4.681128
      px      :     1.475279
      py      :     1.760976
      dz2     :     0.011822  d :     0.059242
      dxz     :     0.012995
      dyz     :     0.012251
      dx2y2   :     0.013720
      dxy     :     0.008455
      f0      :     0.000644  f :     0.004366
      f+1     :     0.000458
      f-1     :     0.000872
      f+2     :     0.000784
      f-2     :     0.000553
      f+3     :     0.000631
      f-3     :     0.000424
  1 H s       :     0.623772  s :     0.623772
      pz      :     0.013471  p :     0.044611
      px      :     0.017190
      py      :     0.013950
  2 C s       :     3.197107  s :     3.197107
      pz      :     0.774638  p :     2.768849
      px      :     1.066429
      py      :     0.927782
      dz2     :     0.034752  d :     0.136038
      dxz     :     0.029960
      dyz     :     0.028546
      dx2y2   :     0.014659
      dxy     :     0.028122
      f0      :     0.002414  f :     0.012237
      f+1     :     0.001571
      f-1     :     0.002465
      f+2     :     0.001714
      f-2     :     0.001914
      f+3     :     0.001083
      f-3     :     0.001077
  3 H s       :     0.851623  s :     0.851623
      pz      :     0.004788  p :     0.024309
      px      :     0.013616
      py      :     0.005904
  4 H s       :     0.877450  s :     0.877450
      pz      :     0.010079  p :     0.023579
      px      :     0.005925
      py      :     0.007575
  5 H s       :     0.871255  s :     0.871255
      pz      :     0.003545  p :     0.023305
      px      :     0.008589
      py      :     0.011171
  6 O s       :     3.800515  s :     3.800515
      pz      :     1.448353  p :     4.687147
      px      :     1.779157
      py      :     1.459637
      dz2     :     0.012814  d :     0.059839
      dxz     :     0.012498
      dyz     :     0.010684
      dx2y2   :     0.014441
      dxy     :     0.009402
      f0      :     0.000545  f :     0.004384
      f+1     :     0.000933
      f-1     :     0.000514
      f+2     :     0.000762
      f-2     :     0.000471
      f+3     :     0.000528
      f-3     :     0.000631
  7 H s       :     0.616216  s :     0.616216
      pz      :     0.018282  p :     0.044441
      px      :     0.016101
      py      :     0.010057
  8 C s       :     3.196308  s :     3.196308
      pz      :     0.994469  p :     2.762379
      px      :     1.046531
      py      :     0.721378
      dz2     :     0.031126  d :     0.136598
      dxz     :     0.016988
      dyz     :     0.026804
      dx2y2   :     0.021309
      dxy     :     0.040371
      f0      :     0.001292  f :     0.012338
      f+1     :     0.001152
      f-1     :     0.002213
      f+2     :     0.001653
      f-2     :     0.001727
      f+3     :     0.002240
      f-3     :     0.002060
  9 H s       :     0.867241  s :     0.867241
      pz      :     0.014357  p :     0.024147
      px      :     0.006315
      py      :     0.003475
 10 H s       :     0.877056  s :     0.877056
      pz      :     0.006987  p :     0.023533
      px      :     0.008535
      py      :     0.008010
 11 H s       :     0.860373  s :     0.860373
      pz      :     0.004281  p :     0.023272
      px      :     0.013755
      py      :     0.005236
 12 O s       :     3.800267  s :     3.800267
      pz      :     1.372039  p :     4.679243
      px      :     1.730936
      py      :     1.576268
      dz2     :     0.008681  d :     0.059765
      dxz     :     0.009536
      dyz     :     0.019922
      dx2y2   :     0.009984
      dxy     :     0.011641
      f0      :     0.000492  f :     0.004381
      f+1     :     0.000709
      f-1     :     0.000781
      f+2     :     0.000696
      f-2     :     0.000749
      f+3     :     0.000467
      f-3     :     0.000488
 13 H s       :     0.623228  s :     0.623228
      pz      :     0.016978  p :     0.044686
      px      :     0.014057
      py      :     0.013651
 14 C s       :     3.185360  s :     3.185360
      pz      :     0.888878  p :     2.746074
      px      :     0.916455
      py      :     0.940741
      dz2     :     0.029767  d :     0.134682
      dxz     :     0.021885
      dyz     :     0.032903
      dx2y2   :     0.026749
      dxy     :     0.023378
      f0      :     0.001412  f :     0.012164
      f+1     :     0.001471
      f-1     :     0.001854
      f+2     :     0.002566
      f-2     :     0.002145
      f+3     :     0.001483
      f-3     :     0.001234
 15 H s       :     0.865555  s :     0.865555
      pz      :     0.011168  p :     0.024114
      px      :     0.004691
      py      :     0.008254
 16 H s       :     0.904536  s :     0.904536
      pz      :     0.005437  p :     0.023353
      px      :     0.006256
      py      :     0.011660
 17 H s       :     0.872338  s :     0.872338
      pz      :     0.005390  p :     0.023416
      px      :     0.013002
      py      :     0.005024


                     *******************************
                     * LOEWDIN POPULATION ANALYSIS *
                     *******************************

----------------------
LOEWDIN ATOMIC CHARGES
----------------------
   0 O :   -0.129867
   1 H :    0.189144
   2 C :   -0.346525
   3 H :    0.102907
   4 H :    0.091574
   5 H :    0.092313
   6 O :   -0.125911
   7 H :    0.189254
   8 C :   -0.346085
   9 H :    0.101319
  10 H :    0.091218
  11 H :    0.094255
  12 O :   -0.125425
  13 H :    0.186534
  14 C :   -0.343697
  15 H :    0.101189
  16 H :    0.084315
  17 H :    0.093487

-------------------------------
LOEWDIN REDUCED ORBITAL CHARGES
-------------------------------
  0 O s       :     3.391447  s :     3.391447
      pz      :     1.461129  p :     4.635172
      px      :     1.471900
      py      :     1.702142
      dz2     :     0.021041  d :     0.096280
      dxz     :     0.024941
      dyz     :     0.021069
      dx2y2   :     0.018070
      dxy     :     0.011159
      f0      :     0.001307  f :     0.006967
      f+1     :     0.000803
      f-1     :     0.001293
      f+2     :     0.001285
      f-2     :     0.000862
      f+3     :     0.000937
      f-3     :     0.000480
  1 H s       :     0.662436  s :     0.662436
      pz      :     0.036435  p :     0.148420
      px      :     0.074754
      py      :     0.037231
  2 C s       :     2.861527  s :     2.861527
      pz      :     0.886397  p :     2.984000
      px      :     1.091960
      py      :     1.005643
      dz2     :     0.121529  d :     0.439429
      dxz     :     0.083487
      dyz     :     0.114723
      dx2y2   :     0.039297
      dxy     :     0.080393
      f0      :     0.014075  f :     0.061569
      f+1     :     0.008893
      f-1     :     0.012997
      f+2     :     0.010349
      f-2     :     0.008103
      f+3     :     0.003329
      f-3     :     0.003824
  3 H s       :     0.832233  s :     0.832233
      pz      :     0.012194  p :     0.064860
      px      :     0.036708
      py      :     0.015958
  4 H s       :     0.844666  s :     0.844666
      pz      :     0.026008  p :     0.063760
      px      :     0.016925
      py      :     0.020827
  5 H s       :     0.843324  s :     0.843324
      pz      :     0.010274  p :     0.064363
      px      :     0.023902
      py      :     0.030188
  6 O s       :     3.388627  s :     3.388627
      pz      :     1.419851  p :     4.633301
      px      :     1.698250
      py      :     1.515200
      dz2     :     0.021478  d :     0.096968
      dxz     :     0.018262
      dyz     :     0.019106
      dx2y2   :     0.021746
      dxy     :     0.016376
      f0      :     0.000687  f :     0.007015
      f+1     :     0.001254
      f-1     :     0.001137
      f+2     :     0.001237
      f-2     :     0.000686
      f+3     :     0.001049
      f-3     :     0.000966
  7 H s       :     0.661819  s :     0.661819
      pz      :     0.068273  p :     0.148927
      px      :     0.051965
      py      :     0.028689
  8 C s       :     2.860009  s :     2.860009
      pz      :     1.039026  p :     2.981434
      px      :     1.082547
      py      :     0.859861
      dz2     :     0.092257  d :     0.442422
      dxz     :     0.042485
      dyz     :     0.089531
      dx2y2   :     0.089520
      dxy     :     0.128628
      f0      :     0.005402  f :     0.062220
      f+1     :     0.003241
      f-1     :     0.012276
      f+2     :     0.010013
      f-2     :     0.009235
      f+3     :     0.011193
      f-3     :     0.010860
  9 H s       :     0.834964  s :     0.834964
      pz      :     0.036966  p :     0.063717
      px      :     0.017392
      py      :     0.009359
 10 H s       :     0.845147  s :     0.845147
      pz      :     0.019659  p :     0.063635
      px      :     0.023247
      py      :     0.020729
 11 H s       :     0.840934  s :     0.840934
      pz      :     0.012903  p :     0.064811
      px      :     0.037554
      py      :     0.014354
 12 O s       :     3.391223  s :     3.391223
      pz      :     1.370744  p :     4.630675
      px      :     1.677329
      py      :     1.582602
      dz2     :     0.018078  d :     0.096532
      dxz     :     0.017115
      dyz     :     0.031189
      dx2y2   :     0.013808
      dxy     :     0.016341
      f0      :     0.000727  f :     0.006995
      f+1     :     0.001014
      f-1     :     0.001399
      f+2     :     0.001365
      f-2     :     0.001081
      f+3     :     0.000687
      f-3     :     0.000721
 13 H s       :     0.663759  s :     0.663759
      pz      :     0.057327  p :     0.149707
      px      :     0.037743
      py      :     0.054637
 14 C s       :     2.861331  s :     2.861331
      pz      :     0.961437  p :     2.978179
      px      :     0.994783
      py      :     1.021959
      dz2     :     0.080935  d :     0.442392
      dxz     :     0.077652
      dyz     :     0.116353
      dx2y2   :     0.085114
      dxy     :     0.082338
      f0      :     0.009448  f :     0.061795
      f+1     :     0.007650
      f-1     :     0.009234
      f+2     :     0.011656
      f-2     :     0.010790
      f+3     :     0.007544
      f-3     :     0.005473
 15 H s       :     0.835229  s :     0.835229
      pz      :     0.028162  p :     0.063582
      px      :     0.012774
      py      :     0.022647
 16 H s       :     0.852241  s :     0.852241
      pz      :     0.015130  p :     0.063444
      px      :     0.017236
      py      :     0.031078
 17 H s       :     0.842370  s :     0.842370
      pz      :     0.015335  p :     0.064144
      px      :     0.034691
      py      :     0.014117


                      *****************************
                      * MAYER POPULATION ANALYSIS *
                      *****************************

  NA   - Mulliken gross atomic population
  ZA   - Total nuclear charge
  QA   - Mulliken gross atomic charge
  VA   - Mayer's total valence
  BVA  - Mayer's bonded valence
  FA   - Mayer's free valence

  ATOM       NA         ZA         QA         VA         BVA        FA
  0 O      8.5469     8.0000    -0.5469     2.0817     1.6747     0.4070
  1 H      0.6684     1.0000     0.3316     0.9029     0.8504     0.0525
  2 C      6.1142     6.0000    -0.1142     3.9875     3.7067     0.2807
  3 H      0.8759     1.0000     0.1241     0.9708     0.9234     0.0473
  4 H      0.9010     1.0000     0.0990     0.9713     0.9225     0.0488
  5 H      0.8946     1.0000     0.1054     0.9732     0.9249     0.0483
  6 O      8.5519     8.0000    -0.5519     2.0815     1.6736     0.4079
  7 H      0.6607     1.0000     0.3393     0.8963     0.8441     0.0521
  8 C      6.1076     6.0000    -0.1076     3.9858     3.7060     0.2799
  9 H      0.8914     1.0000     0.1086     0.9720     0.9248     0.0472
 10 H      0.9006     1.0000     0.0994     0.9756     0.9269     0.0487
 11 H      0.8836     1.0000     0.1164     0.9642     0.9156     0.0486
 12 O      8.5437     8.0000    -0.5437     2.0909     1.6857     0.4052
 13 H      0.6679     1.0000     0.3321     0.9037     0.8515     0.0522
 14 C      6.0783     6.0000    -0.0783     4.0047     3.7258     0.2789
 15 H      0.8897     1.0000     0.1103     0.9689     0.9220     0.0469
 16 H      0.9279     1.0000     0.0721     0.9750     0.9244     0.0506
 17 H      0.8958     1.0000     0.1042     0.9744     0.9257     0.0487

  Mayer bond orders larger than 0.100000
B(  0-O ,  1-H ) :   0.8401 B(  0-O ,  2-C ) :   0.8601 B(  2-C ,  3-H ) :   0.9441 
B(  2-C ,  4-H ) :   0.9501 B(  2-C ,  5-H ) :   0.9487 B(  6-O ,  7-H ) :   0.8341 
B(  6-O ,  8-C ) :   0.8564 B(  8-C ,  9-H ) :   0.9474 B(  8-C , 10-H ) :   0.9522 
B(  8-C , 11-H ) :   0.9461 B( 12-O , 13-H ) :   0.8402 B( 12-O , 14-C ) :   0.8736 
B( 14-C , 15-H ) :   0.9448 B( 14-C , 16-H ) :   0.9503 B( 14-C , 17-H ) :   0.9514 



                *******************************************
                * RELAXED MP2 DENSITY POPULATION ANALYSIS *
                *******************************************

------------------------------------------------------------------------------
                           ORCA POPULATION ANALYSIS
------------------------------------------------------------------------------
Input electron density              ... 12meoh.boyd.etal.mol1,7,8-orca.engrad-mp2.def2tzvp.frozencore.pmp2re
BaseName (.gbw .S,...)              ... 12meoh.boyd.etal.mol1,7,8-orca.engrad-mp2.def2tzvp.frozencore

                    ********************************
                    * MULLIKEN POPULATION ANALYSIS *
                    ********************************

-----------------------
MULLIKEN ATOMIC CHARGES
-----------------------
   0 O :   -0.507817
   1 H :    0.325610
   2 C :   -0.196773
   3 H :    0.140072
   4 H :    0.115278
   5 H :    0.121597
   6 O :   -0.511349
   7 H :    0.333014
   8 C :   -0.189394
   9 H :    0.126939
  10 H :    0.116090
  11 H :    0.131309
  12 O :   -0.504982
  13 H :    0.325865
  14 C :   -0.161723
  15 H :    0.127907
  16 H :    0.088214
  17 H :    0.120142
Sum of atomic charges:   -0.0000000

--------------------------------
MULLIKEN REDUCED ORBITAL CHARGES
--------------------------------
  0 O s       :     3.805581  s :     3.805581
      pz      :     1.435476  p :     4.640783
      px      :     1.456174
      py      :     1.749133
      dz2     :     0.011408  d :     0.057145
      dxz     :     0.012677
      dyz     :     0.011546
      dx2y2   :     0.012898
      dxy     :     0.008616
      f0      :     0.000643  f :     0.004309
      f+1     :     0.000459
      f-1     :     0.000845
      f+2     :     0.000767
      f-2     :     0.000554
      f+3     :     0.000618
      f-3     :     0.000423
  1 H s       :     0.629183  s :     0.629183
      pz      :     0.013771  p :     0.045206
      px      :     0.016482
      py      :     0.014953
  2 C s       :     3.219539  s :     3.219539
      pz      :     0.794305  p :     2.838735
      px      :     1.093065
      py      :     0.951366
      dz2     :     0.033085  d :     0.126805
      dxz     :     0.030232
      dyz     :     0.025464
      dx2y2   :     0.013755
      dxy     :     0.024269
      f0      :     0.002279  f :     0.011693
      f+1     :     0.001532
      f-1     :     0.002324
      f+2     :     0.001645
      f-2     :     0.001858
      f+3     :     0.001036
      f-3     :     0.001018
  3 H s       :     0.836740  s :     0.836740
      pz      :     0.004866  p :     0.023188
      px      :     0.012425
      py      :     0.005896
  4 H s       :     0.862223  s :     0.862223
      pz      :     0.009329  p :     0.022499
      px      :     0.005952
      py      :     0.007217
  5 H s       :     0.856223  s :     0.856223
      pz      :     0.003796  p :     0.022179
      px      :     0.008157
      py      :     0.010227
  6 O s       :     3.803781  s :     3.803781
      pz      :     1.437572  p :     4.645493
      px      :     1.763216
      py      :     1.444705
      dz2     :     0.012318  d :     0.057748
      dxz     :     0.011800
      dyz     :     0.010338
      dx2y2   :     0.013510
      dxy     :     0.009783
      f0      :     0.000534  f :     0.004327
      f+1     :     0.000907
      f-1     :     0.000520
      f+2     :     0.000741
      f-2     :     0.000475
      f+3     :     0.000535
      f-3     :     0.000614
  7 H s       :     0.621871  s :     0.621871
      pz      :     0.017791  p :     0.045115
      px      :     0.016595
      py      :     0.010729
  8 C s       :     3.218158  s :     3.218158
      pz      :     1.018685  p :     2.832134
      px      :     1.073832
      py      :     0.739617
      dz2     :     0.029231  d :     0.127318
      dxz     :     0.015631
      dyz     :     0.024477
      dx2y2   :     0.019311
      dxy     :     0.038668
      f0      :     0.001215  f :     0.011783
      f+1     :     0.001079
      f-1     :     0.002157
      f+2     :     0.001577
      f-2     :     0.001635
      f+3     :     0.002160
      f-3     :     0.001960
  9 H s       :     0.850040  s :     0.850040
      pz      :     0.013028  p :     0.023021
      px      :     0.006324
      py      :     0.003669
 10 H s       :     0.861454  s :     0.861454
      pz      :     0.006753  p :     0.022456
      px      :     0.008138
      py      :     0.007565
 11 H s       :     0.846538  s :     0.846538
      pz      :     0.004503  p :     0.022153
      px      :     0.012466
      py      :     0.005185
 12 O s       :     3.801720  s :     3.801720
      pz      :     1.362746  p :     4.641297
      px      :     1.719698
      py      :     1.558853
      dz2     :     0.008872  d :     0.057641
      dxz     :     0.009158
      dyz     :     0.018197
      dx2y2   :     0.010080
      dxy     :     0.011334
      f0      :     0.000491  f :     0.004325
      f+1     :     0.000707
      f-1     :     0.000760
      f+2     :     0.000692
      f-2     :     0.000724
      f+3     :     0.000466
      f-3     :     0.000486
 13 H s       :     0.628883  s :     0.628883
      pz      :     0.016480  p :     0.045253
      px      :     0.014965
      py      :     0.013807
 14 C s       :     3.208178  s :     3.208178
      pz      :     0.910118  p :     2.816958
      px      :     0.940280
      py      :     0.966561
      dz2     :     0.030073  d :     0.124985
      dxz     :     0.019275
      dyz     :     0.029358
      dx2y2   :     0.024999
      dxy     :     0.021280
      f0      :     0.001345  f :     0.011602
      f+1     :     0.001419
      f-1     :     0.001732
      f+2     :     0.002445
      f-2     :     0.002054
      f+3     :     0.001394
      f-3     :     0.001213
 15 H s       :     0.849114  s :     0.849114
      pz      :     0.010302  p :     0.022979
      px      :     0.004868
      py      :     0.007809
 16 H s       :     0.889515  s :     0.889515
      pz      :     0.005448  p :     0.022271
      px      :     0.006171
      py      :     0.010652
 17 H s       :     0.857584  s :     0.857584
      pz      :     0.005363  p :     0.022274
      px      :     0.011768
      py      :     0.005143


                     *******************************
                     * LOEWDIN POPULATION ANALYSIS *
                     *******************************

----------------------
LOEWDIN ATOMIC CHARGES
----------------------
   0 O :   -0.116396
   1 H :    0.191821
   2 C :   -0.381750
   3 H :    0.109103
   4 H :    0.097516
   5 H :    0.098694
   6 O :   -0.111532
   7 H :    0.191575
   8 C :   -0.380669
   9 H :    0.108781
  10 H :    0.097503
  11 H :    0.099846
  12 O :   -0.112068
  13 H :    0.188700
  14 C :   -0.378974
  15 H :    0.108508
  16 H :    0.090102
  17 H :    0.099240

-------------------------------
LOEWDIN REDUCED ORBITAL CHARGES
-------------------------------
  0 O s       :     3.394449  s :     3.394449
      pz      :     1.457126  p :     4.619027
      px      :     1.468485
      py      :     1.693416
      dz2     :     0.021065  d :     0.095841
      dxz     :     0.024881
      dyz     :     0.020822
      dx2y2   :     0.017778
      dxy     :     0.011295
      f0      :     0.001334  f :     0.007078
      f+1     :     0.000811
      f-1     :     0.001324
      f+2     :     0.001313
      f-2     :     0.000874
      f+3     :     0.000938
      f-3     :     0.000484
  1 H s       :     0.659210  s :     0.659210
      pz      :     0.036389  p :     0.148968
      px      :     0.074559
      py      :     0.038021
  2 C s       :     2.867647  s :     2.867647
      pz      :     0.897563  p :     3.024313
      px      :     1.107066
      py      :     1.019683
      dz2     :     0.120867  d :     0.429772
      dxz     :     0.083133
      dyz     :     0.111100
      dx2y2   :     0.038035
      dxy     :     0.076638
      f0      :     0.013590  f :     0.060018
      f+1     :     0.008674
      f-1     :     0.012778
      f+2     :     0.010112
      f-2     :     0.007887
      f+3     :     0.003236
      f-3     :     0.003742
  3 H s       :     0.825633  s :     0.825633
      pz      :     0.012600  p :     0.065264
      px      :     0.036320
      py      :     0.016344
  4 H s       :     0.837973  s :     0.837973
      pz      :     0.026216  p :     0.064510
      px      :     0.017332
      py      :     0.020962
  5 H s       :     0.836207  s :     0.836207
      pz      :     0.010872  p :     0.065100
      px      :     0.024042
      py      :     0.030187
  6 O s       :     3.391690  s :     3.391690
      pz      :     1.419773  p :     4.616162
      px      :     1.690246
      py      :     1.506143
      dz2     :     0.021284  d :     0.096553
      dxz     :     0.017975
      dyz     :     0.019045
      dx2y2   :     0.021354
      dxy     :     0.016896
      f0      :     0.000697  f :     0.007127
      f+1     :     0.001264
      f-1     :     0.001154
      f+2     :     0.001266
      f-2     :     0.000696
      f+3     :     0.001067
      f-3     :     0.000983
  7 H s       :     0.658984  s :     0.658984
      pz      :     0.067708  p :     0.149442
      px      :     0.052542
      py      :     0.029191
  8 C s       :     2.866135  s :     2.866135
      pz      :     1.053412  p :     3.021310
      px      :     1.098278
      py      :     0.869619
      dz2     :     0.090071  d :     0.432593
      dxz     :     0.040526
      dyz     :     0.086386
      dx2y2   :     0.086678
      dxy     :     0.128932
      f0      :     0.005272  f :     0.060632
      f+1     :     0.003157
      f-1     :     0.011950
      f+2     :     0.009834
      f-2     :     0.009009
      f+3     :     0.010719
      f-3     :     0.010690
  9 H s       :     0.827050  s :     0.827050
      pz      :     0.036597  p :     0.064169
      px      :     0.017757
      py      :     0.009814
 10 H s       :     0.838086  s :     0.838086
      pz      :     0.019893  p :     0.064410
      px      :     0.023395
      py      :     0.021123
 11 H s       :     0.834673  s :     0.834673
      pz      :     0.013431  p :     0.065481
      px      :     0.037145
      py      :     0.014905
 12 O s       :     3.394113  s :     3.394113
      pz      :     1.371495  p :     4.614833
      px      :     1.669237
      py      :     1.574100
      dz2     :     0.018385  d :     0.096017
      dxz     :     0.016991
      dyz     :     0.030268
      dx2y2   :     0.014111
      dxy     :     0.016263
      f0      :     0.000736  f :     0.007105
      f+1     :     0.001032
      f-1     :     0.001426
      f+2     :     0.001383
      f-2     :     0.001105
      f+3     :     0.000698
      f-3     :     0.000725
 13 H s       :     0.661059  s :     0.661059
      pz      :     0.056620  p :     0.150241
      px      :     0.038444
      py      :     0.055177
 14 C s       :     2.867415  s :     2.867415
      pz      :     0.973999  p :     3.018336
      px      :     1.008630
      py      :     1.035707
      dz2     :     0.080375  d :     0.432946
      dxz     :     0.073706
      dyz     :     0.113762
      dx2y2   :     0.084864
      dxy     :     0.080240
      f0      :     0.009353  f :     0.060277
      f+1     :     0.007439
      f-1     :     0.008951
      f+2     :     0.011232
      f-2     :     0.010636
      f+3     :     0.007421
      f-3     :     0.005246
 15 H s       :     0.827512  s :     0.827512
      pz      :     0.028058  p :     0.063980
      px      :     0.013235
      py      :     0.022688
 16 H s       :     0.845672  s :     0.845672
      pz      :     0.015660  p :     0.064226
      px      :     0.017521
      py      :     0.031045
 17 H s       :     0.835928  s :     0.835928
      pz      :     0.015685  p :     0.064832
      px      :     0.034559
      py      :     0.014587


                      *****************************
                      * MAYER POPULATION ANALYSIS *
                      *****************************

  NA   - Mulliken gross atomic population
  ZA   - Total nuclear charge
  QA   - Mulliken gross atomic charge
  VA   - Mayer's total valence
  BVA  - Mayer's bonded valence
  FA   - Mayer's free valence

  ATOM       NA         ZA         QA         VA         BVA        FA
  0 O      8.5078     8.0000    -0.5078     2.1361     1.7359     0.4002
  1 H      0.6744     1.0000     0.3256     0.9059     0.8532     0.0527
  2 C      6.1968     6.0000    -0.1968     4.0068     3.7283     0.2785
  3 H      0.8599     1.0000     0.1401     0.9659     0.9195     0.0463
  4 H      0.8847     1.0000     0.1153     0.9625     0.9143     0.0482
  5 H      0.8784     1.0000     0.1216     0.9667     0.9189     0.0477
  6 O      8.5113     8.0000    -0.5113     2.1395     1.7389     0.4007
  7 H      0.6670     1.0000     0.3330     0.9002     0.8480     0.0522
  8 C      6.1894     6.0000    -0.1894     4.0035     3.7258     0.2777
  9 H      0.8731     1.0000     0.1269     0.9640     0.9173     0.0466
 10 H      0.8839     1.0000     0.1161     0.9681     0.9200     0.0481
 11 H      0.8687     1.0000     0.1313     0.9582     0.9103     0.0479
 12 O      8.5050     8.0000    -0.5050     2.1456     1.7469     0.3987
 13 H      0.6741     1.0000     0.3259     0.9075     0.8552     0.0523
 14 C      6.1617     6.0000    -0.1617     4.0289     3.7523     0.2766
 15 H      0.8721     1.0000     0.1279     0.9604     0.9141     0.0464
 16 H      0.9118     1.0000     0.0882     0.9682     0.9183     0.0499
 17 H      0.8799     1.0000     0.1201     0.9675     0.9195     0.0480

  Mayer bond orders larger than 0.100000
B(  0-O ,  1-H ) :   0.8405 B(  0-O ,  2-C ) :   0.9106 B(  2-C ,  3-H ) :   0.9345 
B(  2-C ,  4-H ) :   0.9390 B(  2-C ,  5-H ) :   0.9388 B(  6-O ,  7-H ) :   0.8336 
B(  6-O ,  8-C ) :   0.9045 B(  8-C ,  9-H ) :   0.9390 B(  8-C , 10-H ) :   0.9415 
B(  8-C , 11-H ) :   0.9347 B( 12-O , 13-H ) :   0.8406 B( 12-O , 14-C ) :   0.9262 
B( 14-C , 15-H ) :   0.9362 B( 14-C , 16-H ) :   0.9400 B( 14-C , 17-H ) :   0.9409 



----------------------------------
MP2 DERIVATIVE INTEGRAL GENERATION
----------------------------------


Input Wavefunction Amplitudes       ... 12meoh.boyd.etal.mol1,7,8-orca.engrad-mp2.def2tzvp.frozencore.mp2tsaa.tmp
Input Correlated Electron Density   ... 12meoh.boyd.etal.mol1,7,8-orca.engrad-mp2.def2tzvp.frozencore.pmp2re
Input Energy Weighted Density       ... 12meoh.boyd.etal.mol1,7,8-orca.engrad-mp2.def2tzvp.frozencore.wmp2.tmp
Input SCF Electron Density          ... 12meoh.boyd.etal.mol1,7,8-orca.engrad-mp2.def2tzvp.frozencore.scfp

One-Electron Terms    ...
                        ... One-Electron Terms done
Prescreening matrices              ... done

Batch handling in the gradient evaluation:
Memory available                      ... 8000.0 MB
Memory per occupied orbital in Q2     ...   10.7 MB
Memory per occupied orbital in Q3     ...    0.1 MB
Total memory requirement per |i>      ...   10.8 MB
Max. Number of orbitals possible      ...    743
Number of orbitals treated per batch  ...     21
Number of batches to be done          ...      1
Batch   0: i=    6 ...    26

---------------------------------------
MP2 TOTAL ENERGY:     -346.527137929 Eh
---------------------------------------

The final MP2 gradient
  0:   0.02048650  -0.00057896   0.01052802
  1:  -0.02446217  -0.00255606  -0.01284457
  2:   0.00330374   0.00169725  -0.00254483
  3:   0.00186310   0.00222082   0.00275793
  4:  -0.00112223  -0.00309410   0.00230638
  5:  -0.00205341   0.00173052  -0.00015084
  6:   0.01420866  -0.00147283   0.01922824
  7:  -0.01261517   0.00117239  -0.02248881
  8:   0.00010595   0.00505398   0.00179133
  9:   0.00143470  -0.00192259   0.00379920
 10:   0.00235442  -0.00158902  -0.00210939
 11:  -0.00324078  -0.00166109  -0.00005597
 12:   0.00406666   0.01498212  -0.01421020
 13:  -0.00597873  -0.01342618   0.01917668
 14:  -0.00210995   0.00074090  -0.00396398
 15:   0.00197341   0.00156164  -0.00338814
 16:  -0.00120314  -0.00290409  -0.00031023
 17:   0.00298846   0.00004528   0.00247919

-----------------------------------
NORM OF THE MP2 GRADIENT:  0.061364
-----------------------------------

-------------------------   --------------------
FINAL SINGLE POINT ENERGY      -346.527137928625
-------------------------   --------------------


                            ***************************************
                            *     ORCA property calculations      *
                            ***************************************

                                    ---------------------
                                    Active property flags
                                    ---------------------
   (+) Dipole Moment


------------------------------------------------------------------------------
                       ORCA ELECTRIC PROPERTIES CALCULATION
------------------------------------------------------------------------------

Dipole Moment Calculation                       ... on
Quadrupole Moment Calculation                   ... off
Polarizability Calculation                      ... off
GBWName                                         ... 12meoh.boyd.etal.mol1,7,8-orca.engrad-mp2.def2tzvp.frozencore.gbw
Electron density file                           ... 12meoh.boyd.etal.mol1,7,8-orca.engrad-mp2.def2tzvp.frozencore.scfp
The origin for moment calculation is the CENTER OF MASS  = ( 5.548401, -1.561674  0.621149)

-------------
DIPOLE MOMENT
-------------
                                X             Y             Z
Electronic contribution:     -0.61242       1.66711      -0.94654
Nuclear contribution   :     -0.15688      -2.74332       1.00932
                        -----------------------------------------
Total Dipole Moment    :     -0.76930      -1.07621       0.06278
                        -----------------------------------------
Magnitude (a.u.)       :      1.32439
Magnitude (Debye)      :      3.36632



--------------------
Rotational spectrum 
--------------------
 
Rotational constants in cm-1:     0.070195     0.029851     0.022868 
Rotational constants in MHz :  2104.380986   894.905650   685.568071 

 Dipole components along the rotational axes: 
x,y,z [a.u.] :     1.285424    -0.152720     0.279933 
x,y,z [Debye]:     3.267289    -0.388184     0.711534 

 

                         *** MP2 UNRELAXED DENSITY ***

------------------------------------------------------------------------------
                       ORCA ELECTRIC PROPERTIES CALCULATION
------------------------------------------------------------------------------

Dipole Moment Calculation                       ... on
Quadrupole Moment Calculation                   ... off
Polarizability Calculation                      ... off
GBWName                                         ... 12meoh.boyd.etal.mol1,7,8-orca.engrad-mp2.def2tzvp.frozencore.gbw
Electron density file                           ... 12meoh.boyd.etal.mol1,7,8-orca.engrad-mp2.def2tzvp.frozencore.pmp2ur
The origin for moment calculation is the CENTER OF MASS  = ( 5.548401, -1.561674  0.621149)

-------------
DIPOLE MOMENT
-------------
                                X             Y             Z
Electronic contribution:     -0.60221       1.68809      -0.95001
Nuclear contribution   :     -0.15688      -2.74332       1.00932
                        -----------------------------------------
Total Dipole Moment    :     -0.75909      -1.05524       0.05932
                        -----------------------------------------
Magnitude (a.u.)       :      1.30125
Magnitude (Debye)      :      3.30752



--------------------
Rotational spectrum 
--------------------
 
Rotational constants in cm-1:     0.070195     0.029851     0.022868 
Rotational constants in MHz :  2104.380986   894.905650   685.568071 

 Dipole components along the rotational axes: 
x,y,z [a.u.] :     1.262129    -0.154254     0.276579 
x,y,z [Debye]:     3.208078    -0.392082     0.703008 

 

                           *** MP2 RELAXED DENSITY ***

------------------------------------------------------------------------------
                       ORCA ELECTRIC PROPERTIES CALCULATION
------------------------------------------------------------------------------

Dipole Moment Calculation                       ... on
Quadrupole Moment Calculation                   ... off
Polarizability Calculation                      ... off
GBWName                                         ... 12meoh.boyd.etal.mol1,7,8-orca.engrad-mp2.def2tzvp.frozencore.gbw
Electron density file                           ... 12meoh.boyd.etal.mol1,7,8-orca.engrad-mp2.def2tzvp.frozencore.pmp2re
The origin for moment calculation is the CENTER OF MASS  = ( 5.548401, -1.561674  0.621149)

-------------
DIPOLE MOMENT
-------------
                                X             Y             Z
Electronic contribution:     -0.59142       1.71695      -0.95899
Nuclear contribution   :     -0.15688      -2.74332       1.00932
                        -----------------------------------------
Total Dipole Moment    :     -0.74830      -1.02637       0.05034
                        -----------------------------------------
Magnitude (a.u.)       :      1.27119
Magnitude (Debye)      :      3.23111



--------------------
Rotational spectrum 
--------------------
 
Rotational constants in cm-1:     0.070195     0.029851     0.022868 
Rotational constants in MHz :  2104.380986   894.905650   685.568071 

 Dipole components along the rotational axes: 
x,y,z [a.u.] :     1.230538    -0.159891     0.275937 
x,y,z [Debye]:     3.127778    -0.406411     0.701377 

 

Timings for individual modules:

Sum of individual times         ...       73.233 sec (=   1.221 min)
GTO integral calculation        ...        1.358 sec (=   0.023 min)   1.9 %
SCF iterations                  ...       15.286 sec (=   0.255 min)  20.9 %
MP2 module                      ...       56.590 sec (=   0.943 min)  77.3 %
                             ****ORCA TERMINATED NORMALLY****
TOTAL RUN TIME: 0 days 0 hours 1 minutes 14 seconds 179 msec
