15
Energy:   -148.58474935
O    0.25073952   1.66322154   1.72249206
H    0.16405771   1.69496986   0.76975382
H    0.11826061   2.56788518   2.00580263
O   -0.16623409   1.47791873  -0.94634694
H   -0.81834936   0.77878565  -0.89954469
H    0.58872622   1.07367699  -1.37396287
O   -0.25112553  -1.00965200   1.89627013
H   -0.09728596  -0.06614033   1.94475684
H    0.50607121  -1.39905560   2.33359128
O    1.34881905  -0.63496898  -1.97442415
H    0.55712155  -0.98636670  -1.56703421
H    1.42552982  -1.11203214  -2.80071589
O   -1.05463929  -1.22981451  -0.67845130
H   -0.78360092  -1.21344632   0.23942785
H   -1.85774594  -1.75061856  -0.68228450
