
                                 *****************
                                 * O   R   C   A *
                                 *****************

           --- An Ab Initio, DFT and Semiempirical electronic structure package ---

                  #######################################################
                  #                        -***-                        #
                  #          Department of theory and spectroscopy      #
                  #               Directorship: Frank Neese             #
                  #        Max Planck Institute fuer Kohlenforschung    #
                  #                Kaiser Wilhelm Platz 1               #
                  #                 D-45470 Muelheim/Ruhr               #
                  #                      Germany                        #
                  #                                                     #
                  #                  All rights reserved                #
                  #                        -***-                        #
                  #######################################################


                         Program Version 4.2.0 -  RELEASE  -


 With contributions from (in alphabetic order):
   Daniel Aravena         : Magnetic Suceptibility
   Michael Atanasov       : Ab Initio Ligand Field Theory (pilot matlab implementation)
   Alexander A. Auer      : GIAO ZORA, VPT2
   Ute Becker             : Parallelization
   Giovanni Bistoni       : ED, misc. LED, open-shell LED, HFLED
   Martin Brehm           : Molecular dynamics
   Dmytro Bykov           : SCF Hessian
   Vijay G. Chilkuri      : MRCI spin determinant printing, contributions to CSF-ICE
   Dipayan Datta          : RHF DLPNO-CCSD density
   Achintya Kumar Dutta   : EOM-CC, STEOM-CC
   Dmitry Ganyushin       : Spin-Orbit,Spin-Spin,Magnetic field MRCI
   Miquel Garcia          : C-PCM Hessian, Gaussian charge scheme
   Yang Guo               : DLPNO-NEVPT2, CIM, IAO-localization
   Andreas Hansen         : Spin unrestricted coupled pair/coupled cluster methods
   Benjamin Helmich-Paris : CASSCF linear response (MC-RPA)
   Lee Huntington         : MR-EOM, pCC
   Robert Izsak           : Overlap fitted RIJCOSX, COSX-SCS-MP3, EOM
   Christian Kollmar      : KDIIS, OOCD, Brueckner-CCSD(T), CCSD density
   Simone Kossmann        : Meta GGA functionals, TD-DFT gradient, OOMP2, MP2 Hessian
   Martin Krupicka        : AUTO-CI
   Lucas Lang             : DCDCAS
   Dagmar Lenk            : GEPOL surface, SMD
   Dimitrios Liakos       : Extrapolation schemes; Compound Job, initial MDCI parallelization
   Dimitrios Manganas     : Further ROCIS development; embedding schemes
   Dimitrios Pantazis     : SARC Basis sets
   Taras Petrenko         : DFT Hessian,TD-DFT gradient, ASA, ECA, R-Raman, ABS, FL, XAS/XES, NRVS
   Peter Pinski           : DLPNO-MP2, DLPNO-MP2 Gradient
   Christoph Reimann      : Effective Core Potentials
   Marius Retegan         : Local ZFS, SOC
   Christoph Riplinger    : Optimizer, TS searches, QM/MM, DLPNO-CCSD(T), (RO)-DLPNO pert. Triples
   Tobias Risthaus        : Range-separated hybrids, TD-DFT gradient, RPA, STAB
   Michael Roemelt        : Original ROCIS implementation
   Masaaki Saitow         : Open-shell DLPNO-CCSD energy and density
   Barbara Sandhoefer     : DKH picture change effects
   Avijit Sen             : IP-ROCIS
   Kantharuban Sivalingam : CASSCF convergence, NEVPT2, FIC-MRCI
   Bernardo de Souza      : ESD, SOC TD-DFT
   Georgi Stoychev        : AutoAux, RI-MP2 NMR
   Willem Van den Heuvel  : Paramagnetic NMR
   Boris Wezisla          : Elementary symmetry handling
   Frank Wennmohs         : Technical directorship


 We gratefully acknowledge several colleagues who have allowed us to
 interface, adapt or use parts of their codes:
   Stefan Grimme, W. Hujo, H. Kruse,             : VdW corrections, initial TS optimization,
                  C. Bannwarth                     DFT functionals, gCP, sTDA/sTD-DF
   Ed Valeev, F. Pavosevic, A. Kumar             : LibInt (2-el integral package), F12 methods
   Garnet Chan, S. Sharma, J. Yang, R. Olivares  : DMRG
   Ulf Ekstrom                                   : XCFun DFT Library
   Mihaly Kallay                                 : mrcc  (arbitrary order and MRCC methods)
   Andreas Klamt, Michael Diedenhofen            : otool_cosmo (COSMO solvation model)
   Jiri Pittner, Ondrej Demel                    : Mk-CCSD
   Frank Weinhold                                : gennbo (NPA and NBO analysis)
   Christopher J. Cramer and Donald G. Truhlar   : smd solvation model
   Lars Goerigk                                  : TD-DFT with DH, B97 family of functionals
   V. Asgeirsson, H. Jonsson                     : NEB implementation
   FAccTs GmbH                                   : IRC, NEB, NEB-TS, Multilevel, MM, QM/MM, CI optimization
   S Lehtola, MJT Oliveira, MAL Marques          : LibXC Library


 Your calculation uses the libint2 library for the computation of 2-el integrals
 For citations please refer to: http://libint.valeyev.net

 Your ORCA version has been built with support for libXC version: 4.2.3
 For citations please refer to: https://tddft.org/programs/libxc/

 This ORCA versions uses:
   CBLAS   interface :  Fast vector & matrix operations
   LAPACKE interface :  Fast linear algebra routines
   SCALAPACK package :  Parallel linear algebra routines


----- Orbital basis set information -----
Your calculation utilizes the basis: def2-TZVP
   F. Weigend and R. Ahlrichs, Phys. Chem. Chem. Phys. 7, 3297 (2005).

================================================================================
                                        WARNINGS
                       Please study these warnings very carefully!
================================================================================


WARNING: The frozen-core approximation for MP2-gradient calculations is turned on by default.

INFO   : the flag for use of LIBINT has been found!

================================================================================
                                       INPUT FILE
================================================================================
NAME = 4meoh.boyd.etal.5-orca.engrad-mp2.def2tzvp.inp
|  1> ! MP2 def2-TZVP EnGrad TightSCF FrozenCore
|  2> 
|  3> %pal
|  4>     nprocs 12
|  5> end
|  6> 
|  7> %maxcore 8000
|  8> 
|  9> %scf
| 10>     ConvForced true
| 11> end
| 12> 
| 13> *xyz 0 1
| 14> O     1.1386907544    -1.4558998651    -0.0824200597
| 15> H     0.1514631843    -1.3918625034    -0.0523264935
| 16> C     1.4963674049    -2.2372614063    -1.2119162038
| 17> H     2.5884491087    -2.2905839398    -1.2453328654
| 18> H     1.1430084538    -1.7986999361    -2.1571911232
| 19> H     1.1028017103    -3.2611717142    -1.1369618164
| 20> O    -1.5787514148    -1.2118882917     0.0136873116
| 21> H    -1.7878649171    -0.2641824711    -0.1600710919
| 22> C    -2.0802040943    -1.535716029      1.3053655714
| 23> H    -1.7857516944    -2.5659009477     1.5229634059
| 24> H    -3.1772223959    -1.4751300521     1.3367488084
| 25> H    -1.6704062794    -0.881905532      2.0876824831
| 26> O    -2.1502786509     1.4643815099    -0.2949623347
| 27> H    -3.0036916598     1.6729542312    -0.7031946496
| 28> C    -1.1475866114     2.3188084309    -0.8720669121
| 29> H    -0.1815271851     1.9976898109    -0.4738155471
| 30> H    -1.3271198166     3.3661976261    -0.5972352251
| 31> H    -1.1277517883     2.23208893      -1.9666037772
| 32> O     1.878368313      1.2043887108    -0.047241448
| 33> H     1.6720738287     0.2415824991    -0.096223126
| 34> C     2.5466024331     1.4319163132     1.1767394557
| 35> H     2.7656159838     2.5030340344     1.2434992735
| 36> H     3.5022030887     0.8871732864     1.2420951231
| 37> H     1.9404135715     1.1543763144     2.0547274015
| 38> *
| 39> 
| 40>                          ****END OF INPUT****
================================================================================

                     *******************************
                     * Energy+Gradient Calculation *
                     *******************************

---------------------------------
CARTESIAN COORDINATES (ANGSTROEM)
---------------------------------
  O      1.138691   -1.455900   -0.082420
  H      0.151463   -1.391863   -0.052326
  C      1.496367   -2.237261   -1.211916
  H      2.588449   -2.290584   -1.245333
  H      1.143008   -1.798700   -2.157191
  H      1.102802   -3.261172   -1.136962
  O     -1.578751   -1.211888    0.013687
  H     -1.787865   -0.264182   -0.160071
  C     -2.080204   -1.535716    1.305366
  H     -1.785752   -2.565901    1.522963
  H     -3.177222   -1.475130    1.336749
  H     -1.670406   -0.881906    2.087682
  O     -2.150279    1.464382   -0.294962
  H     -3.003692    1.672954   -0.703195
  C     -1.147587    2.318808   -0.872067
  H     -0.181527    1.997690   -0.473816
  H     -1.327120    3.366198   -0.597235
  H     -1.127752    2.232089   -1.966604
  O      1.878368    1.204389   -0.047241
  H      1.672074    0.241582   -0.096223
  C      2.546602    1.431916    1.176739
  H      2.765616    2.503034    1.243499
  H      3.502203    0.887173    1.242095
  H      1.940414    1.154376    2.054727

----------------------------
CARTESIAN COORDINATES (A.U.)
----------------------------
  NO LB      ZA    FRAG     MASS         X           Y           Z
   0 O     8.0000    0    15.999    2.151814   -2.751252   -0.155751
   1 H     1.0000    0     1.008    0.286224   -2.630239   -0.098883
   2 C     6.0000    0    12.011    2.827725   -4.227811   -2.290190
   3 H     1.0000    0     1.008    4.891460   -4.328576   -2.353338
   4 H     1.0000    0     1.008    2.159973   -3.399050   -4.076500
   5 H     1.0000    0     1.008    2.083993   -6.162721   -2.148546
   6 O     8.0000    0    15.999   -2.983408   -2.290137    0.025865
   7 H     1.0000    0     1.008   -3.378575   -0.499233   -0.302491
   8 C     6.0000    0    12.011   -3.931016   -2.902083    2.466783
   9 H     1.0000    0     1.008   -3.374582   -4.848850    2.877984
  10 H     1.0000    0     1.008   -6.004080   -2.787592    2.526089
  11 H     1.0000    0     1.008   -3.156610   -1.666560    3.945148
  12 O     8.0000    0    15.999   -4.063438    2.767280   -0.557398
  13 H     1.0000    0     1.008   -5.676155    3.161425   -1.328845
  14 C     6.0000    0    12.011   -2.168624    4.381913   -1.647968
  15 H     1.0000    0     1.008   -0.343037    3.775087   -0.895382
  16 H     1.0000    0     1.008   -2.507893    6.361192   -1.128611
  17 H     1.0000    0     1.008   -2.131142    4.218037   -3.716343
  18 O     8.0000    0    15.999    3.549602    2.275965   -0.089273
  19 H     1.0000    0     1.008    3.159762    0.456525   -0.181835
  20 C     6.0000    0    12.011    4.812381    2.705930    2.223715
  21 H     1.0000    0     1.008    5.226257    4.730049    2.349873
  22 H     1.0000    0     1.008    6.618205    1.676515    2.347220
  23 H     1.0000    0     1.008    3.666850    2.181455    3.882872

--------------------------------
INTERNAL COORDINATES (ANGSTROEM)
--------------------------------
 O      0   0   0     0.000000000000     0.00000000     0.00000000
 H      1   0   0     0.989759911082     0.00000000     0.00000000
 C      1   2   0     1.419232181116   108.13125323     0.00000000
 H      3   1   2     1.093893236850   107.62302017   179.19974227
 H      3   1   2     1.100337850259   112.54008632    59.97004929
 H      3   1   2     1.099501903036   111.60690255   297.90000710
 O      2   1   3     1.740801854974   177.73285522   224.88573377
 H      7   2   1     0.985934461326   107.66798929    22.28978651
 C      7   2   1     1.422937778001   111.17136192   264.54757586
 H      9   7   2     1.093312398221   107.46919517   301.59140328
 H      9   7   2     1.099138172482   111.41381897   183.02329496
 H      9   7   2     1.098827632259   112.29927984    60.93003738
 O      8   7   2     1.771291279898   174.18616580   270.34175900
 H     13   8   7     0.968746595741   114.98903938   238.63059997
 C     13   8   7     1.438223342413   117.88299010   108.65305891
 H     15  13   8     1.093156957156   107.18251640   318.59477350
 H     15  13   8     1.097628695949   110.63353402   199.28091289
 H     15  13   8     1.098146001726   111.44583514    77.65839532
 O     16  15  13     2.248212970458   169.26126210   110.64730344
 H     19  16  15     0.985876473155    98.24765272   288.03199235
 C     19  16  15     1.412952547590   122.74235994   171.11365095
 H     21  19  16     1.095315927635   107.74832676   293.16800602
 H     21  19  16     1.101902419224   112.45226629   174.45715340
 H     21  19  16     1.102431957008   112.91134933    52.24003503

---------------------------
INTERNAL COORDINATES (A.U.)
---------------------------
 O      0   0   0     0.000000000000     0.00000000     0.00000000
 H      1   0   0     1.870375170280     0.00000000     0.00000000
 C      1   2   0     2.681960142758   108.13125323     0.00000000
 H      3   1   2     2.067158637395   107.62302017   179.19974227
 H      3   1   2     2.079337191778   112.54008632    59.97004929
 H      3   1   2     2.077757480464   111.60690255   297.90000710
 O      2   1   3     3.289638759322   177.73285522   224.88573377
 H      7   2   1     1.863146117901   107.66798929    22.28978651
 C      7   2   1     2.688962706032   111.17136192   264.54757586
 H      9   7   2     2.066061011458   107.46919517   301.59140328
 H      9   7   2     2.077070129330   111.41381897   183.02329496
 H      9   7   2     2.076483293355   112.29927984    60.93003738
 O      8   7   2     3.347255422409   174.18616580   270.34175900
 H     13   8   7     1.830665759118   114.98903938   238.63059997
 C     13   8   7     2.717848236574   117.88299010   108.65305891
 H     15  13   8     2.065767270415   107.18251640   318.59477350
 H     15  13   8     2.074217632076   110.63353402   199.28091289
 H     15  13   8     2.075195198323   111.44583514    77.65839532
 O     16  15  13     4.248506804895   169.26126210   110.64730344
 H     19  16  15     1.863036536139    98.24765272   288.03199235
 C     19  16  15     2.670093355172   122.74235994   171.11365095
 H     21  19  16     2.069847133353   107.74832676   293.16800602
 H     21  19  16     2.082293798639   112.45226629   174.45715340
 H     21  19  16     2.083294480027   112.91134933    52.24003503

---------------------
BASIS SET INFORMATION
---------------------
There are 3 groups of distinct atoms

 Group   1 Type O   : 11s6p2d1f contracted to 5s3p2d1f pattern {62111/411/11/1}
 Group   2 Type H   : 5s1p contracted to 3s1p pattern {311/1}
 Group   3 Type C   : 11s6p2d1f contracted to 5s3p2d1f pattern {62111/411/11/1}

Atom   0O    basis set group =>   1
Atom   1H    basis set group =>   2
Atom   2C    basis set group =>   3
Atom   3H    basis set group =>   2
Atom   4H    basis set group =>   2
Atom   5H    basis set group =>   2
Atom   6O    basis set group =>   1
Atom   7H    basis set group =>   2
Atom   8C    basis set group =>   3
Atom   9H    basis set group =>   2
Atom  10H    basis set group =>   2
Atom  11H    basis set group =>   2
Atom  12O    basis set group =>   1
Atom  13H    basis set group =>   2
Atom  14C    basis set group =>   3
Atom  15H    basis set group =>   2
Atom  16H    basis set group =>   2
Atom  17H    basis set group =>   2
Atom  18O    basis set group =>   1
Atom  19H    basis set group =>   2
Atom  20C    basis set group =>   3
Atom  21H    basis set group =>   2
Atom  22H    basis set group =>   2
Atom  23H    basis set group =>   2


           ************************************************************
           *        Program running with 12 parallel MPI-processes    *
           *              working on a common directory               *
           ************************************************************
------------------------------------------------------------------------------
                           ORCA GTO INTEGRAL CALCULATION
------------------------------------------------------------------------------

                         BASIS SET STATISTICS AND STARTUP INFO

 # of primitive gaussian shells          ...  256
 # of primitive gaussian functions       ...  496
 # of contracted shells                  ...  152
 # of contracted basis functions         ...  344
 Highest angular momentum                ...    3
 Maximum contraction depth               ...    6
 Integral package used                   ... LIBINT
 Integral threshhold            Thresh   ...  2.500e-11
 Primitive cut-off              TCut     ...  2.500e-12


------------------------------ INTEGRAL EVALUATION ----------------------------


 * One electron integrals 
 Pre-screening matrix                    ... done
 Shell pair data                         ... done (   0.003 sec)



           ************************************************************
           *        Program running with 12 parallel MPI-processes    *
           *              working on a common directory               *
           ************************************************************
-------------------------------------------------------------------------------
                                 ORCA SCF
-------------------------------------------------------------------------------

------------
SCF SETTINGS
------------
Hamiltonian:
 Ab initio Hamiltonian  Method          .... Hartree-Fock(GTOs)


General Settings:
 Integral files         IntName         .... 4meoh.boyd.etal.5-orca.engrad-mp2.def2tzvp
 Hartree-Fock type      HFTyp           .... RHF
 Total Charge           Charge          ....    0
 Multiplicity           Mult            ....    1
 Number of Electrons    NEL             ....   72
 Basis Dimension        Dim             ....  344
 Nuclear Repulsion      ENuc            ....    420.0581850192 Eh

Convergence Acceleration:
 DIIS                   CNVDIIS         .... on
   Start iteration      DIISMaxIt       ....    12
   Startup error        DIISStart       ....  0.200000
   # of expansion vecs  DIISMaxEq       ....     5
   Bias factor          DIISBfac        ....   1.050
   Max. coefficient     DIISMaxC        ....  10.000
 Newton-Raphson         CNVNR           .... off
 SOSCF                  CNVSOSCF        .... on
   Start iteration      SOSCFMaxIt      ....   150
   Startup grad/error   SOSCFStart      ....  0.003300
 Level Shifting         CNVShift        .... on
   Level shift para.    LevelShift      ....    0.2500
   Turn off err/grad.   ShiftErr        ....    0.0010
 Zerner damping         CNVZerner       .... off
 Static damping         CNVDamp         .... on
   Fraction old density DampFac         ....    0.7000
   Max. Damping (<1)    DampMax         ....    0.9800
   Min. Damping (>=0)   DampMin         ....    0.0000
   Turn off err/grad.   DampErr         ....    0.1000
 Fernandez-Rico         CNVRico         .... off

SCF Procedure:
 Maximum # iterations   MaxIter         ....   125
 SCF integral mode      SCFMode         .... Direct
   Integral package                     .... LIBINT
 Reset frequency        DirectResetFreq ....    20
 Integral Threshold     Thresh          ....  2.500e-11 Eh
 Primitive CutOff       TCut            ....  2.500e-12 Eh

Convergence Tolerance:
 Convergence Check Mode ConvCheckMode   .... Total+1el-Energy
 Convergence forced     ConvForced      .... 1
 Energy Change          TolE            ....  1.000e-08 Eh
 1-El. energy change                    ....  1.000e-05 Eh
 Orbital Gradient       TolG            ....  1.000e-05
 Orbital Rotation angle TolX            ....  1.000e-05
 DIIS Error             TolErr          ....  5.000e-07


Diagonalization of the overlap matrix:
Smallest eigenvalue                        ... 8.525e-04
Time for diagonalization                   ...    0.034 sec
Threshold for overlap eigenvalues          ... 1.000e-08
Number of eigenvalues below threshold      ... 0
Time for construction of square roots      ...    0.033 sec
Total time needed                          ...    0.067 sec

-------------------
DFT GRID GENERATION
-------------------

General Integration Accuracy     IntAcc      ...  4.340
Radial Grid Type                 RadialGrid  ... Gauss-Chebyshev
Angular Grid (max. acc.)         AngularGrid ... Lebedev-110
Angular grid pruning method      GridPruning ... 3 (G Style)
Weight generation scheme         WeightScheme... Becke
Basis function cutoff            BFCut       ...    1.0000e-11
Integration weight cutoff        WCut        ...    1.0000e-14
Grids for H and He will be reduced by one unit

# of grid points (after initial pruning)     ...  26192 (   0.0 sec)
# of grid points (after weights+screening)   ...  24189 (   0.0 sec)
nearest neighbour list constructed           ...    0.0 sec
Grid point re-assignment to atoms done       ...    0.0 sec
Grid point division into batches done        ...    0.0 sec
Reduced shell lists constructed in    0.0 sec

Total number of grid points                  ...    24189
Total number of batches                      ...      390
Average number of points per batch           ...       62
Average number of grid points per atom       ...     1008
Average number of shells per batch           ...   101.56 (66.82%)
Average number of basis functions per batch  ...   228.21 (66.34%)
Average number of large shells per batch     ...    76.56 (75.38%)
Average number of large basis fcns per batch ...   168.38 (73.79%)
Maximum spatial batch extension              ...   5.37,  6.30,  7.70 au
Average spatial batch extension              ...   0.15,  0.16,  0.17 au

Time for grid setup =    0.101 sec

------------------------------
INITIAL GUESS: MODEL POTENTIAL
------------------------------
Loading Hartree-Fock densities                     ... done
Calculating cut-offs                               ... done
Setting up the integral package                    ... done
Initializing the effective Hamiltonian             ... done
Starting the Coulomb interaction                   ... done (   0.0 sec)
Reading the grid                                   ... done
Mapping shells                                     ... done
Starting the XC term evaluation                    ... done (   0.1 sec)
Transforming the Hamiltonian                       ... done (   0.0 sec)
Diagonalizing the Hamiltonian                      ... done (   0.0 sec)
Back transforming the eigenvectors                 ... done (   0.0 sec)
Now organizing SCF variables                       ... done
                      ------------------
                      INITIAL GUESS DONE (   0.4 sec)
                      ------------------
--------------
SCF ITERATIONS
--------------
ITER       Energy         Delta-E        Max-DP      RMS-DP      [F,P]     Damp
               ***  Starting incremental Fock matrix formation  ***
  0   -459.9558080056   0.000000000000 0.03476418  0.00065516  0.2911667 0.7000
  1   -460.1093526053  -0.153544599730 0.02343270  0.00049183  0.2182060 0.7000
                               ***Turning on DIIS***
  2   -460.2000885174  -0.090735912126 0.01379709  0.00031038  0.1622758 0.7000
  3   -461.3540325298  -1.153944012387 0.00761087  0.00018046  0.1195951 0.7000
  4   -461.1622558780   0.191776651807 0.01632312  0.00043703  0.0843423 0.0000
  5   -460.4206295837   0.741626294244 0.00239569  0.00005951  0.0054452 0.0000
                      *** Initiating the SOSCF procedure ***
                           *** Shutting down DIIS ***
                      *** Re-Reading the Fockian *** 
                      *** Removing any level shift *** 
ITER      Energy       Delta-E        Grad      Rot      Max-DP    RMS-DP
  6   -460.39441209   0.0262174922  0.000482  0.000482  0.001452  0.000032
               *** Restarting incremental Fock matrix formation ***
  7   -460.38726555   0.0071465423  0.000236  0.000242  0.000759  0.000017
  8   -460.38727391  -0.0000083576  0.000106  0.000190  0.000607  0.000013
  9   -460.38727587  -0.0000019666  0.000025  0.000030  0.000103  0.000002
 10   -460.38727596  -0.0000000855  0.000005  0.000009  0.000017  0.000001
                  ***Gradient check signals convergence***
              ***Rediagonalizing the Fockian in SOSCF/NRSCF***

               *****************************************************
               *                     SUCCESS                       *
               *           SCF CONVERGED AFTER  11 CYCLES          *
               *****************************************************


----------------
TOTAL SCF ENERGY
----------------

Total Energy       :         -460.38727597 Eh          -12527.77468 eV

Components:
Nuclear Repulsion  :          420.05818502 Eh           11430.36432 eV
Electronic Energy  :         -880.44546099 Eh          -23958.13900 eV
One Electron Energy:        -1465.65806613 Eh          -39882.58357 eV
Two Electron Energy:          585.21260514 Eh           15924.44457 eV

Virial components:
Potential Energy   :         -920.10404624 Eh          -25037.30397 eV
Kinetic Energy     :          459.71677027 Eh           12509.52929 eV
Virial Ratio       :            2.00145852


---------------
SCF CONVERGENCE
---------------

  Last Energy change         ...   -7.9457e-09  Tolerance :   1.0000e-08
  Last MAX-Density change    ...    7.3554e-06  Tolerance :   1.0000e-07
  Last RMS-Density change    ...    1.5428e-07  Tolerance :   5.0000e-09
  Last Orbital Gradient      ...    1.7200e-06  Tolerance :   1.0000e-05
  Last Orbital Rotation      ...    3.3838e-06  Tolerance :   1.0000e-05

             **** THE GBW FILE WAS UPDATED (4meoh.boyd.etal.5-orca.engrad-mp2.def2tzvp.gbw) ****
             **** DENSITY FILE WAS UPDATED (4meoh.boyd.etal.5-orca.engrad-mp2.def2tzvp.scfp) ****
             **** ENERGY FILE WAS UPDATED (4meoh.boyd.etal.5-orca.engrad-mp2.def2tzvp.en.tmp) ****
             **** THE GBW FILE WAS UPDATED (4meoh.boyd.etal.5-orca.engrad-mp2.def2tzvp.gbw) ****
             **** DENSITY FILE WAS UPDATED (4meoh.boyd.etal.5-orca.engrad-mp2.def2tzvp.scfp) ****
----------------
ORBITAL ENERGIES
----------------

  NO   OCC          E(Eh)            E(eV) 
   0   2.0000     -20.580825      -560.0327 
   1   2.0000     -20.553503      -559.2893 
   2   2.0000     -20.540511      -558.9357 
   3   2.0000     -20.520038      -558.3786 
   4   2.0000     -11.271872      -306.7232 
   5   2.0000     -11.270875      -306.6961 
   6   2.0000     -11.262167      -306.4592 
   7   2.0000     -11.250078      -306.1302 
   8   2.0000      -1.376721       -37.4625 
   9   2.0000      -1.356358       -36.9084 
  10   2.0000      -1.340253       -36.4701 
  11   2.0000      -1.320453       -35.9313 
  12   2.0000      -0.930076       -25.3087 
  13   2.0000      -0.921653       -25.0795 
  14   2.0000      -0.911793       -24.8111 
  15   2.0000      -0.896304       -24.3897 
  16   2.0000      -0.717808       -19.5325 
  17   2.0000      -0.696735       -18.9591 
  18   2.0000      -0.680163       -18.5082 
  19   2.0000      -0.667511       -18.1639 
  20   2.0000      -0.627091       -17.0640 
  21   2.0000      -0.615951       -16.7609 
  22   2.0000      -0.606697       -16.5091 
  23   2.0000      -0.605620       -16.4798 
  24   2.0000      -0.592094       -16.1117 
  25   2.0000      -0.590055       -16.0562 
  26   2.0000      -0.581263       -15.8170 
  27   2.0000      -0.567201       -15.4343 
  28   2.0000      -0.523765       -14.2524 
  29   2.0000      -0.505666       -13.7599 
  30   2.0000      -0.492936       -13.4135 
  31   2.0000      -0.474461       -12.9107 
  32   2.0000      -0.466978       -12.7071 
  33   2.0000      -0.446766       -12.1571 
  34   2.0000      -0.434966       -11.8360 
  35   2.0000      -0.419270       -11.4089 
  36   0.0000       0.119132         3.2418 
  37   0.0000       0.150249         4.0885 
  38   0.0000       0.158364         4.3093 
  39   0.0000       0.168547         4.5864 
  40   0.0000       0.186233         5.0676 
  41   0.0000       0.200598         5.4586 
  42   0.0000       0.210979         5.7410 
  43   0.0000       0.215895         5.8748 
  44   0.0000       0.224950         6.1212 
  45   0.0000       0.229320         6.2401 
  46   0.0000       0.238822         6.4987 
  47   0.0000       0.243386         6.6229 
  48   0.0000       0.253816         6.9067 
  49   0.0000       0.259986         7.0746 
  50   0.0000       0.269701         7.3389 
  51   0.0000       0.275913         7.5080 
  52   0.0000       0.301321         8.1994 
  53   0.0000       0.306139         8.3305 
  54   0.0000       0.322301         8.7703 
  55   0.0000       0.328408         8.9364 
  56   0.0000       0.330974         9.0062 
  57   0.0000       0.347135         9.4460 
  58   0.0000       0.357079         9.7166 
  59   0.0000       0.365767         9.9530 
  60   0.0000       0.405586        11.0366 
  61   0.0000       0.416000        11.3199 
  62   0.0000       0.441259        12.0073 
  63   0.0000       0.460333        12.5263 
  64   0.0000       0.474036        12.8992 
  65   0.0000       0.486121        13.2280 
  66   0.0000       0.513780        13.9807 
  67   0.0000       0.526576        14.3289 
  68   0.0000       0.540391        14.7048 
  69   0.0000       0.552183        15.0257 
  70   0.0000       0.552854        15.0439 
  71   0.0000       0.566671        15.4199 
  72   0.0000       0.579638        15.7727 
  73   0.0000       0.584065        15.8932 
  74   0.0000       0.598592        16.2885 
  75   0.0000       0.611824        16.6486 
  76   0.0000       0.626960        17.0604 
  77   0.0000       0.635982        17.3060 
  78   0.0000       0.647798        17.6275 
  79   0.0000       0.650037        17.6884 
  80   0.0000       0.655228        17.8297 
  81   0.0000       0.660767        17.9804 
  82   0.0000       0.667555        18.1651 
  83   0.0000       0.672909        18.3108 
  84   0.0000       0.682192        18.5634 
  85   0.0000       0.691484        18.8162 
  86   0.0000       0.696925        18.9643 
  87   0.0000       0.711074        19.3493 
  88   0.0000       0.726931        19.7808 
  89   0.0000       0.741045        20.1649 
  90   0.0000       0.761516        20.7219 
  91   0.0000       0.762697        20.7540 
  92   0.0000       0.791209        21.5299 
  93   0.0000       0.799833        21.7646 
  94   0.0000       0.820754        22.3339 
  95   0.0000       0.842010        22.9123 
  96   0.0000       0.860438        23.4137 
  97   0.0000       0.872570        23.7438 
  98   0.0000       0.882708        24.0197 
  99   0.0000       0.901990        24.5444 
 100   0.0000       0.908381        24.7183 
 101   0.0000       0.922359        25.0987 
 102   0.0000       0.957799        26.0630 
 103   0.0000       0.973552        26.4917 
 104   0.0000       0.985810        26.8253 
 105   0.0000       1.011205        27.5163 
 106   0.0000       1.014425        27.6039 
 107   0.0000       1.037265        28.2254 
 108   0.0000       1.043297        28.3895 
 109   0.0000       1.058392        28.8003 
 110   0.0000       1.093867        29.7656 
 111   0.0000       1.109518        30.1915 
 112   0.0000       1.114834        30.3362 
 113   0.0000       1.123453        30.5707 
 114   0.0000       1.136121        30.9154 
 115   0.0000       1.144401        31.1407 
 116   0.0000       1.170865        31.8609 
 117   0.0000       1.206938        32.8424 
 118   0.0000       1.214875        33.0584 
 119   0.0000       1.235233        33.6124 
 120   0.0000       1.264335        34.4043 
 121   0.0000       1.272916        34.6378 
 122   0.0000       1.278234        34.7825 
 123   0.0000       1.300760        35.3955 
 124   0.0000       1.561449        42.4892 
 125   0.0000       1.601426        43.5770 
 126   0.0000       1.608037        43.7569 
 127   0.0000       1.614444        43.9313 
 128   0.0000       1.653636        44.9977 
 129   0.0000       1.674992        45.5789 
 130   0.0000       1.695188        46.1284 
 131   0.0000       1.711795        46.5803 
 132   0.0000       1.724275        46.9199 
 133   0.0000       1.739367        47.3306 
 134   0.0000       1.746268        47.5184 
 135   0.0000       1.763533        47.9882 
 136   0.0000       1.780508        48.4501 
 137   0.0000       1.790261        48.7155 
 138   0.0000       1.792810        48.7848 
 139   0.0000       1.798941        48.9517 
 140   0.0000       1.802754        49.0554 
 141   0.0000       1.808984        49.2250 
 142   0.0000       1.815486        49.4019 
 143   0.0000       1.816440        49.4279 
 144   0.0000       1.822179        49.5840 
 145   0.0000       1.839936        50.0672 
 146   0.0000       1.845965        50.2313 
 147   0.0000       1.849489        50.3272 
 148   0.0000       1.854257        50.4569 
 149   0.0000       1.862397        50.6784 
 150   0.0000       1.875272        51.0287 
 151   0.0000       1.884725        51.2860 
 152   0.0000       1.921842        52.2960 
 153   0.0000       1.943191        52.8769 
 154   0.0000       1.953035        53.1448 
 155   0.0000       1.973671        53.7063 
 156   0.0000       2.010471        54.7077 
 157   0.0000       2.084820        56.7308 
 158   0.0000       2.128923        57.9309 
 159   0.0000       2.135022        58.0969 
 160   0.0000       2.172406        59.1142 
 161   0.0000       2.179236        59.3000 
 162   0.0000       2.198100        59.8133 
 163   0.0000       2.218741        60.3750 
 164   0.0000       2.234078        60.7924 
 165   0.0000       2.238795        60.9207 
 166   0.0000       2.263233        61.5857 
 167   0.0000       2.275429        61.9176 
 168   0.0000       2.278598        62.0038 
 169   0.0000       2.287643        62.2499 
 170   0.0000       2.295949        62.4760 
 171   0.0000       2.312440        62.9247 
 172   0.0000       2.324288        63.2471 
 173   0.0000       2.330070        63.4044 
 174   0.0000       2.351982        64.0007 
 175   0.0000       2.361714        64.2655 
 176   0.0000       2.386282        64.9340 
 177   0.0000       2.403397        65.3997 
 178   0.0000       2.413232        65.6674 
 179   0.0000       2.419594        65.8405 
 180   0.0000       2.444637        66.5220 
 181   0.0000       2.457011        66.8587 
 182   0.0000       2.504385        68.1478 
 183   0.0000       2.530074        68.8468 
 184   0.0000       2.547716        69.3269 
 185   0.0000       2.561976        69.7149 
 186   0.0000       2.577221        70.1297 
 187   0.0000       2.586432        70.3804 
 188   0.0000       2.594124        70.5897 
 189   0.0000       2.607136        70.9438 
 190   0.0000       2.617912        71.2370 
 191   0.0000       2.625287        71.4377 
 192   0.0000       2.645550        71.9891 
 193   0.0000       2.646739        72.0214 
 194   0.0000       2.656625        72.2904 
 195   0.0000       2.665576        72.5340 
 196   0.0000       2.680945        72.9522 
 197   0.0000       2.687197        73.1223 
 198   0.0000       2.706019        73.6345 
 199   0.0000       2.717534        73.9479 
 200   0.0000       2.738568        74.5202 
 201   0.0000       2.749817        74.8263 
 202   0.0000       2.770451        75.3878 
 203   0.0000       2.787122        75.8414 
 204   0.0000       2.822400        76.8014 
 205   0.0000       2.831260        77.0425 
 206   0.0000       2.835885        77.1684 
 207   0.0000       2.839090        77.2556 
 208   0.0000       2.854390        77.6719 
 209   0.0000       2.856243        77.7223 
 210   0.0000       2.870618        78.1135 
 211   0.0000       2.873980        78.2050 
 212   0.0000       2.914724        79.3137 
 213   0.0000       2.943375        80.0933 
 214   0.0000       2.965445        80.6939 
 215   0.0000       3.007071        81.8266 
 216   0.0000       3.059239        83.2461 
 217   0.0000       3.094285        84.1998 
 218   0.0000       3.098736        84.3209 
 219   0.0000       3.112038        84.6829 
 220   0.0000       3.122690        84.9727 
 221   0.0000       3.159335        85.9699 
 222   0.0000       3.162324        86.0512 
 223   0.0000       3.173121        86.3450 
 224   0.0000       3.176066        86.4252 
 225   0.0000       3.225053        87.7581 
 226   0.0000       3.285070        89.3913 
 227   0.0000       3.310004        90.0698 
 228   0.0000       3.322477        90.4092 
 229   0.0000       3.328744        90.5797 
 230   0.0000       3.369032        91.6760 
 231   0.0000       3.379018        91.9478 
 232   0.0000       3.408261        92.7435 
 233   0.0000       3.437604        93.5420 
 234   0.0000       3.441282        93.6420 
 235   0.0000       3.450311        93.8877 
 236   0.0000       3.474234        94.5387 
 237   0.0000       3.481480        94.7359 
 238   0.0000       3.491938        95.0205 
 239   0.0000       3.502270        95.3016 
 240   0.0000       3.552252        96.6617 
 241   0.0000       3.565630        97.0257 
 242   0.0000       3.587038        97.6083 
 243   0.0000       3.627357        98.7054 
 244   0.0000       3.642741        99.1240 
 245   0.0000       3.644068        99.1601 
 246   0.0000       3.646124        99.2161 
 247   0.0000       3.665660        99.7477 
 248   0.0000       3.673008        99.9476 
 249   0.0000       3.710753       100.9747 
 250   0.0000       3.731061       101.5273 
 251   0.0000       3.738429       101.7278 
 252   0.0000       3.742308       101.8334 
 253   0.0000       3.752531       102.1116 
 254   0.0000       3.765079       102.4530 
 255   0.0000       3.779301       102.8400 
 256   0.0000       3.855978       104.9265 
 257   0.0000       3.871326       105.3441 
 258   0.0000       3.883087       105.6642 
 259   0.0000       3.892336       105.9159 
 260   0.0000       3.894745       105.9814 
 261   0.0000       3.903963       106.2322 
 262   0.0000       3.913028       106.4789 
 263   0.0000       3.917849       106.6101 
 264   0.0000       3.926074       106.8339 
 265   0.0000       3.954847       107.6169 
 266   0.0000       3.970996       108.0563 
 267   0.0000       3.973396       108.1216 
 268   0.0000       4.241349       115.4130 
 269   0.0000       4.333917       117.9319 
 270   0.0000       4.376332       119.0861 
 271   0.0000       4.447834       121.0317 
 272   0.0000       4.520928       123.0207 
 273   0.0000       4.531069       123.2967 
 274   0.0000       4.540180       123.5446 
 275   0.0000       4.564329       124.2017 
 276   0.0000       4.587953       124.8446 
 277   0.0000       4.595886       125.0604 
 278   0.0000       4.626668       125.8980 
 279   0.0000       4.633858       126.0937 
 280   0.0000       4.725730       128.5937 
 281   0.0000       4.734709       128.8380 
 282   0.0000       4.757991       129.4715 
 283   0.0000       4.760425       129.5377 
 284   0.0000       4.890101       133.0664 
 285   0.0000       4.909990       133.6076 
 286   0.0000       4.926680       134.0618 
 287   0.0000       4.942952       134.5046 
 288   0.0000       5.697098       155.0259 
 289   0.0000       5.713398       155.4695 
 290   0.0000       5.717297       155.5756 
 291   0.0000       5.735966       156.0836 
 292   0.0000       5.740345       156.2027 
 293   0.0000       5.780001       157.2818 
 294   0.0000       5.812441       158.1646 
 295   0.0000       5.834914       158.7761 
 296   0.0000       5.866660       159.6399 
 297   0.0000       5.894216       160.3898 
 298   0.0000       5.915580       160.9711 
 299   0.0000       5.937848       161.5771 
 300   0.0000       6.126024       166.6976 
 301   0.0000       6.151736       167.3972 
 302   0.0000       6.172351       167.9582 
 303   0.0000       6.179294       168.1471 
 304   0.0000       6.189498       168.4248 
 305   0.0000       6.205435       168.8585 
 306   0.0000       6.218163       169.2048 
 307   0.0000       6.233600       169.6249 
 308   0.0000       6.289599       171.1487 
 309   0.0000       6.340290       172.5281 
 310   0.0000       6.364833       173.1959 
 311   0.0000       6.402176       174.2121 
 312   0.0000       6.654005       181.0647 
 313   0.0000       6.703139       182.4017 
 314   0.0000       6.758646       183.9121 
 315   0.0000       6.787414       184.6949 
 316   0.0000       6.989230       190.1866 
 317   0.0000       7.024554       191.1478 
 318   0.0000       7.061965       192.1658 
 319   0.0000       7.106568       193.3796 
 320   0.0000       7.159210       194.8120 
 321   0.0000       7.167862       195.0474 
 322   0.0000       7.201829       195.9717 
 323   0.0000       7.220535       196.4808 
 324   0.0000       7.253912       197.3890 
 325   0.0000       7.260607       197.5711 
 326   0.0000       7.301191       198.6755 
 327   0.0000       7.315305       199.0596 
 328   0.0000       7.465042       203.1341 
 329   0.0000       7.500018       204.0859 
 330   0.0000       7.527021       204.8207 
 331   0.0000       7.541135       205.2047 
 332   0.0000       7.607942       207.0226 
 333   0.0000       7.694322       209.3731 
 334   0.0000       7.741002       210.6434 
 335   0.0000       7.796203       212.1455 
 336   0.0000      23.347112       635.3072 
 337   0.0000      23.404935       636.8807 
 338   0.0000      23.419476       637.2764 
 339   0.0000      23.439195       637.8129 
 340   0.0000      45.192870      1229.7605 
 341   0.0000      45.303905      1232.7819 
 342   0.0000      45.346324      1233.9362 
 343   0.0000      45.377798      1234.7927 

                    ********************************
                    * MULLIKEN POPULATION ANALYSIS *
                    ********************************

-----------------------
MULLIKEN ATOMIC CHARGES
-----------------------
   0 O :   -0.623602
   1 H :    0.391999
   2 C :   -0.067981
   3 H :    0.104570
   4 H :    0.094463
   5 H :    0.096081
   6 O :   -0.618967
   7 H :    0.390993
   8 C :   -0.074554
   9 H :    0.109409
  10 H :    0.095137
  11 H :    0.105466
  12 O :   -0.595578
  13 H :    0.342764
  14 C :   -0.094549
  15 H :    0.166367
  16 H :    0.096840
  17 H :    0.097955
  18 O :   -0.600897
  19 H :    0.379209
  20 C :   -0.055434
  21 H :    0.093380
  22 H :    0.085574
  23 H :    0.081355
Sum of atomic charges:   -0.0000000

--------------------------------
MULLIKEN REDUCED ORBITAL CHARGES
--------------------------------
  0 O s       :     3.801169  s :     3.801169
      pz      :     1.591372  p :     4.790347
      px      :     1.461287
      py      :     1.737688
      dz2     :     0.008940  d :     0.030477
      dxz     :     0.002723
      dyz     :     0.007438
      dx2y2   :     0.009930
      dxy     :     0.001446
      f0      :     0.000136  f :     0.001609
      f+1     :     0.000278
      f-1     :     0.000385
      f+2     :     0.000166
      f-2     :     0.000202
      f+3     :     0.000378
      f-3     :     0.000064
  1 H s       :     0.552758  s :     0.552758
      pz      :     0.009866  p :     0.055243
      px      :     0.033921
      py      :     0.011456
  2 C s       :     3.184266  s :     3.184266
      pz      :     0.798899  p :     2.760441
      px      :     1.035785
      py      :     0.925757
      dz2     :     0.040534  d :     0.114084
      dxz     :     0.016496
      dyz     :     0.017276
      dx2y2   :     0.027482
      dxy     :     0.012297
      f0      :     0.001706  f :     0.009190
      f+1     :     0.001352
      f-1     :     0.002253
      f+2     :     0.001298
      f-2     :     0.001130
      f+3     :     0.001176
      f-3     :     0.000275
  3 H s       :     0.874478  s :     0.874478
      pz      :     0.002710  p :     0.020952
      px      :     0.015067
      py      :     0.003175
  4 H s       :     0.885406  s :     0.885406
      pz      :     0.011365  p :     0.020131
      px      :     0.004282
      py      :     0.004483
  5 H s       :     0.883449  s :     0.883449
      pz      :     0.002547  p :     0.020470
      px      :     0.004618
      py      :     0.013305
  6 O s       :     3.797294  s :     3.797294
      pz      :     1.474652  p :     4.789540
      px      :     1.809469
      py      :     1.505419
      dz2     :     0.011581  d :     0.030532
      dxz     :     0.005821
      dyz     :     0.003122
      dx2y2   :     0.007574
      dxy     :     0.002435
      f0      :     0.000246  f :     0.001601
      f+1     :     0.000342
      f-1     :     0.000323
      f+2     :     0.000176
      f-2     :     0.000096
      f+3     :     0.000176
      f-3     :     0.000242
  7 H s       :     0.555244  s :     0.555244
      pz      :     0.009881  p :     0.053763
      px      :     0.012612
      py      :     0.031270
  8 C s       :     3.185749  s :     3.185749
      pz      :     0.727506  p :     2.766911
      px      :     0.997727
      py      :     1.041678
      dz2     :     0.032939  d :     0.112783
      dxz     :     0.020748
      dyz     :     0.028399
      dx2y2   :     0.024083
      dxy     :     0.006613
      f0      :     0.002414  f :     0.009111
      f+1     :     0.002043
      f-1     :     0.001761
      f+2     :     0.000886
      f-2     :     0.000915
      f+3     :     0.000864
      f-3     :     0.000229
  9 H s       :     0.869606  s :     0.869606
      pz      :     0.002995  p :     0.020984
      px      :     0.004099
      py      :     0.013890
 10 H s       :     0.884312  s :     0.884312
      pz      :     0.002289  p :     0.020550
      px      :     0.014830
      py      :     0.003431
 11 H s       :     0.874274  s :     0.874274
      pz      :     0.008528  p :     0.020260
      px      :     0.004661
      py      :     0.007071
 12 O s       :     3.794443  s :     3.794443
      pz      :     1.764443  p :     4.769176
      px      :     1.301340
      py      :     1.703392
      dz2     :     0.002540  d :     0.030272
      dxz     :     0.009803
      dyz     :     0.004507
      dx2y2   :     0.006373
      dxy     :     0.007049
      f0      :     0.000301  f :     0.001687
      f+1     :     0.000122
      f-1     :     0.000101
      f+2     :     0.000296
      f-2     :     0.000323
      f+3     :     0.000257
      f-3     :     0.000288
 13 H s       :     0.612489  s :     0.612489
      pz      :     0.014173  p :     0.044748
      px      :     0.018336
      py      :     0.012238
 14 C s       :     3.202386  s :     3.202386
      pz      :     0.979801  p :     2.778818
      px      :     0.892937
      py      :     0.906079
      dz2     :     0.027948  d :     0.104634
      dxz     :     0.017265
      dyz     :     0.008185
      dx2y2   :     0.033952
      dxy     :     0.017285
      f0      :     0.001615  f :     0.008711
      f+1     :     0.000955
      f-1     :     0.000813
      f+2     :     0.000924
      f-2     :     0.001247
      f+3     :     0.001547
      f-3     :     0.001611
 15 H s       :     0.809826  s :     0.809826
      pz      :     0.004809  p :     0.023807
      px      :     0.015080
      py      :     0.003918
 16 H s       :     0.882560  s :     0.882560
      pz      :     0.003977  p :     0.020600
      px      :     0.002879
      py      :     0.013744
 17 H s       :     0.881637  s :     0.881637
      pz      :     0.014707  p :     0.020407
      px      :     0.002792
      py      :     0.002908
 18 O s       :     3.804229  s :     3.804229
      pz      :     1.510395  p :     4.763393
      px      :     1.772481
      py      :     1.480517
      dz2     :     0.011115  d :     0.031583
      dxz     :     0.007053
      dyz     :     0.002901
      dx2y2   :     0.008412
      dxy     :     0.002103
      f0      :     0.000180  f :     0.001692
      f+1     :     0.000469
      f-1     :     0.000245
      f+2     :     0.000132
      f-2     :     0.000161
      f+3     :     0.000190
      f-3     :     0.000314
 19 H s       :     0.566599  s :     0.566599
      pz      :     0.009476  p :     0.054192
      px      :     0.013774
      py      :     0.030942
 20 C s       :     3.177421  s :     3.177421
      pz      :     0.761349  p :     2.750129
      px      :     0.949242
      py      :     1.039538
      dz2     :     0.038505  d :     0.118618
      dxz     :     0.025614
      dyz     :     0.018858
      dx2y2   :     0.019392
      dxy     :     0.016249
      f0      :     0.002112  f :     0.009266
      f+1     :     0.002364
      f-1     :     0.001407
      f+2     :     0.001158
      f-2     :     0.000998
      f+3     :     0.000233
      f-3     :     0.000994
 21 H s       :     0.885848  s :     0.885848
      pz      :     0.002603  p :     0.020772
      px      :     0.003817
      py      :     0.014353
 22 H s       :     0.894244  s :     0.894244
      pz      :     0.002440  p :     0.020182
      px      :     0.011858
      py      :     0.005884
 23 H s       :     0.898704  s :     0.898704
      pz      :     0.009901  p :     0.019941
      px      :     0.006091
      py      :     0.003949


                     *******************************
                     * LOEWDIN POPULATION ANALYSIS *
                     *******************************

----------------------
LOEWDIN ATOMIC CHARGES
----------------------
   0 O :   -0.119546
   1 H :    0.173977
   2 C :   -0.343420
   3 H :    0.099135
   4 H :    0.090480
   5 H :    0.092980
   6 O :   -0.117241
   7 H :    0.173933
   8 C :   -0.338608
   9 H :    0.100789
  10 H :    0.092963
  11 H :    0.093952
  12 O :   -0.117018
  13 H :    0.177074
  14 C :   -0.316036
  15 H :    0.114464
  16 H :    0.093532
  17 H :    0.092429
  18 O :   -0.128859
  19 H :    0.170803
  20 C :   -0.355309
  21 H :    0.094874
  22 H :    0.088834
  23 H :    0.085817

-------------------------------
LOEWDIN REDUCED ORBITAL CHARGES
-------------------------------
  0 O s       :     3.372637  s :     3.372637
      pz      :     1.594006  p :     4.677480
      px      :     1.415292
      py      :     1.668182
      dz2     :     0.019030  d :     0.065431
      dxz     :     0.009113
      dyz     :     0.014436
      dx2y2   :     0.017472
      dxy     :     0.005381
      f0      :     0.000636  f :     0.003997
      f+1     :     0.000697
      f-1     :     0.000765
      f+2     :     0.000547
      f-2     :     0.000555
      f+3     :     0.000658
      f-3     :     0.000139
  1 H s       :     0.639526  s :     0.639526
      pz      :     0.030817  p :     0.186496
      px      :     0.119295
      py      :     0.036384
  2 C s       :     2.859131  s :     2.859131
      pz      :     0.919587  p :     2.995711
      px      :     1.071398
      py      :     1.004726
      dz2     :     0.148445  d :     0.430049
      dxz     :     0.054374
      dyz     :     0.093363
      dx2y2   :     0.095959
      dxy     :     0.037908
      f0      :     0.010170  f :     0.058528
      f+1     :     0.008739
      f-1     :     0.013236
      f+2     :     0.009700
      f-2     :     0.009454
      f+3     :     0.005145
      f-3     :     0.002084
  3 H s       :     0.842368  s :     0.842368
      pz      :     0.009141  p :     0.058497
      px      :     0.038493
      py      :     0.010863
  4 H s       :     0.851192  s :     0.851192
      pz      :     0.029693  p :     0.058328
      px      :     0.014304
      py      :     0.014330
  5 H s       :     0.848716  s :     0.848716
      pz      :     0.008970  p :     0.058304
      px      :     0.014959
      py      :     0.034375
  6 O s       :     3.372272  s :     3.372272
      pz      :     1.508833  p :     4.675582
      px      :     1.715168
      py      :     1.451581
      dz2     :     0.022314  d :     0.065397
      dxz     :     0.013438
      dyz     :     0.012976
      dx2y2   :     0.013046
      dxy     :     0.003623
      f0      :     0.000860  f :     0.003989
      f+1     :     0.000811
      f-1     :     0.000975
      f+2     :     0.000401
      f-2     :     0.000304
      f+3     :     0.000305
      f-3     :     0.000333
  7 H s       :     0.644305  s :     0.644305
      pz      :     0.030161  p :     0.181762
      px      :     0.042664
      py      :     0.108938
  8 C s       :     2.859992  s :     2.859992
      pz      :     0.863925  p :     2.996839
      px      :     1.056155
      py      :     1.076758
      dz2     :     0.134100  d :     0.423819
      dxz     :     0.095339
      dyz     :     0.095034
      dx2y2   :     0.079753
      dxy     :     0.019593
      f0      :     0.015646  f :     0.057958
      f+1     :     0.014334
      f-1     :     0.009647
      f+2     :     0.005296
      f-2     :     0.008700
      f+3     :     0.002965
      f-3     :     0.001369
  9 H s       :     0.840402  s :     0.840402
      pz      :     0.009258  p :     0.058808
      px      :     0.013607
      py      :     0.035944
 10 H s       :     0.848665  s :     0.848665
      pz      :     0.008031  p :     0.058372
      px      :     0.038298
      py      :     0.012043
 11 H s       :     0.847097  s :     0.847097
      pz      :     0.022915  p :     0.058952
      px      :     0.015061
      py      :     0.020976
 12 O s       :     3.377619  s :     3.377619
      pz      :     1.711007  p :     4.668346
      px      :     1.302217
      py      :     1.655122
      dz2     :     0.008064  d :     0.066991
      dxz     :     0.017526
      dyz     :     0.007133
      dx2y2   :     0.020449
      dxy     :     0.013819
      f0      :     0.000383  f :     0.004063
      f+1     :     0.000397
      f-1     :     0.000323
      f+2     :     0.000787
      f-2     :     0.000786
      f+3     :     0.000632
      f-3     :     0.000754
 13 H s       :     0.666029  s :     0.666029
      pz      :     0.049698  p :     0.156898
      px      :     0.065877
      py      :     0.041322
 14 C s       :     2.865482  s :     2.865482
      pz      :     1.048189  p :     2.996227
      px      :     0.958757
      py      :     0.989281
      dz2     :     0.103800  d :     0.399329
      dxz     :     0.066320
      dyz     :     0.041041
      dx2y2   :     0.113710
      dxy     :     0.074459
      f0      :     0.005980  f :     0.054998
      f+1     :     0.005965
      f-1     :     0.004982
      f+2     :     0.007511
      f-2     :     0.012064
      f+3     :     0.010301
      f-3     :     0.008197
 15 H s       :     0.816893  s :     0.816893
      pz      :     0.015564  p :     0.068642
      px      :     0.039946
      py      :     0.013133
 16 H s       :     0.847311  s :     0.847311
      pz      :     0.013066  p :     0.059157
      px      :     0.010664
      py      :     0.035428
 17 H s       :     0.848306  s :     0.848306
      pz      :     0.038317  p :     0.059264
      px      :     0.010481
      py      :     0.010467
 18 O s       :     3.374628  s :     3.374628
      pz      :     1.543981  p :     4.683708
      px      :     1.697653
      py      :     1.442074
      dz2     :     0.022155  d :     0.066426
      dxz     :     0.015071
      dyz     :     0.010154
      dx2y2   :     0.013306
      dxy     :     0.005741
      f0      :     0.000804  f :     0.004095
      f+1     :     0.000838
      f-1     :     0.000856
      f+2     :     0.000424
      f-2     :     0.000474
      f+3     :     0.000224
      f-3     :     0.000477
 19 H s       :     0.647212  s :     0.647212
      pz      :     0.029577  p :     0.181985
      px      :     0.041718
      py      :     0.110690
 20 C s       :     2.858374  s :     2.858374
      pz      :     0.895321  p :     2.997694
      px      :     1.023225
      py      :     1.079149
      dz2     :     0.147817  d :     0.439807
      dxz     :     0.116710
      dyz     :     0.058896
      dx2y2   :     0.065838
      dxy     :     0.050546
      f0      :     0.013476  f :     0.059434
      f+1     :     0.013181
      f-1     :     0.010479
      f+2     :     0.009347
      f-2     :     0.007563
      f+3     :     0.001520
      f-3     :     0.003869
 21 H s       :     0.847386  s :     0.847386
      pz      :     0.008649  p :     0.057740
      px      :     0.012234
      py      :     0.036857
 22 H s       :     0.853485  s :     0.853485
      pz      :     0.008467  p :     0.057681
      px      :     0.031274
      py      :     0.017939
 23 H s       :     0.856588  s :     0.856588
      pz      :     0.025923  p :     0.057595
      px      :     0.018217
      py      :     0.013456


                      *****************************
                      * MAYER POPULATION ANALYSIS *
                      *****************************

  NA   - Mulliken gross atomic population
  ZA   - Total nuclear charge
  QA   - Mulliken gross atomic charge
  VA   - Mayer's total valence
  BVA  - Mayer's bonded valence
  FA   - Mayer's free valence

  ATOM       NA         ZA         QA         VA         BVA        FA
  0 O      8.6236     8.0000    -0.6236     1.7139     1.7139    -0.0000
  1 H      0.6080     1.0000     0.3920     0.8783     0.8783    -0.0000
  2 C      6.0680     6.0000    -0.0680     3.8789     3.8789    -0.0000
  3 H      0.8954     1.0000     0.1046     0.9661     0.9661    -0.0000
  4 H      0.9055     1.0000     0.0945     0.9646     0.9646    -0.0000
  5 H      0.9039     1.0000     0.0961     0.9668     0.9668    -0.0000
  6 O      8.6190     8.0000    -0.6190     1.7252     1.7252    -0.0000
  7 H      0.6090     1.0000     0.3910     0.8832     0.8832    -0.0000
  8 C      6.0746     6.0000    -0.0746     3.8632     3.8632    -0.0000
  9 H      0.8906     1.0000     0.1094     0.9666     0.9666    -0.0000
 10 H      0.9049     1.0000     0.0951     0.9684     0.9684    -0.0000
 11 H      0.8945     1.0000     0.1055     0.9649     0.9649    -0.0000
 12 O      8.5956     8.0000    -0.5956     1.7621     1.7621    -0.0000
 13 H      0.6572     1.0000     0.3428     0.8905     0.8905     0.0000
 14 C      6.0945     6.0000    -0.0945     3.7912     3.7912    -0.0000
 15 H      0.8336     1.0000     0.1664     0.9806     0.9806    -0.0000
 16 H      0.9032     1.0000     0.0968     0.9692     0.9692     0.0000
 17 H      0.9020     1.0000     0.0980     0.9675     0.9675     0.0000
 18 O      8.6009     8.0000    -0.6009     1.7272     1.7272    -0.0000
 19 H      0.6208     1.0000     0.3792     0.8904     0.8904    -0.0000
 20 C      6.0554     6.0000    -0.0554     3.9040     3.9040    -0.0000
 21 H      0.9066     1.0000     0.0934     0.9634     0.9634    -0.0000
 22 H      0.9144     1.0000     0.0856     0.9653     0.9653    -0.0000
 23 H      0.9186     1.0000     0.0814     0.9622     0.9622    -0.0000

  Mayer bond orders larger than 0.100000
B(  0-O ,  1-H ) :   0.7936 B(  0-O ,  2-C ) :   0.9090 B(  2-C ,  3-H ) :   0.9880 
B(  2-C ,  4-H ) :   0.9901 B(  2-C ,  5-H ) :   0.9874 B(  6-O ,  7-H ) :   0.8077 
B(  6-O ,  8-C ) :   0.8980 B(  8-C ,  9-H ) :   0.9875 B(  8-C , 10-H ) :   0.9876 
B(  8-C , 11-H ) :   0.9882 B( 12-O , 13-H ) :   0.8808 B( 12-O , 14-C ) :   0.8614 
B( 14-C , 15-H ) :   0.9655 B( 14-C , 16-H ) :   0.9860 B( 14-C , 17-H ) :   0.9912 
B( 18-O , 19-H ) :   0.8137 B( 18-O , 20-C ) :   0.9361 B( 20-C , 21-H ) :   0.9888 
B( 20-C , 22-H ) :   0.9882 B( 20-C , 23-H ) :   0.9888 

-------
TIMINGS
-------

Total SCF time: 0 days 0 hours 0 min 39 sec 

Total time                  ....      39.878 sec
Sum of individual times     ....      39.386 sec  ( 98.8%)

Fock matrix formation       ....      37.607 sec  ( 94.3%)
Diagonalization             ....       0.482 sec  (  1.2%)
Density matrix formation    ....       0.209 sec  (  0.5%)
Population analysis         ....       0.084 sec  (  0.2%)
Initial guess               ....       0.300 sec  (  0.8%)
Orbital Transformation      ....       0.000 sec  (  0.0%)
Orbital Orthonormalization  ....       0.000 sec  (  0.0%)
DIIS solution               ....       0.272 sec  (  0.7%)
SOSCF solution              ....       0.329 sec  (  0.8%)


           ************************************************************
           *        Program running with 12 parallel MPI-processes    *
           *              working on a common directory               *
           ************************************************************

------------------------------------------------------------------------------
                                ORCA  MP2 
------------------------------------------------------------------------------

Freezing NCore=16 chemical core electrons
MP2 will be done in the AO integral direct mode
The Q1-step will be done using symmetric double matrices
Dimension of the basis                    ...  344
Memory devoted for MP2                    ... 8000 MB   
Memory needed for all in one shot         ...  468 MB
Number of MOs that can be treated together...   50      
MP2 density construction                  ... relaxed
The MP2 gradient is requested => amplitudes will be stored on disk
Total number of MOs              ...   28
Number of MOs treated per batch  ...    3 
Number of batches necessary      ...    1 
OPERATORS   0/  0 PASS   0
-----------------------------------------------
 MP2 CORRELATION ENERGY   :     -1.683472358 Eh
-----------------------------------------------


---------------------
MP2 DENSITY FORMATION
---------------------

Completing the external part of the density      ... done
Storing the unrelaxed density                    ... done

Calculating G(D)                                 ... done
Completing the Lagrangian                        ... done
Solving the Z-vector equations                   ... 

------------------------------------------------------------------------------
                           ORCA CP-SCF CALCULATION
------------------------------------------------------------------------------

Input orbitals are from        ... 4meoh.boyd.etal.5-orca.engrad-mp2.def2tzvp.gbw
Input Perturbation             ... 4meoh.boyd.etal.5-orca.engrad-mp2.def2tzvp.pin.tmp
Wavefunction output            ... 4meoh.boyd.etal.5-orca.engrad-mp2.def2tzvp.pout.tmp
Perturbation mode              ... Real perturbation (singlet)
Solver                         ... POPLE
Max. number of iterations      ... 128
Convergence tolerance          ... 1.000e-08
Integral handling              ... Direct
Number of perturbations        ... 1
Number of operators            ... 1
Orbital ranges used for CP-SCF:
 Operator 0:  Orbitals   0... 35  to  36...343
Variables per vector in CP-SCF ... 11088
Number of vectors sought       ... 1
     CP-SCF ITERATION   0: 
     CP-SCF ITERATION   1:      0.000491541790
     CP-SCF ITERATION   2:      0.000044973523
     CP-SCF ITERATION   3:      0.000006663606
     CP-SCF ITERATION   4:      0.000000310847
     CP-SCF ITERATION   5:      0.000000015081
     CP-SCF ITERATION   6:      0.000000001569
                                                 ... done
Finalizing the relaxed density                   ... done
Transforming P to the AO basis                   ... done
Storing the relaxed density                      ... done

------------------------------------
ENERGY WEIGHTED DENSITY FINALIZATION
------------------------------------

Gathering the parts of the W-matrix              ...                                                      done
Forming the Z-density                            ... done
Transforming Z to the AO basis                   ... done
Calculating G(Z)                                 ... done
Finalizing the W-matrix                          ...                                                      done
Transforming W to the AO basis and storing       ... done

                *********************************************
                * UNRELAXED MP2 DENSITY POPULATION ANALYSIS *
                *********************************************

------------------------------------------------------------------------------
                           ORCA POPULATION ANALYSIS
------------------------------------------------------------------------------
Input electron density              ... 4meoh.boyd.etal.5-orca.engrad-mp2.def2tzvp.pmp2ur
BaseName (.gbw .S,...)              ... 4meoh.boyd.etal.5-orca.engrad-mp2.def2tzvp

                    ********************************
                    * MULLIKEN POPULATION ANALYSIS *
                    ********************************

-----------------------
MULLIKEN ATOMIC CHARGES
-----------------------
   0 O :   -0.610755
   1 H :    0.387202
   2 C :   -0.084140
   3 H :    0.107364
   4 H :    0.096950
   5 H :    0.098675
   6 O :   -0.606100
   7 H :    0.386591
   8 C :   -0.090547
   9 H :    0.112142
  10 H :    0.097741
  11 H :    0.107882
  12 O :   -0.583829
  13 H :    0.340372
  14 C :   -0.109549
  15 H :    0.167620
  16 H :    0.099383
  17 H :    0.100439
  18 O :   -0.588837
  19 H :    0.374857
  20 C :   -0.071647
  21 H :    0.096236
  22 H :    0.088124
  23 H :    0.083828
Sum of atomic charges:   -0.0000000

--------------------------------
MULLIKEN REDUCED ORBITAL CHARGES
--------------------------------
  0 O s       :     3.795687  s :     3.795687
      pz      :     1.578132  p :     4.751686
      px      :     1.450316
      py      :     1.723238
      dz2     :     0.014535  d :     0.059059
      dxz     :     0.008470
      dyz     :     0.013012
      dx2y2   :     0.015609
      dxy     :     0.007433
      f0      :     0.000535  f :     0.004323
      f+1     :     0.000664
      f-1     :     0.000768
      f+2     :     0.000559
      f-2     :     0.000581
      f+3     :     0.000759
      f-3     :     0.000457
  1 H s       :     0.555876  s :     0.555876
      pz      :     0.010721  p :     0.056921
      px      :     0.033898
      py      :     0.012302
  2 C s       :     3.182282  s :     3.182282
      pz      :     0.798954  p :     2.754431
      px      :     1.031800
      py      :     0.923677
      dz2     :     0.044067  d :     0.134903
      dxz     :     0.021162
      dyz     :     0.020761
      dx2y2   :     0.031664
      dxy     :     0.017249
      f0      :     0.002271  f :     0.012524
      f+1     :     0.001789
      f-1     :     0.002624
      f+2     :     0.001817
      f-2     :     0.001573
      f+3     :     0.001606
      f-3     :     0.000843
  3 H s       :     0.868559  s :     0.868559
      pz      :     0.003862  p :     0.024077
      px      :     0.015897
      py      :     0.004318
  4 H s       :     0.879731  s :     0.879731
      pz      :     0.012313  p :     0.023319
      px      :     0.005406
      py      :     0.005600
  5 H s       :     0.877693  s :     0.877693
      pz      :     0.003715  p :     0.023632
      px      :     0.005728
      py      :     0.014189
  6 O s       :     3.791816  s :     3.791816
      pz      :     1.461994  p :     4.750885
      px      :     1.794483
      py      :     1.494408
      dz2     :     0.017010  d :     0.059083
      dxz     :     0.011536
      dyz     :     0.008833
      dx2y2   :     0.013364
      dxy     :     0.008339
      f0      :     0.000647  f :     0.004315
      f+1     :     0.000730
      f-1     :     0.000715
      f+2     :     0.000562
      f-2     :     0.000476
      f+3     :     0.000562
      f-3     :     0.000623
  7 H s       :     0.558020  s :     0.558020
      pz      :     0.010663  p :     0.055389
      px      :     0.013422
      py      :     0.031304
  8 C s       :     3.183680  s :     3.183680
      pz      :     0.729100  p :     2.760752
      px      :     0.994274
      py      :     1.037377
      dz2     :     0.036135  d :     0.133670
      dxz     :     0.024912
      dyz     :     0.032348
      dx2y2   :     0.028349
      dxy     :     0.011928
      f0      :     0.002891  f :     0.012445
      f+1     :     0.002432
      f-1     :     0.002215
      f+2     :     0.001447
      f-2     :     0.001366
      f+3     :     0.001326
      f-3     :     0.000767
  9 H s       :     0.863762  s :     0.863762
      pz      :     0.004142  p :     0.024096
      px      :     0.005207
      py      :     0.014747
 10 H s       :     0.878550  s :     0.878550
      pz      :     0.003466  p :     0.023710
      px      :     0.015665
      py      :     0.004579
 11 H s       :     0.868701  s :     0.868701
      pz      :     0.009541  p :     0.023417
      px      :     0.005765
      py      :     0.008111
 12 O s       :     3.789121  s :     3.789121
      pz      :     1.750898  p :     4.731948
      px      :     1.292045
      py      :     1.689005
      dz2     :     0.008305  d :     0.058389
      dxz     :     0.015202
      dyz     :     0.010150
      dx2y2   :     0.012077
      dxy     :     0.012655
      f0      :     0.000672  f :     0.004371
      f+1     :     0.000512
      f-1     :     0.000482
      f+2     :     0.000678
      f-2     :     0.000709
      f+3     :     0.000644
      f-3     :     0.000674
 13 H s       :     0.613238  s :     0.613238
      pz      :     0.014935  p :     0.046390
      px      :     0.018390
      py      :     0.013066
 14 C s       :     3.200093  s :     3.200093
      pz      :     0.976073  p :     2.771829
      px      :     0.891569
      py      :     0.904186
      dz2     :     0.031598  d :     0.125590
      dxz     :     0.021867
      dyz     :     0.013026
      dx2y2   :     0.037959
      dxy     :     0.021139
      f0      :     0.002024  f :     0.012036
      f+1     :     0.001518
      f-1     :     0.001343
      f+2     :     0.001395
      f-2     :     0.001659
      f+3     :     0.002063
      f-3     :     0.002034
 15 H s       :     0.805796  s :     0.805796
      pz      :     0.005826  p :     0.026584
      px      :     0.015784
      py      :     0.004974
 16 H s       :     0.876867  s :     0.876867
      pz      :     0.005103  p :     0.023750
      px      :     0.004036
      py      :     0.014611
 17 H s       :     0.876000  s :     0.876000
      pz      :     0.015544  p :     0.023562
      px      :     0.003948
      py      :     0.004070
 18 O s       :     3.799062  s :     3.799062
      pz      :     1.497618  p :     4.725687
      px      :     1.758574
      py      :     1.469495
      dz2     :     0.016506  d :     0.059696
      dxz     :     0.012607
      dyz     :     0.008583
      dx2y2   :     0.014001
      dxy     :     0.007999
      f0      :     0.000582  f :     0.004392
      f+1     :     0.000848
      f-1     :     0.000637
      f+2     :     0.000521
      f-2     :     0.000540
      f+3     :     0.000571
      f-3     :     0.000692
 19 H s       :     0.569240  s :     0.569240
      pz      :     0.010333  p :     0.055903
      px      :     0.014621
      py      :     0.030949
 20 C s       :     3.175458  s :     3.175458
      pz      :     0.762096  p :     2.744142
      px      :     0.946596
      py      :     1.035451
      dz2     :     0.041839  d :     0.139440
      dxz     :     0.028906
      dyz     :     0.023726
      dx2y2   :     0.024019
      dxy     :     0.020950
      f0      :     0.002654  f :     0.012607
      f+1     :     0.002718
      f-1     :     0.001856
      f+2     :     0.001665
      f-2     :     0.001494
      f+3     :     0.000783
      f-3     :     0.001437
 21 H s       :     0.879818  s :     0.879818
      pz      :     0.003766  p :     0.023946
      px      :     0.004960
      py      :     0.015219
 22 H s       :     0.888489  s :     0.888489
      pz      :     0.003617  p :     0.023388
      px      :     0.012800
      py      :     0.006970
 23 H s       :     0.892990  s :     0.892990
      pz      :     0.010914  p :     0.023182
      px      :     0.007174
      py      :     0.005093


                     *******************************
                     * LOEWDIN POPULATION ANALYSIS *
                     *******************************

----------------------
LOEWDIN ATOMIC CHARGES
----------------------
   0 O :   -0.110789
   1 H :    0.171237
   2 C :   -0.354229
   3 H :    0.100835
   4 H :    0.091951
   5 H :    0.094503
   6 O :   -0.108374
   7 H :    0.171401
   8 C :   -0.349446
   9 H :    0.102495
  10 H :    0.094499
  11 H :    0.095443
  12 O :   -0.108332
  13 H :    0.175574
  14 C :   -0.326957
  15 H :    0.115773
  16 H :    0.095087
  17 H :    0.093954
  18 O :   -0.120674
  19 H :    0.168121
  20 C :   -0.366155
  21 H :    0.096554
  22 H :    0.090292
  23 H :    0.087236

-------------------------------
LOEWDIN REDUCED ORBITAL CHARGES
-------------------------------
  0 O s       :     3.369343  s :     3.369343
      pz      :     1.580417  p :     4.639026
      px      :     1.404982
      py      :     1.653627
      dz2     :     0.024958  d :     0.095440
      dxz     :     0.014680
      dyz     :     0.020877
      dx2y2   :     0.023762
      dxy     :     0.011163
      f0      :     0.001047  f :     0.006979
      f+1     :     0.001134
      f-1     :     0.001222
      f+2     :     0.000967
      f-2     :     0.000961
      f+3     :     0.001105
      f-3     :     0.000543
  1 H s       :     0.639464  s :     0.639464
      pz      :     0.031663  p :     0.189298
      px      :     0.120405
      py      :     0.037230
  2 C s       :     2.858031  s :     2.858031
      pz      :     0.916525  p :     2.981796
      px      :     1.065231
      py      :     1.000040
      dz2     :     0.151850  d :     0.450985
      dxz     :     0.058677
      dyz     :     0.097360
      dx2y2   :     0.100368
      dxy     :     0.042730
      f0      :     0.010767  f :     0.063417
      f+1     :     0.009444
      f-1     :     0.014216
      f+2     :     0.010299
      f-2     :     0.010017
      f+3     :     0.005930
      f-3     :     0.002744
  3 H s       :     0.835553  s :     0.835553
      pz      :     0.010456  p :     0.063612
      px      :     0.041012
      py      :     0.012144
  4 H s       :     0.844471  s :     0.844471
      pz      :     0.032089  p :     0.063579
      px      :     0.015690
      py      :     0.015799
  5 H s       :     0.841960  s :     0.841960
      pz      :     0.010307  p :     0.063537
      px      :     0.016372
      py      :     0.036858
  6 O s       :     3.368940  s :     3.368940
      pz      :     1.495625  p :     4.637127
      px      :     1.700374
      py      :     1.441128
      dz2     :     0.028490  d :     0.095340
      dxz     :     0.019532
      dyz     :     0.018524
      dx2y2   :     0.019251
      dxy     :     0.009543
      f0      :     0.001308  f :     0.006968
      f+1     :     0.001261
      f-1     :     0.001415
      f+2     :     0.000810
      f-2     :     0.000701
      f+3     :     0.000717
      f-3     :     0.000755
  7 H s       :     0.644032  s :     0.644032
      pz      :     0.030991  p :     0.184567
      px      :     0.043509
      py      :     0.110067
  8 C s       :     2.858872  s :     2.858872
      pz      :     0.862026  p :     2.982919
      px      :     1.050410
      py      :     1.070483
      dz2     :     0.137612  d :     0.444819
      dxz     :     0.099227
      dyz     :     0.098678
      dx2y2   :     0.084416
      dxy     :     0.024886
      f0      :     0.016287  f :     0.062836
      f+1     :     0.015154
      f-1     :     0.010404
      f+2     :     0.005966
      f-2     :     0.009267
      f+3     :     0.003727
      f-3     :     0.002030
  9 H s       :     0.833612  s :     0.833612
      pz      :     0.010663  p :     0.063892
      px      :     0.014932
      py      :     0.038297
 10 H s       :     0.841906  s :     0.841906
      pz      :     0.009406  p :     0.063595
      px      :     0.040888
      py      :     0.013301
 11 H s       :     0.840414  s :     0.840414
      pz      :     0.025010  p :     0.064143
      px      :     0.016478
      py      :     0.022655
 12 O s       :     3.374185  s :     3.374185
      pz      :     1.697772  p :     4.630722
      px      :     1.292395
      py      :     1.640556
      dz2     :     0.013789  d :     0.096426
      dxz     :     0.023422
      dyz     :     0.013149
      dx2y2   :     0.026134
      dxy     :     0.019931
      f0      :     0.000800  f :     0.006999
      f+1     :     0.000799
      f-1     :     0.000711
      f+2     :     0.001209
      f-2     :     0.001225
      f+3     :     0.001064
      f-3     :     0.001190
 13 H s       :     0.664117  s :     0.664117
      pz      :     0.050729  p :     0.160310
      px      :     0.067383
      py      :     0.042197
 14 C s       :     2.864291  s :     2.864291
      pz      :     1.042453  p :     2.982276
      px      :     0.954975
      py      :     0.984848
      dz2     :     0.107795  d :     0.420548
      dxz     :     0.070895
      dyz     :     0.045809
      dx2y2   :     0.117342
      dxy     :     0.078707
      f0      :     0.006937  f :     0.059841
      f+1     :     0.006561
      f-1     :     0.005594
      f+2     :     0.008081
      f-2     :     0.012697
      f+3     :     0.010949
      f-3     :     0.009022
 15 H s       :     0.810908  s :     0.810908
      pz      :     0.016894  p :     0.073319
      px      :     0.041968
      py      :     0.014457
 16 H s       :     0.840581  s :     0.840581
      pz      :     0.014382  p :     0.064332
      px      :     0.012007
      py      :     0.037943
 17 H s       :     0.841591  s :     0.841591
      pz      :     0.040887  p :     0.064455
      px      :     0.011799
      py      :     0.011768
 18 O s       :     3.371378  s :     3.371378
      pz      :     1.530673  p :     4.646176
      px      :     1.683870
      py      :     1.431633
      dz2     :     0.028168  d :     0.096056
      dxz     :     0.021314
      dyz     :     0.015567
      dx2y2   :     0.019485
      dxy     :     0.011522
      f0      :     0.001232  f :     0.007064
      f+1     :     0.001304
      f-1     :     0.001291
      f+2     :     0.000835
      f-2     :     0.000869
      f+3     :     0.000633
      f-3     :     0.000900
 19 H s       :     0.646949  s :     0.646949
      pz      :     0.030421  p :     0.184930
      px      :     0.042573
      py      :     0.111935
 20 C s       :     2.857311  s :     2.857311
      pz      :     0.892738  p :     2.983780
      px      :     1.018178
      py      :     1.072864
      dz2     :     0.151250  d :     0.460713
      dxz     :     0.120437
      dyz     :     0.063059
      dx2y2   :     0.070662
      dxy     :     0.055306
      f0      :     0.014075  f :     0.064351
      f+1     :     0.014278
      f-1     :     0.011098
      f+2     :     0.009933
      f-2     :     0.008145
      f+3     :     0.002179
      f-3     :     0.004642
 21 H s       :     0.840517  s :     0.840517
      pz      :     0.009993  p :     0.062929
      px      :     0.013570
      py      :     0.039366
 22 H s       :     0.846725  s :     0.846725
      pz      :     0.009848  p :     0.062983
      px      :     0.033621
      py      :     0.019515
 23 H s       :     0.849838  s :     0.849838
      pz      :     0.028252  p :     0.062925
      px      :     0.019872
      py      :     0.014802


                      *****************************
                      * MAYER POPULATION ANALYSIS *
                      *****************************

[...]
      dyz     :     0.008879
      dx2y2   :     0.013355
      dxy     :     0.008102
      f0      :     0.000585  f :     0.004335
      f+1     :     0.000815
      f-1     :     0.000630
      f+2     :     0.000520
      f-2     :     0.000543
      f+3     :     0.000564
      f-3     :     0.000677
 19 H s       :     0.591984  s :     0.591984
      pz      :     0.010965  p :     0.056143
      px      :     0.015480
      py      :     0.029699
 20 C s       :     3.195969  s :     3.195969
      pz      :     0.780981  p :     2.816255
      px      :     0.972850
      py      :     1.062423
      dz2     :     0.040220  d :     0.131133
      dxz     :     0.026003
      dyz     :     0.024439
      dx2y2   :     0.021793
      dxy     :     0.018677
      f0      :     0.002599  f :     0.012077
      f+1     :     0.002586
      f-1     :     0.001736
      f+2     :     0.001612
      f-2     :     0.001442
      f+3     :     0.000767
      f-3     :     0.001336
 21 H s       :     0.861808  s :     0.861808
      pz      :     0.003971  p :     0.022846
      px      :     0.005129
      py      :     0.013745
 22 H s       :     0.872778  s :     0.872778
      pz      :     0.003865  p :     0.022297
      px      :     0.011642
      py      :     0.006789
 23 H s       :     0.877722  s :     0.877722
      pz      :     0.009992  p :     0.022127
      px      :     0.006911
      py      :     0.005224


                     *******************************
                     * LOEWDIN POPULATION ANALYSIS *
                     *******************************

----------------------
LOEWDIN ATOMIC CHARGES
----------------------
   0 O :   -0.090757
   1 H :    0.164840
   2 C :   -0.388822
   3 H :    0.108503
   4 H :    0.098262
   5 H :    0.101160
   6 O :   -0.087941
   7 H :    0.165806
   8 C :   -0.383849
   9 H :    0.110163
  10 H :    0.101237
  11 H :    0.101814
  12 O :   -0.089683
  13 H :    0.178544
  14 C :   -0.361847
  15 H :    0.119113
  16 H :    0.101827
  17 H :    0.100491
  18 O :   -0.103873
  19 H :    0.162012
  20 C :   -0.401257
  21 H :    0.104219
  22 H :    0.096665
  23 H :    0.093369

-------------------------------
LOEWDIN REDUCED ORBITAL CHARGES
-------------------------------
  0 O s       :     3.371794  s :     3.371794
      pz      :     1.572783  p :     4.615827
      px      :     1.404745
      py      :     1.638299
      dz2     :     0.025130  d :     0.096030
      dxz     :     0.014937
      dyz     :     0.020623
      dx2y2   :     0.023926
      dxy     :     0.011414
      f0      :     0.001062  f :     0.007105
      f+1     :     0.001162
      f-1     :     0.001244
      f+2     :     0.000981
      f-2     :     0.000981
      f+3     :     0.001130
      f-3     :     0.000546
  1 H s       :     0.645174  s :     0.645174
      pz      :     0.032275  p :     0.189986
      px      :     0.119823
      py      :     0.037888
  2 C s       :     2.864158  s :     2.864158
      pz      :     0.927363  p :     3.021846
      px      :     1.080714
      py      :     1.013770
      dz2     :     0.151067  d :     0.441043
      dxz     :     0.057236
      dyz     :     0.094334
      dx2y2   :     0.097427
      dxy     :     0.040980
      f0      :     0.010193  f :     0.061776
      f+1     :     0.009248
      f-1     :     0.014045
      f+2     :     0.010011
      f-2     :     0.009863
      f+3     :     0.005788
      f-3     :     0.002628
  3 H s       :     0.827346  s :     0.827346
      pz      :     0.010942  p :     0.064151
      px      :     0.040556
      py      :     0.012652
  4 H s       :     0.837375  s :     0.837375
      pz      :     0.032138  p :     0.064363
      px      :     0.016092
      py      :     0.016133
  5 H s       :     0.834525  s :     0.834525
      pz      :     0.010848  p :     0.064315
      px      :     0.016752
      py      :     0.036715
  6 O s       :     3.371107  s :     3.371107
      pz      :     1.489844  p :     4.613832
      px      :     1.683083
      py      :     1.440905
      dz2     :     0.028233  d :     0.095912
      dxz     :     0.019708
      dyz     :     0.018854
      dx2y2   :     0.019422
      dxy     :     0.009694
      f0      :     0.001333  f :     0.007090
      f+1     :     0.001288
      f-1     :     0.001443
      f+2     :     0.000819
      f-2     :     0.000717
      f+3     :     0.000724
      f-3     :     0.000766
  7 H s       :     0.649191  s :     0.649191
      pz      :     0.031454  p :     0.185003
      px      :     0.044192
      py      :     0.109358
  8 C s       :     2.865053  s :     2.865053
      pz      :     0.871259  p :     3.023027
      px      :     1.065622
      py      :     1.086145
      dz2     :     0.135718  d :     0.434559
      dxz     :     0.098612
      dyz     :     0.095973
      dx2y2   :     0.080602
      dxy     :     0.023654
      f0      :     0.015738  f :     0.061210
      f+1     :     0.014926
      f-1     :     0.010113
      f+2     :     0.005712
      f-2     :     0.009128
      f+3     :     0.003611
      f-3     :     0.001981
  9 H s       :     0.825419  s :     0.825419
      pz      :     0.011123  p :     0.064418
      px      :     0.015358
      py      :     0.037937
 10 H s       :     0.834389  s :     0.834389
      pz      :     0.009997  p :     0.064374
      px      :     0.040570
      py      :     0.013808
 11 H s       :     0.833291  s :     0.833291
      pz      :     0.025270  p :     0.064894
      px      :     0.016815
      py      :     0.022809
 12 O s       :     3.376512  s :     3.376512
      pz      :     1.689439  p :     4.609422
      px      :     1.294754
      py      :     1.625229
      dz2     :     0.014020  d :     0.096641
      dxz     :     0.023070
      dyz     :     0.013383
      dx2y2   :     0.026511
      dxy     :     0.019657
      f0      :     0.000813  f :     0.007107
      f+1     :     0.000810
      f-1     :     0.000721
      f+2     :     0.001224
      f-2     :     0.001244
      f+3     :     0.001085
      f-3     :     0.001211
 13 H s       :     0.660842  s :     0.660842
      pz      :     0.051467  p :     0.160614
      px      :     0.066362
      py      :     0.042786
 14 C s       :     2.870955  s :     2.870955
      pz      :     1.057417  p :     3.023397
      px      :     0.967383
      py      :     0.998597
      dz2     :     0.103755  d :     0.409210
      dxz     :     0.069907
      dyz     :     0.044933
      dx2y2   :     0.114986
      dxy     :     0.075629
      f0      :     0.006764  f :     0.058284
      f+1     :     0.006303
      f-1     :     0.005373
      f+2     :     0.007891
      f-2     :     0.012582
      f+3     :     0.010617
      f-3     :     0.008754
 15 H s       :     0.806967  s :     0.806967
      pz      :     0.017271  p :     0.073920
      px      :     0.041785
      py      :     0.014864
 16 H s       :     0.833034  s :     0.833034
      pz      :     0.014793  p :     0.065139
      px      :     0.012590
      py      :     0.037756
 17 H s       :     0.834241  s :     0.834241
      pz      :     0.040558  p :     0.065267
      px      :     0.012408
      py      :     0.012301
 18 O s       :     3.373789  s :     3.373789
      pz      :     1.524272  p :     4.626766
      px      :     1.672091
      py      :     1.430403
      dz2     :     0.027937  d :     0.096136
      dxz     :     0.021082
      dyz     :     0.015964
      dx2y2   :     0.019468
      dxy     :     0.011685
      f0      :     0.001250  f :     0.007181
      f+1     :     0.001327
      f-1     :     0.001320
      f+2     :     0.000847
      f-2     :     0.000884
      f+3     :     0.000641
      f-3     :     0.000912
 19 H s       :     0.652143  s :     0.652143
      pz      :     0.030987  p :     0.185845
      px      :     0.043330
      py      :     0.111528
 20 C s       :     2.863264  s :     2.863264
      pz      :     0.901907  p :     3.023571
      px      :     1.032878
      py      :     1.088785
      dz2     :     0.150173  d :     0.451711
      dxz     :     0.117757
      dyz     :     0.062523
      dx2y2   :     0.068585
      dxy     :     0.052673
      f0      :     0.013454  f :     0.062711
      f+1     :     0.014110
      f-1     :     0.010875
      f+2     :     0.009669
      f-2     :     0.007979
      f+3     :     0.002100
      f-3     :     0.004525
 21 H s       :     0.832301  s :     0.832301
      pz      :     0.010470  p :     0.063480
      px      :     0.014053
      py      :     0.038956
 22 H s       :     0.839538  s :     0.839538
      pz      :     0.010436  p :     0.063797
      px      :     0.033574
      py      :     0.019788
 23 H s       :     0.842881  s :     0.842881
      pz      :     0.028451  p :     0.063750
      px      :     0.020066
      py      :     0.015233


                      *****************************
                      * MAYER POPULATION ANALYSIS *
                      *****************************

  NA   - Mulliken gross atomic population
  ZA   - Total nuclear charge
  QA   - Mulliken gross atomic charge
  VA   - Mayer's total valence
  BVA  - Mayer's bonded valence
  FA   - Mayer's free valence

  ATOM       NA         ZA         QA         VA         BVA        FA
  0 O      8.5588     8.0000    -0.5588     2.1025     1.6983     0.4042
  1 H      0.6368     1.0000     0.3632     0.9160     0.8686     0.0475
  2 C      6.1657     6.0000    -0.1657     3.9990     3.7206     0.2784
  3 H      0.8736     1.0000     0.1264     0.9677     0.9208     0.0469
  4 H      0.8863     1.0000     0.1137     0.9669     0.9183     0.0486
  5 H      0.8843     1.0000     0.1157     0.9689     0.9208     0.0482
  6 O      8.5547     8.0000    -0.5547     2.1127     1.7092     0.4035
  7 H      0.6369     1.0000     0.3631     0.9226     0.8754     0.0471
  8 C      6.1710     6.0000    -0.1710     3.9803     3.7019     0.2783
  9 H      0.8687     1.0000     0.1313     0.9684     0.9217     0.0466
 10 H      0.8851     1.0000     0.1149     0.9711     0.9230     0.0481
 11 H      0.8751     1.0000     0.1249     0.9671     0.9192     0.0479
 12 O      8.5391     8.0000    -0.5391     2.1436     1.7418     0.4018
 13 H      0.6644     1.0000     0.3356     0.8985     0.8486     0.0499
 14 C      6.1885     6.0000    -0.1885     3.8991     3.6235     0.2756
 15 H      0.8218     1.0000     0.1782     1.0016     0.9567     0.0449
 16 H      0.8843     1.0000     0.1157     0.9715     0.9236     0.0479
 17 H      0.8829     1.0000     0.1171     0.9701     0.9221     0.0480
 18 O      8.5388     8.0000    -0.5388     2.1075     1.7063     0.4012
 19 H      0.6481     1.0000     0.3519     0.9278     0.8801     0.0477
 20 C      6.1554     6.0000    -0.1554     4.0263     3.7478     0.2786
 21 H      0.8847     1.0000     0.1153     0.9651     0.9174     0.0477
 22 H      0.8951     1.0000     0.1049     0.9676     0.9185     0.0491
 23 H      0.8998     1.0000     0.1002     0.9650     0.9155     0.0496

  Mayer bond orders larger than 0.100000
B(  0-O ,  1-H ) :   0.7516 B(  0-O ,  2-C ) :   0.8939 B(  0-O , 19-H ) :   0.1014 
B(  1-H ,  6-O ) :   0.1096 B(  2-C ,  3-H ) :   0.9419 B(  2-C ,  4-H ) :   0.9405 
B(  2-C ,  5-H ) :   0.9377 B(  6-O ,  7-H ) :   0.7686 B(  6-O ,  8-C ) :   0.8802 
B(  8-C ,  9-H ) :   0.9414 B(  8-C , 10-H ) :   0.9386 B(  8-C , 11-H ) :   0.9387 
B( 12-O , 13-H ) :   0.8373 B( 12-O , 14-C ) :   0.8472 B( 14-C , 15-H ) :   0.9149 
B( 14-C , 16-H ) :   0.9361 B( 14-C , 17-H ) :   0.9421 B( 18-O , 19-H ) :   0.7723 
B( 18-O , 20-C ) :   0.9255 B( 20-C , 21-H ) :   0.9426 B( 20-C , 22-H ) :   0.9378 
B( 20-C , 23-H ) :   0.9382 


----------------------------------
MP2 DERIVATIVE INTEGRAL GENERATION
----------------------------------


Input Wavefunction Amplitudes       ... 4meoh.boyd.etal.5-orca.engrad-mp2.def2tzvp.mp2tsaa.tmp
Input Correlated Electron Density   ... 4meoh.boyd.etal.5-orca.engrad-mp2.def2tzvp.pmp2re
Input Energy Weighted Density       ... 4meoh.boyd.etal.5-orca.engrad-mp2.def2tzvp.wmp2.tmp
Input SCF Electron Density          ... 4meoh.boyd.etal.5-orca.engrad-mp2.def2tzvp.scfp

One-Electron Terms    ...
                        ... One-Electron Terms done
Prescreening matrices              ... done

Batch handling in the gradient evaluation:
Memory available                      ... 8000.0 MB
Memory per occupied orbital in Q2     ...   25.3 MB
Memory per occupied orbital in Q3     ...    0.1 MB
Total memory requirement per |i>      ...   25.4 MB
Max. Number of orbitals possible      ...    314
Number of orbitals treated per batch  ...     28
Number of batches to be done          ...      1
Batch   0: i=    8 ...    35

---------------------------------------
MP2 TOTAL ENERGY:     -462.070748325 Eh
---------------------------------------

The final MP2 gradient
  0:   0.00454558  -0.00130663   0.00096411
  1:  -0.00396855   0.00155924   0.00067500
  2:  -0.00108395   0.00338465   0.00342596
  3:   0.00333473  -0.00039723  -0.00035183
  4:  -0.00080652   0.00067122  -0.00428785
  5:  -0.00116930  -0.00389976  -0.00022861
  6:  -0.00056362  -0.00477404  -0.00015456
  7:  -0.00010294   0.00412717  -0.00169387
  8:   0.00236484   0.00116145  -0.00350805
  9:   0.00068833  -0.00306277   0.00086212
 10:  -0.00404770   0.00004397   0.00059287
 11:   0.00074360   0.00175625   0.00361733
 12:   0.00307407  -0.00033617   0.00303107
 13:  -0.00417300  -0.00016658  -0.00173778
 14:  -0.00199284  -0.00240875   0.00125691
 15:   0.00375993  -0.00136530   0.00136058
 16:  -0.00037424   0.00391080   0.00074496
 17:   0.00057895   0.00030129  -0.00411250
 18:   0.00109569   0.00509043  -0.00039703
 19:  -0.00178502  -0.00424213  -0.00106417
 20:  -0.00361876  -0.00108881  -0.00513930
 21:   0.00086596   0.00345365   0.00056897
 22:   0.00399713  -0.00178490   0.00109700
 23:  -0.00136237  -0.00062704   0.00447868

-----------------------------------
NORM OF THE MP2 GRADIENT:  0.021630
-----------------------------------

-------------------------   --------------------
FINAL SINGLE POINT ENERGY      -462.070748325342
-------------------------   --------------------


                            ***************************************
                            *     ORCA property calculations      *
                            ***************************************

                                    ---------------------
                                    Active property flags
                                    ---------------------
   (+) Dipole Moment


------------------------------------------------------------------------------
                       ORCA ELECTRIC PROPERTIES CALCULATION
------------------------------------------------------------------------------

Dipole Moment Calculation                       ... on
Quadrupole Moment Calculation                   ... off
Polarizability Calculation                      ... off
GBWName                                         ... 4meoh.boyd.etal.5-orca.engrad-mp2.def2tzvp.gbw
Electron density file                           ... 4meoh.boyd.etal.5-orca.engrad-mp2.def2tzvp.scfp
The origin for moment calculation is the CENTER OF MASS  = (-0.011627, -0.001842 -0.013075)

-------------
DIPOLE MOMENT
-------------
                                X             Y             Z
Electronic contribution:     -1.93075       0.08643      -1.06152
Nuclear contribution   :      0.83714       0.13259       0.94139
                        -----------------------------------------
Total Dipole Moment    :     -1.09362       0.21902      -0.12013
                        -----------------------------------------
Magnitude (a.u.)       :      1.12179
Magnitude (Debye)      :      2.85135



--------------------
Rotational spectrum 
--------------------
 
Rotational constants in cm-1:     0.037531     0.032102     0.021433 
Rotational constants in MHz :  1125.139224   962.404768   642.547417 

 Dipole components along the rotational axes: 
x,y,z [a.u.] :    -1.094770     0.213932    -0.118797 
x,y,z [Debye]:    -2.782685     0.543773    -0.301959 

 

                         *** MP2 UNRELAXED DENSITY ***

------------------------------------------------------------------------------
                       ORCA ELECTRIC PROPERTIES CALCULATION
------------------------------------------------------------------------------

Dipole Moment Calculation                       ... on
Quadrupole Moment Calculation                   ... off
Polarizability Calculation                      ... off
GBWName                                         ... 4meoh.boyd.etal.5-orca.engrad-mp2.def2tzvp.gbw
Electron density file                           ... 4meoh.boyd.etal.5-orca.engrad-mp2.def2tzvp.pmp2ur
The origin for moment calculation is the CENTER OF MASS  = (-0.011627, -0.001842 -0.013075)

-------------
DIPOLE MOMENT
-------------
                                X             Y             Z
Electronic contribution:     -1.92909       0.08422      -1.06428
Nuclear contribution   :      0.83714       0.13259       0.94139
                        -----------------------------------------
Total Dipole Moment    :     -1.09196       0.21681      -0.12289
                        -----------------------------------------
Magnitude (a.u.)       :      1.12004
Magnitude (Debye)      :      2.84691



--------------------
Rotational spectrum 
--------------------
 
Rotational constants in cm-1:     0.037531     0.032102     0.021433 
Rotational constants in MHz :  1125.139224   962.404768   642.547417 

 Dipole components along the rotational axes: 
x,y,z [a.u.] :    -1.093102     0.211739    -0.121562 
x,y,z [Debye]:    -2.778445     0.538198    -0.308985 

 

                           *** MP2 RELAXED DENSITY ***

------------------------------------------------------------------------------
                       ORCA ELECTRIC PROPERTIES CALCULATION
------------------------------------------------------------------------------

Dipole Moment Calculation                       ... on
Quadrupole Moment Calculation                   ... off
Polarizability Calculation                      ... off
GBWName                                         ... 4meoh.boyd.etal.5-orca.engrad-mp2.def2tzvp.gbw
Electron density file                           ... 4meoh.boyd.etal.5-orca.engrad-mp2.def2tzvp.pmp2re
The origin for moment calculation is the CENTER OF MASS  = (-0.011627, -0.001842 -0.013075)

-------------
DIPOLE MOMENT
-------------
                                X             Y             Z
Electronic contribution:     -1.94440       0.07659      -1.06333
Nuclear contribution   :      0.83714       0.13259       0.94139
                        -----------------------------------------
Total Dipole Moment    :     -1.10726       0.20918      -0.12194
                        -----------------------------------------
Magnitude (a.u.)       :      1.13343
Magnitude (Debye)      :      2.88094



--------------------
Rotational spectrum 
--------------------
 
Rotational constants in cm-1:     0.037531     0.032102     0.021433 
Rotational constants in MHz :  1125.139224   962.404768   642.547417 

 Dipole components along the rotational axes: 
x,y,z [a.u.] :    -1.108365     0.204033    -0.120628 
x,y,z [Debye]:    -2.817241     0.518611    -0.306612 

 

Timings for individual modules:

Sum of individual times         ...      257.116 sec (=   4.285 min)
GTO integral calculation        ...        3.242 sec (=   0.054 min)   1.3 %
SCF iterations                  ...       42.074 sec (=   0.701 min)  16.4 %
MP2 module                      ...      211.800 sec (=   3.530 min)  82.4 %
                             ****ORCA TERMINATED NORMALLY****
TOTAL RUN TIME: 0 days 0 hours 4 minutes 20 seconds 99 msec
