
                                 *****************
                                 * O   R   C   A *
                                 *****************

           --- An Ab Initio, DFT and Semiempirical electronic structure package ---

                  #######################################################
                  #                        -***-                        #
                  #          Department of theory and spectroscopy      #
                  #               Directorship: Frank Neese             #
                  #        Max Planck Institute fuer Kohlenforschung    #
                  #                Kaiser Wilhelm Platz 1               #
                  #                 D-45470 Muelheim/Ruhr               #
                  #                      Germany                        #
                  #                                                     #
                  #                  All rights reserved                #
                  #                        -***-                        #
                  #######################################################


                         Program Version 4.2.0 -  RELEASE  -


 With contributions from (in alphabetic order):
   Daniel Aravena         : Magnetic Suceptibility
   Michael Atanasov       : Ab Initio Ligand Field Theory (pilot matlab implementation)
   Alexander A. Auer      : GIAO ZORA, VPT2
   Ute Becker             : Parallelization
   Giovanni Bistoni       : ED, misc. LED, open-shell LED, HFLED
   Martin Brehm           : Molecular dynamics
   Dmytro Bykov           : SCF Hessian
   Vijay G. Chilkuri      : MRCI spin determinant printing, contributions to CSF-ICE
   Dipayan Datta          : RHF DLPNO-CCSD density
   Achintya Kumar Dutta   : EOM-CC, STEOM-CC
   Dmitry Ganyushin       : Spin-Orbit,Spin-Spin,Magnetic field MRCI
   Miquel Garcia          : C-PCM Hessian, Gaussian charge scheme
   Yang Guo               : DLPNO-NEVPT2, CIM, IAO-localization
   Andreas Hansen         : Spin unrestricted coupled pair/coupled cluster methods
   Benjamin Helmich-Paris : CASSCF linear response (MC-RPA)
   Lee Huntington         : MR-EOM, pCC
   Robert Izsak           : Overlap fitted RIJCOSX, COSX-SCS-MP3, EOM
   Christian Kollmar      : KDIIS, OOCD, Brueckner-CCSD(T), CCSD density
   Simone Kossmann        : Meta GGA functionals, TD-DFT gradient, OOMP2, MP2 Hessian
   Martin Krupicka        : AUTO-CI
   Lucas Lang             : DCDCAS
   Dagmar Lenk            : GEPOL surface, SMD
   Dimitrios Liakos       : Extrapolation schemes; Compound Job, initial MDCI parallelization
   Dimitrios Manganas     : Further ROCIS development; embedding schemes
   Dimitrios Pantazis     : SARC Basis sets
   Taras Petrenko         : DFT Hessian,TD-DFT gradient, ASA, ECA, R-Raman, ABS, FL, XAS/XES, NRVS
   Peter Pinski           : DLPNO-MP2, DLPNO-MP2 Gradient
   Christoph Reimann      : Effective Core Potentials
   Marius Retegan         : Local ZFS, SOC
   Christoph Riplinger    : Optimizer, TS searches, QM/MM, DLPNO-CCSD(T), (RO)-DLPNO pert. Triples
   Tobias Risthaus        : Range-separated hybrids, TD-DFT gradient, RPA, STAB
   Michael Roemelt        : Original ROCIS implementation
   Masaaki Saitow         : Open-shell DLPNO-CCSD energy and density
   Barbara Sandhoefer     : DKH picture change effects
   Avijit Sen             : IP-ROCIS
   Kantharuban Sivalingam : CASSCF convergence, NEVPT2, FIC-MRCI
   Bernardo de Souza      : ESD, SOC TD-DFT
   Georgi Stoychev        : AutoAux, RI-MP2 NMR
   Willem Van den Heuvel  : Paramagnetic NMR
   Boris Wezisla          : Elementary symmetry handling
   Frank Wennmohs         : Technical directorship


 We gratefully acknowledge several colleagues who have allowed us to
 interface, adapt or use parts of their codes:
   Stefan Grimme, W. Hujo, H. Kruse,             : VdW corrections, initial TS optimization,
                  C. Bannwarth                     DFT functionals, gCP, sTDA/sTD-DF
   Ed Valeev, F. Pavosevic, A. Kumar             : LibInt (2-el integral package), F12 methods
   Garnet Chan, S. Sharma, J. Yang, R. Olivares  : DMRG
   Ulf Ekstrom                                   : XCFun DFT Library
   Mihaly Kallay                                 : mrcc  (arbitrary order and MRCC methods)
   Andreas Klamt, Michael Diedenhofen            : otool_cosmo (COSMO solvation model)
   Jiri Pittner, Ondrej Demel                    : Mk-CCSD
   Frank Weinhold                                : gennbo (NPA and NBO analysis)
   Christopher J. Cramer and Donald G. Truhlar   : smd solvation model
   Lars Goerigk                                  : TD-DFT with DH, B97 family of functionals
   V. Asgeirsson, H. Jonsson                     : NEB implementation
   FAccTs GmbH                                   : IRC, NEB, NEB-TS, Multilevel, MM, QM/MM, CI optimization
   S Lehtola, MJT Oliveira, MAL Marques          : LibXC Library


 Your calculation uses the libint2 library for the computation of 2-el integrals
 For citations please refer to: http://libint.valeyev.net

 Your ORCA version has been built with support for libXC version: 4.2.3
 For citations please refer to: https://tddft.org/programs/libxc/

 This ORCA versions uses:
   CBLAS   interface :  Fast vector & matrix operations
   LAPACKE interface :  Fast linear algebra routines
   SCALAPACK package :  Parallel linear algebra routines


----- Orbital basis set information -----
Your calculation utilizes the basis: def2-TZVP
   F. Weigend and R. Ahlrichs, Phys. Chem. Chem. Phys. 7, 3297 (2005).

================================================================================
                                        WARNINGS
                       Please study these warnings very carefully!
================================================================================


WARNING: The frozen-core approximation for MP2-gradient calculations is turned on by default.

INFO   : the flag for use of LIBINT has been found!

================================================================================
                                       INPUT FILE
================================================================================
NAME = 12h2o.su.etal.mol2,5,6,7,9,10-orca.engrad-mp2.def2tzvp.frozencore.inp
|  1> # 12h2o.su.etal.mol2,5,6,7,9,10
|  2> ! MP2 def2-TZVP EnGrad TightSCF
|  3> 
|  4> %pal
|  5>     nprocs 6
|  6> end
|  7> 
|  8> %maxcore 8000
|  9> 
| 10> %scf
| 11>     ConvForced true
| 12> end
| 13> 
| 14> *xyz 0 1
| 15> O   0.923410000  -1.794470000  -2.768350000
| 16> H   1.359750000  -2.338250000  -3.430940000
| 17> H   1.303000000  -0.879480000  -2.865760000
| 18> O   0.885520000  -1.737840000   0.052730000
| 19> H   1.284090000  -0.839590000   0.017130000
| 20> H   1.032320000  -2.090180000  -0.841890000
| 21> O   1.737840000   0.885520000  -0.052730000
| 22> H   2.090180000   1.032320000   0.841890000
| 23> H   0.839590000   1.284090000  -0.017130000
| 24> O  -1.737840000  -0.885520000  -0.052730000
| 25> H  -2.090180000  -1.032320000   0.841890000
| 26> H  -0.839590000  -1.284090000  -0.017130000
| 27> O   0.741530000  -1.752130000   2.896280000
| 28> H   0.920500000  -2.036450000   1.984040000
| 29> H   1.242140000  -0.921210000   2.984230000
| 30> O  -0.923410000   1.794470000  -2.768350000
| 31> H  -1.359750000   2.338250000  -3.430940000
| 32> H  -1.303000000   0.879480000  -2.865760000
| 33> *
| 34> 
| 35>                          ****END OF INPUT****
================================================================================

                     *******************************
                     * Energy+Gradient Calculation *
                     *******************************

---------------------------------
CARTESIAN COORDINATES (ANGSTROEM)
---------------------------------
  O      0.923410   -1.794470   -2.768350
  H      1.359750   -2.338250   -3.430940
  H      1.303000   -0.879480   -2.865760
  O      0.885520   -1.737840    0.052730
  H      1.284090   -0.839590    0.017130
  H      1.032320   -2.090180   -0.841890
  O      1.737840    0.885520   -0.052730
  H      2.090180    1.032320    0.841890
  H      0.839590    1.284090   -0.017130
  O     -1.737840   -0.885520   -0.052730
  H     -2.090180   -1.032320    0.841890
  H     -0.839590   -1.284090   -0.017130
  O      0.741530   -1.752130    2.896280
  H      0.920500   -2.036450    1.984040
  H      1.242140   -0.921210    2.984230
  O     -0.923410    1.794470   -2.768350
  H     -1.359750    2.338250   -3.430940
  H     -1.303000    0.879480   -2.865760

----------------------------
CARTESIAN COORDINATES (A.U.)
----------------------------
  NO LB      ZA    FRAG     MASS         X           Y           Z
   0 O     8.0000    0    15.999    1.744992   -3.391057   -5.231423
   1 H     1.0000    0     1.008    2.569555   -4.418652   -6.483537
   2 H     1.0000    0     1.008    2.462313   -1.661976   -5.415502
   3 O     8.0000    0    15.999    1.673390   -3.284042    0.099645
   4 H     1.0000    0     1.008    2.426578   -1.586595    0.032371
   5 H     1.0000    0     1.008    1.950802   -3.949868   -1.590942
   6 O     8.0000    0    15.999    3.284042    1.673390   -0.099645
   7 H     1.0000    0     1.008    3.949868    1.950802    1.590942
   8 H     1.0000    0     1.008    1.586595    2.426578   -0.032371
   9 O     8.0000    0    15.999   -3.284042   -1.673390   -0.099645
  10 H     1.0000    0     1.008   -3.949868   -1.950802    1.590942
  11 H     1.0000    0     1.008   -1.586595   -2.426578   -0.032371
  12 O     8.0000    0    15.999    1.401289   -3.311046    5.473176
  13 H     1.0000    0     1.008    1.739493   -3.848333    3.749292
  14 H     1.0000    0     1.008    2.347304   -1.740835    5.639377
  15 O     8.0000    0    15.999   -1.744992    3.391057   -5.231423
  16 H     1.0000    0     1.008   -2.569555    4.418652   -6.483537
  17 H     1.0000    0     1.008   -2.462313    1.661976   -5.415502

--------------------------------
INTERNAL COORDINATES (ANGSTROEM)
--------------------------------
 O      0   0   0     0.000000000000     0.00000000     0.00000000
 H      1   0   0     0.961828878803     0.00000000     0.00000000
 H      1   2   0     0.995381322057   106.21731035     0.00000000
 O      1   2   3     2.821902722526   134.92023192   245.52250503
 H      4   1   2     0.983350632989    88.66470709   117.24500673
 H      4   1   2     0.972645187106    21.75017499   343.08822912
 O      5   4   1     1.785153773264   170.81379649    89.95043540
 H      7   5   4     0.972645187106   101.65007623   109.44492584
 H      7   5   4     0.983350632989    99.09581498     3.33484705
 O      4   1   2     2.760360281485    88.89773968   213.11455730
 H     10   4   1     0.972645187106   105.22009255   163.79109705
 H     10   4   1     0.983350632989     5.92595386    88.14524976
 O      4   1   2     2.847229166523   177.43098014   265.14132070
 H     13   4   6     0.972136791249    19.08819947     8.79504813
 H     13   4   6     0.974050112161    93.43428486   132.89132802
 O      9   7   5     3.307244809929   121.29016850   272.43949443
 H     16   9   7     0.961828878803   154.44172724   245.98243842
 H     16   9   7     0.995381322057    98.21214728    83.07585586

---------------------------
INTERNAL COORDINATES (A.U.)
---------------------------
 O      0   0   0     0.000000000000     0.00000000     0.00000000
 H      1   0   0     1.817593168635     0.00000000     0.00000000
 H      1   2   0     1.880998097508   106.21731035     0.00000000
 O      1   2   3     5.332623322141   134.92023192   245.52250503
 H      4   1   2     1.858263389967    88.66470709   117.24500673
 H      4   1   2     1.838033029106    21.75017499   343.08822912
 O      5   4   1     3.373451738406   170.81379649    89.95043540
 H      7   5   4     1.838033029106   101.65007623   109.44492584
 H      7   5   4     1.858263389967    99.09581498     3.33484705
 O      4   1   2     5.216324962960    88.89773968   213.11455730
 H     10   4   1     1.838033029106   105.22009255   163.79109705
 H     10   4   1     1.858263389967     5.92595386    88.14524976
 O      4   1   2     5.380483365242   177.43098014   265.14132070
 H     13   4   6     1.837072300170    19.08819947     8.79504813
 H     13   4   6     1.840687952699    93.43428486   132.89132802
 O      9   7   5     6.249786948598   121.29016850   272.43949443
 H     16   9   7     1.817593168635   154.44172724   245.98243842
 H     16   9   7     1.880998097508    98.21214728    83.07585586

---------------------
BASIS SET INFORMATION
---------------------
There are 2 groups of distinct atoms

 Group   1 Type O   : 11s6p2d1f contracted to 5s3p2d1f pattern {62111/411/11/1}
 Group   2 Type H   : 5s1p contracted to 3s1p pattern {311/1}

Atom   0O    basis set group =>   1
Atom   1H    basis set group =>   2
Atom   2H    basis set group =>   2
Atom   3O    basis set group =>   1
Atom   4H    basis set group =>   2
Atom   5H    basis set group =>   2
Atom   6O    basis set group =>   1
Atom   7H    basis set group =>   2
Atom   8H    basis set group =>   2
Atom   9O    basis set group =>   1
Atom  10H    basis set group =>   2
Atom  11H    basis set group =>   2
Atom  12O    basis set group =>   1
Atom  13H    basis set group =>   2
Atom  14H    basis set group =>   2
Atom  15O    basis set group =>   1
Atom  16H    basis set group =>   2
Atom  17H    basis set group =>   2


           ************************************************************
           *        Program running with 6 parallel MPI-processes     *
           *              working on a common directory               *
           ************************************************************
------------------------------------------------------------------------------
                           ORCA GTO INTEGRAL CALCULATION
------------------------------------------------------------------------------

                         BASIS SET STATISTICS AND STARTUP INFO

 # of primitive gaussian shells          ...  192
 # of primitive gaussian functions       ...  372
 # of contracted shells                  ...  114
 # of contracted basis functions         ...  258
 Highest angular momentum                ...    3
 Maximum contraction depth               ...    6
 Integral package used                   ... LIBINT
 Integral threshhold            Thresh   ...  2.500e-11
 Primitive cut-off              TCut     ...  2.500e-12


------------------------------ INTEGRAL EVALUATION ----------------------------


 * One electron integrals 
 Pre-screening matrix                    ... done
 Shell pair data                         ... done (   0.001 sec)



           ************************************************************
           *        Program running with 6 parallel MPI-processes     *
           *              working on a common directory               *
           ************************************************************
-------------------------------------------------------------------------------
                                 ORCA SCF
-------------------------------------------------------------------------------

------------
SCF SETTINGS
------------
Hamiltonian:
 Ab initio Hamiltonian  Method          .... Hartree-Fock(GTOs)


General Settings:
 Integral files         IntName         .... 12h2o.su.etal.mol2,5,6,7,9,10-orca.engrad-mp2.def2tzvp.frozencore
 Hartree-Fock type      HFTyp           .... RHF
 Total Charge           Charge          ....    0
 Multiplicity           Mult            ....    1
 Number of Electrons    NEL             ....   60
 Basis Dimension        Dim             ....  258
 Nuclear Repulsion      ENuc            ....    265.5606485376 Eh

Convergence Acceleration:
 DIIS                   CNVDIIS         .... on
   Start iteration      DIISMaxIt       ....    12
   Startup error        DIISStart       ....  0.200000
   # of expansion vecs  DIISMaxEq       ....     5
   Bias factor          DIISBfac        ....   1.050
   Max. coefficient     DIISMaxC        ....  10.000
 Newton-Raphson         CNVNR           .... off
 SOSCF                  CNVSOSCF        .... on
   Start iteration      SOSCFMaxIt      ....   150
   Startup grad/error   SOSCFStart      ....  0.003300
 Level Shifting         CNVShift        .... on
   Level shift para.    LevelShift      ....    0.2500
   Turn off err/grad.   ShiftErr        ....    0.0010
 Zerner damping         CNVZerner       .... off
 Static damping         CNVDamp         .... on
   Fraction old density DampFac         ....    0.7000
   Max. Damping (<1)    DampMax         ....    0.9800
   Min. Damping (>=0)   DampMin         ....    0.0000
   Turn off err/grad.   DampErr         ....    0.1000
 Fernandez-Rico         CNVRico         .... off

SCF Procedure:
 Maximum # iterations   MaxIter         ....   125
 SCF integral mode      SCFMode         .... Direct
   Integral package                     .... LIBINT
 Reset frequency        DirectResetFreq ....    20
 Integral Threshold     Thresh          ....  2.500e-11 Eh
 Primitive CutOff       TCut            ....  2.500e-12 Eh

Convergence Tolerance:
 Convergence Check Mode ConvCheckMode   .... Total+1el-Energy
 Convergence forced     ConvForced      .... 1
 Energy Change          TolE            ....  1.000e-08 Eh
 1-El. energy change                    ....  1.000e-05 Eh
 Orbital Gradient       TolG            ....  1.000e-05
 Orbital Rotation angle TolX            ....  1.000e-05
 DIIS Error             TolErr          ....  5.000e-07


Diagonalization of the overlap matrix:
Smallest eigenvalue                        ... 3.450e-03
Time for diagonalization                   ...    0.010 sec
Threshold for overlap eigenvalues          ... 1.000e-08
Number of eigenvalues below threshold      ... 0
Time for construction of square roots      ...    0.005 sec
Total time needed                          ...    0.015 sec

-------------------
DFT GRID GENERATION
-------------------

General Integration Accuracy     IntAcc      ...  4.340
Radial Grid Type                 RadialGrid  ... Gauss-Chebyshev
Angular Grid (max. acc.)         AngularGrid ... Lebedev-110
Angular grid pruning method      GridPruning ... 3 (G Style)
Weight generation scheme         WeightScheme... Becke
Basis function cutoff            BFCut       ...    1.0000e-11
Integration weight cutoff        WCut        ...    1.0000e-14
Grids for H and He will be reduced by one unit

# of grid points (after initial pruning)     ...  19824 (   0.0 sec)
# of grid points (after weights+screening)   ...  18757 (   0.0 sec)
nearest neighbour list constructed           ...    0.0 sec
Grid point re-assignment to atoms done       ...    0.0 sec
Grid point division into batches done        ...    0.0 sec
Reduced shell lists constructed in    0.0 sec

Total number of grid points                  ...    18757
Total number of batches                      ...      303
Average number of points per batch           ...       61
Average number of grid points per atom       ...     1042
Average number of shells per batch           ...    55.79 (48.94%)
Average number of basis functions per batch  ...   110.67 (42.90%)
Average number of large shells per batch     ...    39.25 (70.36%)
Average number of large basis fcns per batch ...    76.44 (69.07%)
Maximum spatial batch extension              ...  21.02, 14.53, 12.98 au
Average spatial batch extension              ...   0.75,  0.60,  0.63 au

Time for grid setup =    0.056 sec

------------------------------
INITIAL GUESS: MODEL POTENTIAL
------------------------------
Loading Hartree-Fock densities                     ... done
Calculating cut-offs                               ... done
Setting up the integral package                    ... done
Initializing the effective Hamiltonian             ... done
Starting the Coulomb interaction                   ... done (   0.0 sec)
Reading the grid                                   ... done
Mapping shells                                     ... done
Starting the XC term evaluation                    ... done (   0.0 sec)
Transforming the Hamiltonian                       ... done (   0.0 sec)
Diagonalizing the Hamiltonian                      ... done (   0.0 sec)
Back transforming the eigenvectors                 ... done (   0.0 sec)
Now organizing SCF variables                       ... done
                      ------------------
                      INITIAL GUESS DONE (   0.2 sec)
                      ------------------
--------------
SCF ITERATIONS
--------------
ITER       Energy         Delta-E        Max-DP      RMS-DP      [F,P]     Damp
               ***  Starting incremental Fock matrix formation  ***
  0   -455.8207390062   0.000000000000 0.04363317  0.00097728  0.3500736 0.7000
  1   -456.0368617441  -0.216122737851 0.02890707  0.00067429  0.2166669 0.7000
                               ***Turning on DIIS***
  2   -456.1505316998  -0.113669955690 0.01658376  0.00037308  0.1637698 0.7000
  3   -457.1697514199  -1.019219720078 0.00746634  0.00016742  0.1218234 0.7000
  4   -456.9620371879   0.207714231989 0.01672341  0.00038716  0.0861717 0.0000
  5   -456.4123381129   0.549699074928 0.00235233  0.00006332  0.0054846 0.0000
                      *** Initiating the SOSCF procedure ***
                           *** Shutting down DIIS ***
                      *** Re-Reading the Fockian *** 
                      *** Removing any level shift *** 
ITER      Energy       Delta-E        Grad      Rot      Max-DP    RMS-DP
  6   -456.37911034   0.0332277734  0.000836  0.000836  0.001553  0.000038
               *** Restarting incremental Fock matrix formation ***
  7   -456.36913056   0.0099797816  0.000331  0.000454  0.000726  0.000017
  8   -456.36913975  -0.0000091909  0.000167  0.000362  0.000623  0.000014
  9   -456.36914201  -0.0000022645  0.000055  0.000046  0.000135  0.000003
 10   -456.36914219  -0.0000001813  0.000006  0.000006  0.000019  0.000000
 11   -456.36914220  -0.0000000038  0.000003  0.000003  0.000007  0.000000
                  ***Gradient check signals convergence***
              ***Rediagonalizing the Fockian in SOSCF/NRSCF***

               *****************************************************
               *                     SUCCESS                       *
               *           SCF CONVERGED AFTER  12 CYCLES          *
               *****************************************************


----------------
TOTAL SCF ENERGY
----------------

Total Energy       :         -456.36914220 Eh          -12418.43570 eV

Components:
Nuclear Repulsion  :          265.56064854 Eh            7226.27262 eV
Electronic Energy  :         -721.92979074 Eh          -19644.70832 eV
One Electron Energy:        -1159.49727081 Eh          -31551.52479 eV
Two Electron Energy:          437.56748008 Eh           11906.81646 eV

Virial components:
Potential Energy   :         -912.05472873 Eh          -24818.27091 eV
Kinetic Energy     :          455.68558653 Eh           12399.83520 eV
Virial Ratio       :            2.00150006


---------------
SCF CONVERGENCE
---------------

  Last Energy change         ...   -5.7344e-10  Tolerance :   1.0000e-08
  Last MAX-Density change    ...    1.9658e-06  Tolerance :   1.0000e-07
  Last RMS-Density change    ...    4.4868e-08  Tolerance :   5.0000e-09
  Last Orbital Gradient      ...    1.2235e-06  Tolerance :   1.0000e-05
  Last Orbital Rotation      ...    9.3029e-07  Tolerance :   1.0000e-05

             **** THE GBW FILE WAS UPDATED (12h2o.su.etal.mol2,5,6,7,9,10-orca.engrad-mp2.def2tzvp.frozencore.gbw) ****
             **** DENSITY FILE WAS UPDATED (12h2o.su.etal.mol2,5,6,7,9,10-orca.engrad-mp2.def2tzvp.frozencore.scfp) ****
             **** ENERGY FILE WAS UPDATED (12h2o.su.etal.mol2,5,6,7,9,10-orca.engrad-mp2.def2tzvp.frozencore.en.tmp) ****
             **** THE GBW FILE WAS UPDATED (12h2o.su.etal.mol2,5,6,7,9,10-orca.engrad-mp2.def2tzvp.frozencore.gbw) ****
             **** DENSITY FILE WAS UPDATED (12h2o.su.etal.mol2,5,6,7,9,10-orca.engrad-mp2.def2tzvp.frozencore.scfp) ****
----------------
ORBITAL ENERGIES
----------------

  NO   OCC          E(Eh)            E(eV) 
   0   2.0000     -20.601536      -560.5963 
   1   2.0000     -20.591658      -560.3275 
   2   2.0000     -20.561328      -559.5022 
   3   2.0000     -20.552561      -559.2636 
   4   2.0000     -20.536017      -558.8134 
   5   2.0000     -20.516357      -558.2785 
   6   2.0000      -1.382942       -37.6318 
   7   2.0000      -1.369911       -37.2772 
   8   2.0000      -1.343439       -36.5568 
   9   2.0000      -1.336676       -36.3728 
  10   2.0000      -1.317284       -35.8451 
  11   2.0000      -1.296955       -35.2919 
  12   2.0000      -0.739535       -20.1238 
  13   2.0000      -0.736409       -20.0387 
  14   2.0000      -0.718102       -19.5406 
  15   2.0000      -0.704647       -19.1744 
  16   2.0000      -0.686634       -18.6843 
  17   2.0000      -0.671507       -18.2726 
  18   2.0000      -0.630077       -17.1453 
  19   2.0000      -0.610358       -16.6087 
  20   2.0000      -0.588678       -16.0187 
  21   2.0000      -0.574204       -15.6249 
  22   2.0000      -0.557984       -15.1835 
  23   2.0000      -0.548953       -14.9378 
  24   2.0000      -0.536278       -14.5929 
  25   2.0000      -0.525024       -14.2866 
  26   2.0000      -0.504829       -13.7371 
  27   2.0000      -0.494210       -13.4481 
  28   2.0000      -0.482180       -13.1208 
  29   2.0000      -0.464842       -12.6490 
  30   0.0000       0.089561         2.4371 
  31   0.0000       0.114226         3.1083 
  32   0.0000       0.137947         3.7537 
  33   0.0000       0.174211         4.7405 
  34   0.0000       0.179095         4.8734 
  35   0.0000       0.199548         5.4300 
  36   0.0000       0.219546         5.9742 
  37   0.0000       0.227616         6.1937 
  38   0.0000       0.232151         6.3171 
  39   0.0000       0.296317         8.0632 
  40   0.0000       0.328943         8.9510 
  41   0.0000       0.343084         9.3358 
  42   0.0000       0.444840        12.1047 
  43   0.0000       0.471770        12.8375 
  44   0.0000       0.505566        13.7572 
  45   0.0000       0.517704        14.0874 
  46   0.0000       0.532954        14.5024 
  47   0.0000       0.536146        14.5893 
  48   0.0000       0.546139        14.8612 
  49   0.0000       0.562198        15.2982 
  50   0.0000       0.570363        15.5204 
  51   0.0000       0.575588        15.6626 
  52   0.0000       0.584869        15.9151 
  53   0.0000       0.602422        16.3927 
  54   0.0000       0.614408        16.7189 
  55   0.0000       0.625757        17.0277 
  56   0.0000       0.630231        17.1495 
  57   0.0000       0.635903        17.3038 
  58   0.0000       0.658403        17.9161 
  59   0.0000       0.661825        18.0092 
  60   0.0000       0.700663        19.0660 
  61   0.0000       0.704767        19.1777 
  62   0.0000       0.724871        19.7247 
  63   0.0000       0.748925        20.3793 
  64   0.0000       0.756863        20.5953 
  65   0.0000       0.771019        20.9805 
  66   0.0000       0.775354        21.0985 
  67   0.0000       0.798791        21.7362 
  68   0.0000       0.806107        21.9353 
  69   0.0000       0.814534        22.1646 
  70   0.0000       0.830711        22.6048 
  71   0.0000       0.840339        22.8668 
  72   0.0000       0.863355        23.4931 
  73   0.0000       0.919689        25.0260 
  74   0.0000       0.983742        26.7690 
  75   0.0000       1.006317        27.3833 
  76   0.0000       1.067042        29.0357 
  77   0.0000       1.122734        30.5512 
  78   0.0000       1.356163        36.9031 
  79   0.0000       1.374842        37.4114 
  80   0.0000       1.406774        38.2803 
  81   0.0000       1.417635        38.5758 
  82   0.0000       1.427291        38.8386 
  83   0.0000       1.433058        38.9955 
  84   0.0000       1.437489        39.1161 
  85   0.0000       1.440782        39.2057 
  86   0.0000       1.470728        40.0205 
  87   0.0000       1.472101        40.0579 
  88   0.0000       1.505687        40.9718 
  89   0.0000       1.516404        41.2634 
  90   0.0000       1.554297        42.2946 
  91   0.0000       1.557281        42.3758 
  92   0.0000       1.571423        42.7606 
  93   0.0000       1.596831        43.4520 
  94   0.0000       1.618851        44.0512 
  95   0.0000       1.641191        44.6591 
  96   0.0000       1.791496        48.7491 
  97   0.0000       1.805859        49.1399 
  98   0.0000       1.828791        49.7639 
  99   0.0000       1.847382        50.2698 
 100   0.0000       1.853953        50.4486 
 101   0.0000       1.867736        50.8237 
 102   0.0000       1.893404        51.5221 
 103   0.0000       1.908775        51.9404 
 104   0.0000       1.970505        53.6202 
 105   0.0000       1.975085        53.7448 
 106   0.0000       1.995094        54.2893 
 107   0.0000       2.002392        54.4879 
 108   0.0000       2.017019        54.8859 
 109   0.0000       2.019604        54.9562 
 110   0.0000       2.084416        56.7198 
 111   0.0000       2.109978        57.4154 
 112   0.0000       2.150378        58.5147 
 113   0.0000       2.205614        60.0178 
 114   0.0000       2.258867        61.4669 
 115   0.0000       2.265355        61.6434 
 116   0.0000       2.305601        62.7386 
 117   0.0000       2.310422        62.8698 
 118   0.0000       2.320789        63.1519 
 119   0.0000       2.330528        63.4169 
 120   0.0000       2.342381        63.7394 
 121   0.0000       2.352432        64.0129 
 122   0.0000       2.366767        64.4030 
 123   0.0000       2.378936        64.7342 
 124   0.0000       2.391563        65.0777 
 125   0.0000       2.396940        65.2241 
 126   0.0000       2.401742        65.3547 
 127   0.0000       2.428455        66.0816 
 128   0.0000       2.445602        66.5482 
 129   0.0000       2.480696        67.5032 
 130   0.0000       2.534478        68.9666 
 131   0.0000       2.569772        69.9271 
 132   0.0000       2.593784        70.5805 
 133   0.0000       2.607030        70.9409 
 134   0.0000       2.617902        71.2367 
 135   0.0000       2.642060        71.8941 
 136   0.0000       2.650459        72.1227 
 137   0.0000       2.654775        72.2401 
 138   0.0000       2.667375        72.5830 
 139   0.0000       2.706776        73.6551 
 140   0.0000       2.713876        73.8483 
 141   0.0000       2.723302        74.1048 
 142   0.0000       2.773855        75.4804 
 143   0.0000       2.789349        75.9020 
 144   0.0000       2.881618        78.4128 
 145   0.0000       2.914925        79.3191 
 146   0.0000       2.922278        79.5192 
 147   0.0000       2.933349        79.8205 
 148   0.0000       2.940069        80.0033 
 149   0.0000       2.971686        80.8637 
 150   0.0000       2.989076        81.3369 
 151   0.0000       2.998037        81.5807 
 152   0.0000       3.007894        81.8490 
 153   0.0000       3.023156        82.2642 
 154   0.0000       3.045927        82.8839 
 155   0.0000       3.057296        83.1932 
 156   0.0000       3.070706        83.5582 
 157   0.0000       3.099929        84.3534 
 158   0.0000       3.125416        85.0469 
 159   0.0000       3.154312        85.8332 
 160   0.0000       3.166018        86.1517 
 161   0.0000       3.205502        87.2261 
 162   0.0000       3.244340        88.2830 
 163   0.0000       3.252885        88.5155 
 164   0.0000       3.320544        90.3566 
 165   0.0000       3.355950        91.3200 
 166   0.0000       3.410043        92.7920 
 167   0.0000       3.501285        95.2748 
 168   0.0000       3.974146       108.1420 
 169   0.0000       3.990326       108.5823 
 170   0.0000       4.009973       109.1169 
 171   0.0000       4.070633       110.7675 
 172   0.0000       4.126067       112.2760 
 173   0.0000       4.133495       112.4781 
 174   0.0000       4.265341       116.0658 
 175   0.0000       4.286877       116.6518 
 176   0.0000       4.314844       117.4129 
 177   0.0000       4.337319       118.0244 
 178   0.0000       4.354877       118.5022 
 179   0.0000       4.390282       119.4656 
 180   0.0000       5.505642       149.8161 
 181   0.0000       5.525047       150.3442 
 182   0.0000       5.547297       150.9496 
 183   0.0000       5.551914       151.0753 
 184   0.0000       5.571854       151.6179 
 185   0.0000       5.588648       152.0749 
 186   0.0000       5.611333       152.6921 
 187   0.0000       5.631956       153.2533 
 188   0.0000       5.642500       153.5402 
 189   0.0000       5.677478       154.4920 
 190   0.0000       5.680931       154.5860 
 191   0.0000       5.697202       155.0288 
 192   0.0000       5.780891       157.3060 
 193   0.0000       5.786715       157.4645 
 194   0.0000       5.806307       157.9976 
 195   0.0000       5.815203       158.2397 
 196   0.0000       5.821325       158.4063 
 197   0.0000       5.835659       158.7964 
 198   0.0000       5.845908       159.0752 
 199   0.0000       5.849064       159.1611 
 200   0.0000       5.851387       159.2243 
 201   0.0000       5.862959       159.5392 
 202   0.0000       5.868816       159.6986 
 203   0.0000       5.889046       160.2491 
 204   0.0000       5.896463       160.4509 
 205   0.0000       5.902783       160.6229 
 206   0.0000       5.907153       160.7418 
 207   0.0000       5.920179       161.0963 
 208   0.0000       5.931345       161.4001 
 209   0.0000       5.940719       161.6552 
 210   0.0000       6.404256       174.2687 
 211   0.0000       6.430579       174.9850 
 212   0.0000       6.434484       175.0912 
 213   0.0000       6.473956       176.1653 
 214   0.0000       6.508294       177.0997 
 215   0.0000       6.523806       177.5218 
 216   0.0000       6.655696       181.1107 
 217   0.0000       6.682508       181.8403 
 218   0.0000       6.700877       182.3401 
 219   0.0000       6.706593       182.4957 
 220   0.0000       6.721440       182.8997 
 221   0.0000       6.764944       184.0835 
 222   0.0000       6.823169       185.6679 
 223   0.0000       6.841805       186.1750 
 224   0.0000       6.847515       186.3303 
 225   0.0000       6.861994       186.7243 
 226   0.0000       6.865186       186.8112 
 227   0.0000       6.875430       187.0900 
 228   0.0000       6.886201       187.3830 
 229   0.0000       6.890665       187.5045 
 230   0.0000       6.891892       187.5379 
 231   0.0000       6.906042       187.9229 
 232   0.0000       6.919789       188.2970 
 233   0.0000       6.922818       188.3794 
 234   0.0000       6.926464       188.4787 
 235   0.0000       6.961564       189.4338 
 236   0.0000       6.980949       189.9613 
 237   0.0000       6.990767       190.2285 
 238   0.0000       7.006372       190.6531 
 239   0.0000       7.090501       192.9424 
 240   0.0000       7.350560       200.0189 
 241   0.0000       7.366666       200.4572 
 242   0.0000       7.377302       200.7466 
 243   0.0000       7.396122       201.2587 
 244   0.0000       7.424485       202.0305 
 245   0.0000       7.471405       203.3073 
 246   0.0000       7.486236       203.7108 
 247   0.0000       7.497163       204.0082 
 248   0.0000       7.516628       204.5379 
 249   0.0000       7.565392       205.8648 
 250   0.0000       7.611923       207.1310 
 251   0.0000       7.627164       207.5457 
 252   0.0000      44.822801      1219.6904 
 253   0.0000      44.858974      1220.6747 
 254   0.0000      44.914162      1222.1765 
 255   0.0000      44.942601      1222.9504 
 256   0.0000      45.043592      1225.6985 
 257   0.0000      45.104756      1227.3628 

                    ********************************
                    * MULLIKEN POPULATION ANALYSIS *
                    ********************************

-----------------------
MULLIKEN ATOMIC CHARGES
-----------------------
   0 O :   -0.725090
   1 H :    0.360399
   2 H :    0.376489
   3 O :   -0.790653
   4 H :    0.376308
   5 H :    0.401370
   6 O :   -0.720927
   7 H :    0.358232
   8 H :    0.393043
   9 O :   -0.753381
  10 H :    0.339807
  11 H :    0.389172
  12 O :   -0.713652
  13 H :    0.392444
  14 H :    0.315954
  15 O :   -0.717530
  16 H :    0.346808
  17 H :    0.371205
Sum of atomic charges:   -0.0000000

--------------------------------
MULLIKEN REDUCED ORBITAL CHARGES
--------------------------------
  0 O s       :     3.811424  s :     3.811424
      pz      :     1.717041  p :     4.887556
      px      :     1.803766
      py      :     1.366749
      dz2     :     0.003970  d :     0.024599
      dxz     :     0.005757
      dyz     :     0.004315
      dx2y2   :     0.002490
      dxy     :     0.008067
      f0      :     0.000083  f :     0.001512
      f+1     :     0.000186
      f-1     :     0.000329
      f+2     :     0.000070
      f-2     :     0.000349
      f+3     :     0.000396
      f-3     :     0.000100
  1 H s       :     0.594125  s :     0.594125
      pz      :     0.017064  p :     0.045476
      px      :     0.014941
      py      :     0.013471
  2 H s       :     0.582065  s :     0.582065
      pz      :     0.010561  p :     0.041446
      px      :     0.013022
      py      :     0.017862
  3 O s       :     3.799066  s :     3.799066
      pz      :     1.606400  p :     4.967994
      px      :     1.851371
      py      :     1.510224
      dz2     :     0.010021  d :     0.022269
      dxz     :     0.001974
      dyz     :     0.002425
      dx2y2   :     0.003122
      dxy     :     0.004726
      f0      :     0.000169  f :     0.001323
      f+1     :     0.000107
      f-1     :     0.000430
      f+2     :     0.000068
      f-2     :     0.000036
      f+3     :     0.000414
      f-3     :     0.000098
  4 H s       :     0.570861  s :     0.570861
      pz      :     0.009149  p :     0.052831
      px      :     0.014858
      py      :     0.028824
  5 H s       :     0.550223  s :     0.550223
      pz      :     0.024751  p :     0.048407
      px      :     0.012449
      py      :     0.011207
  6 O s       :     3.807760  s :     3.807760
      pz      :     1.547297  p :     4.885666
      px      :     1.491308
      py      :     1.847062
      dz2     :     0.012146  d :     0.026073
      dxz     :     0.003036
      dyz     :     0.002346
      dx2y2   :     0.003614
      dxy     :     0.004930
      f0      :     0.000170  f :     0.001427
      f+1     :     0.000472
      f-1     :     0.000118
      f+2     :     0.000068
      f-2     :     0.000041
      f+3     :     0.000107
      f-3     :     0.000452
  7 H s       :     0.597740  s :     0.597740
      pz      :     0.018950  p :     0.044028
      px      :     0.011568
      py      :     0.013510
  8 H s       :     0.565059  s :     0.565059
      pz      :     0.009430  p :     0.041898
      px      :     0.018974
      py      :     0.013495
  9 O s       :     3.811646  s :     3.811646
      pz      :     1.528711  p :     4.915562
      px      :     1.510458
      py      :     1.876393
      dz2     :     0.011416  d :     0.024729
      dxz     :     0.002902
      dyz     :     0.002473
      dx2y2   :     0.002987
      dxy     :     0.004950
      f0      :     0.000186  f :     0.001445
      f+1     :     0.000452
      f-1     :     0.000125
      f+2     :     0.000078
      f-2     :     0.000041
      f+3     :     0.000116
      f-3     :     0.000446
 10 H s       :     0.615486  s :     0.615486
      pz      :     0.018396  p :     0.044707
      px      :     0.012103
      py      :     0.014209
 11 H s       :     0.556899  s :     0.556899
      pz      :     0.009503  p :     0.053930
      px      :     0.028820
      py      :     0.015607
 12 O s       :     3.810658  s :     3.810658
      pz      :     1.560427  p :     4.875939
      px      :     1.811106
      py      :     1.504405
      dz2     :     0.011617  d :     0.025564
      dxz     :     0.003021
      dyz     :     0.001200
      dx2y2   :     0.002170
      dxy     :     0.007556
      f0      :     0.000246  f :     0.001491
      f+1     :     0.000167
      f-1     :     0.000374
      f+2     :     0.000056
      f-2     :     0.000056
      f+3     :     0.000521
      f-3     :     0.000071
 13 H s       :     0.558684  s :     0.558684
      pz      :     0.024598  p :     0.048872
      px      :     0.012813
      py      :     0.011462
 14 H s       :     0.638747  s :     0.638747
      pz      :     0.011267  p :     0.045299
      px      :     0.016135
      py      :     0.017897
 15 O s       :     3.813553  s :     3.813553
      pz      :     1.722226  p :     4.877323
      px      :     1.794253
      py      :     1.360844
      dz2     :     0.004387  d :     0.025106
      dxz     :     0.005753
      dyz     :     0.004864
      dx2y2   :     0.002532
      dxy     :     0.007571
      f0      :     0.000092  f :     0.001548
      f+1     :     0.000194
      f-1     :     0.000344
      f+2     :     0.000070
      f-2     :     0.000360
      f+3     :     0.000389
      f-3     :     0.000098
 16 H s       :     0.607317  s :     0.607317
      pz      :     0.017275  p :     0.045875
      px      :     0.015073
      py      :     0.013527
 17 H s       :     0.586909  s :     0.586909
      pz      :     0.011091  p :     0.041886
      px      :     0.012893
      py      :     0.017902


                     *******************************
                     * LOEWDIN POPULATION ANALYSIS *
                     *******************************

----------------------
LOEWDIN ATOMIC CHARGES
----------------------
   0 O :   -0.316016
   1 H :    0.162892
   2 H :    0.189747
   3 O :   -0.315854
   4 H :    0.148611
   5 H :    0.159399
   6 O :   -0.298867
   7 H :    0.168827
   8 H :    0.189539
   9 O :   -0.367096
  10 H :    0.158852
  11 H :    0.150147
  12 O :   -0.340258
  13 H :    0.157861
  14 H :    0.151826
  15 O :   -0.344101
  16 H :    0.157372
  17 H :    0.187120

-------------------------------
LOEWDIN REDUCED ORBITAL CHARGES
-------------------------------
  0 O s       :     3.467549  s :     3.467549
      pz      :     1.681144  p :     4.814516
      px      :     1.774959
      py      :     1.358413
      dz2     :     0.005239  d :     0.031864
      dxz     :     0.005772
      dyz     :     0.006796
      dx2y2   :     0.003760
      dxy     :     0.010297
      f0      :     0.000087  f :     0.002088
      f+1     :     0.000272
      f-1     :     0.000444
      f+2     :     0.000035
      f-2     :     0.000609
      f+3     :     0.000550
      f-3     :     0.000092
  1 H s       :     0.673717  s :     0.673717
      pz      :     0.066324  p :     0.163391
      px      :     0.052834
      py      :     0.044233
  2 H s       :     0.661626  s :     0.661626
      pz      :     0.033226  p :     0.148626
      px      :     0.043553
      py      :     0.071848
  3 O s       :     3.450239  s :     3.450239
      pz      :     1.559845  p :     4.835036
      px      :     1.790155
      py      :     1.485035
      dz2     :     0.013432  d :     0.028668
      dxz     :     0.001221
      dyz     :     0.003509
      dx2y2   :     0.004663
      dxy     :     0.005844
      f0      :     0.000338  f :     0.001910
      f+1     :     0.000190
      f-1     :     0.000689
      f+2     :     0.000035
      f-2     :     0.000043
      f+3     :     0.000548
      f-3     :     0.000067
  4 H s       :     0.664689  s :     0.664689
      pz      :     0.030624  p :     0.186700
      px      :     0.052708
      py      :     0.103367
  5 H s       :     0.666743  s :     0.666743
      pz      :     0.093965  p :     0.173858
      px      :     0.042706
      py      :     0.037188
  6 O s       :     3.468393  s :     3.468393
      pz      :     1.544870  p :     4.795630
      px      :     1.464770
      py      :     1.785989
      dz2     :     0.015685  d :     0.032763
      dxz     :     0.004295
      dyz     :     0.001464
      dx2y2   :     0.005167
      dxy     :     0.006151
      f0      :     0.000372  f :     0.002082
      f+1     :     0.000749
      f-1     :     0.000211
      f+2     :     0.000042
      f-2     :     0.000046
      f+3     :     0.000070
      f-3     :     0.000592
  7 H s       :     0.672520  s :     0.672520
      pz      :     0.079850  p :     0.158652
      px      :     0.035725
      py      :     0.043077
  8 H s       :     0.655909  s :     0.655909
      pz      :     0.028728  p :     0.154552
      px      :     0.076738
      py      :     0.049087
  9 O s       :     3.470631  s :     3.470631
      pz      :     1.539376  p :     4.863993
      px      :     1.485740
      py      :     1.838877
      dz2     :     0.014772  d :     0.030429
      dxz     :     0.004333
      dyz     :     0.001655
      dx2y2   :     0.003780
      dxy     :     0.005889
      f0      :     0.000393  f :     0.002043
      f+1     :     0.000751
      f-1     :     0.000194
      f+2     :     0.000048
      f-2     :     0.000046
      f+3     :     0.000066
      f-3     :     0.000546
 10 H s       :     0.682504  s :     0.682504
      pz      :     0.078526  p :     0.158644
      px      :     0.036723
      py      :     0.043396
 11 H s       :     0.664541  s :     0.664541
      pz      :     0.029084  p :     0.185312
      px      :     0.103468
      py      :     0.052760
 12 O s       :     3.467881  s :     3.467881
      pz      :     1.539727  p :     4.837818
      px      :     1.784480
      py      :     1.513611
      dz2     :     0.015313  d :     0.032409
      dxz     :     0.002321
      dyz     :     0.001784
      dx2y2   :     0.002518
      dxy     :     0.010473
      f0      :     0.000429  f :     0.002150
      f+1     :     0.000318
      f-1     :     0.000567
      f+2     :     0.000025
      f-2     :     0.000045
      f+3     :     0.000764
      f-3     :     0.000003
 13 H s       :     0.670697  s :     0.670697
      pz      :     0.094182  p :     0.171442
      px      :     0.041717
      py      :     0.035544
 14 H s       :     0.691299  s :     0.691299
      pz      :     0.031704  p :     0.156876
      px      :     0.054812
      py      :     0.070359
 15 O s       :     3.474238  s :     3.474238
      pz      :     1.706562  p :     4.835759
      px      :     1.773516
      py      :     1.355680
      dz2     :     0.004902  d :     0.031989
      dxz     :     0.005859
      dyz     :     0.007321
      dx2y2   :     0.003884
      dxy     :     0.010022
      f0      :     0.000078  f :     0.002116
      f+1     :     0.000277
      f-1     :     0.000457
      f+2     :     0.000036
      f-2     :     0.000628
      f+3     :     0.000547
      f-3     :     0.000093
 16 H s       :     0.679825  s :     0.679825
      pz      :     0.066067  p :     0.162803
      px      :     0.052758
      py      :     0.043979
 17 H s       :     0.664803  s :     0.664803
      pz      :     0.033182  p :     0.148076
      px      :     0.043514
      py      :     0.071381


                      *****************************
                      * MAYER POPULATION ANALYSIS *
                      *****************************

  NA   - Mulliken gross atomic population
  ZA   - Total nuclear charge
  QA   - Mulliken gross atomic charge
  VA   - Mayer's total valence
  BVA  - Mayer's bonded valence
  FA   - Mayer's free valence

  ATOM       NA         ZA         QA         VA         BVA        FA
  0 O      8.7251     8.0000    -0.7251     1.7634     1.7634    -0.0000
  1 H      0.6396     1.0000     0.3604     0.8854     0.8854    -0.0000
  2 H      0.6235     1.0000     0.3765     0.8727     0.8727    -0.0000
  3 O      8.7907     8.0000    -0.7907     1.6745     1.6745    -0.0000
  4 H      0.6237     1.0000     0.3763     0.9001     0.9001     0.0000
  5 H      0.5986     1.0000     0.4014     0.8697     0.8697    -0.0000
  6 O      8.7209     8.0000    -0.7209     1.7705     1.7705    -0.0000
  7 H      0.6418     1.0000     0.3582     0.8863     0.8863    -0.0000
  8 H      0.6070     1.0000     0.3930     0.8627     0.8627     0.0000
  9 O      8.7534     8.0000    -0.7534     1.7153     1.7153    -0.0000
 10 H      0.6602     1.0000     0.3398     0.9005     0.9005     0.0000
 11 H      0.6108     1.0000     0.3892     0.8838     0.8838     0.0000
 12 O      8.7137     8.0000    -0.7137     1.7601     1.7601    -0.0000
 13 H      0.6076     1.0000     0.3924     0.8729     0.8729    -0.0000
 14 H      0.6840     1.0000     0.3160     0.9166     0.9166    -0.0000
 15 O      8.7175     8.0000    -0.7175     1.7612     1.7612    -0.0000
 16 H      0.6532     1.0000     0.3468     0.8948     0.8948     0.0000
 17 H      0.6288     1.0000     0.3712     0.8768     0.8768     0.0000

  Mayer bond orders larger than 0.100000
B(  0-O ,  1-H ) :   0.8778 B(  0-O ,  2-H ) :   0.8617 B(  3-O ,  4-H ) :   0.8183 
B(  3-O ,  5-H ) :   0.8322 B(  6-O ,  7-H ) :   0.8789 B(  6-O ,  8-H ) :   0.8490 
B(  9-O , 10-H ) :   0.8939 B(  9-O , 11-H ) :   0.8276 B( 12-O , 13-H ) :   0.8442 
B( 12-O , 14-H ) :   0.9091 B( 15-O , 16-H ) :   0.8889 B( 15-O , 17-H ) :   0.8670 


-------
TIMINGS
-------

Total SCF time: 0 days 0 hours 0 min 12 sec 

Total time                  ....      12.228 sec
Sum of individual times     ....      11.964 sec  ( 97.8%)

Fock matrix formation       ....      11.579 sec  ( 94.7%)
Diagonalization             ....       0.076 sec  (  0.6%)
Density matrix formation    ....       0.012 sec  (  0.1%)
Population analysis         ....       0.025 sec  (  0.2%)
Initial guess               ....       0.147 sec  (  1.2%)
Orbital Transformation      ....       0.000 sec  (  0.0%)
Orbital Orthonormalization  ....       0.000 sec  (  0.0%)
DIIS solution               ....       0.028 sec  (  0.2%)
SOSCF solution              ....       0.041 sec  (  0.3%)


           ************************************************************
           *        Program running with 6 parallel MPI-processes     *
           *              working on a common directory               *
           ************************************************************

------------------------------------------------------------------------------
                                ORCA  MP2 
------------------------------------------------------------------------------

Freezing NCore=12 chemical core electrons
MP2 will be done in the AO integral direct mode
The Q1-step will be done using symmetric double matrices
Dimension of the basis                    ...  258
Memory devoted for MP2                    ... 8000 MB   
Memory needed for all in one shot         ...  264 MB
Number of MOs that can be treated together...  120      
MP2 density construction                  ... relaxed
The MP2 gradient is requested => amplitudes will be stored on disk
Total number of MOs              ...   24
Number of MOs treated per batch  ...    4 
Number of batches necessary      ...    1 
OPERATORS   0/  0 PASS   0
-----------------------------------------------
 MP2 CORRELATION ENERGY   :     -1.547316388 Eh
-----------------------------------------------


---------------------
MP2 DENSITY FORMATION
---------------------

Completing the external part of the density      ... done
Storing the unrelaxed density                    ... done

Calculating G(D)                                 ... done
Completing the Lagrangian                        ... done
Solving the Z-vector equations                   ... 

------------------------------------------------------------------------------
                           ORCA CP-SCF CALCULATION
------------------------------------------------------------------------------

Input orbitals are from        ... 12h2o.su.etal.mol2,5,6,7,9,10-orca.engrad-mp2.def2tzvp.frozencore.gbw
Input Perturbation             ... 12h2o.su.etal.mol2,5,6,7,9,10-orca.engrad-mp2.def2tzvp.frozencore.pin.tmp
Wavefunction output            ... 12h2o.su.etal.mol2,5,6,7,9,10-orca.engrad-mp2.def2tzvp.frozencore.pout.tmp
Perturbation mode              ... Real perturbation (singlet)
Solver                         ... POPLE
Max. number of iterations      ... 128
Convergence tolerance          ... 1.000e-08
Integral handling              ... Direct
Number of perturbations        ... 1
Number of operators            ... 1
Orbital ranges used for CP-SCF:
 Operator 0:  Orbitals   0... 29  to  30...257
Variables per vector in CP-SCF ... 6840
Number of vectors sought       ... 1
     CP-SCF ITERATION   0: 
     CP-SCF ITERATION   1:      0.000764287070
     CP-SCF ITERATION   2:      0.000019788731
     CP-SCF ITERATION   3:      0.000001529993
     CP-SCF ITERATION   4:      0.000000089722
     CP-SCF ITERATION   5:      0.000000007414
                                                 ... done
Finalizing the relaxed density                   ... done
Transforming P to the AO basis                   ... done
Storing the relaxed density                      ... done

------------------------------------
ENERGY WEIGHTED DENSITY FINALIZATION
------------------------------------

Gathering the parts of the W-matrix              ...                                                      done
Forming the Z-density                            ... done
Transforming Z to the AO basis                   ... done
Calculating G(Z)                                 ... done
Finalizing the W-matrix                          ...                                                      done
Transforming W to the AO basis and storing       ... done

                *********************************************
                * UNRELAXED MP2 DENSITY POPULATION ANALYSIS *
                *********************************************

------------------------------------------------------------------------------
                           ORCA POPULATION ANALYSIS
------------------------------------------------------------------------------
Input electron density              ... 12h2o.su.etal.mol2,5,6,7,9,10-orca.engrad-mp2.def2tzvp.frozencore.pmp2ur
BaseName (.gbw .S,...)              ... 12h2o.su.etal.mol2,5,6,7,9,10-orca.engrad-mp2.def2tzvp.frozencore

                    ********************************
                    * MULLIKEN POPULATION ANALYSIS *
                    ********************************

-----------------------
MULLIKEN ATOMIC CHARGES
-----------------------
   0 O :   -0.719676
   1 H :    0.358226
   2 H :    0.373675
   3 O :   -0.783366
   4 H :    0.371610
   5 H :    0.398372
   6 O :   -0.714545
   7 H :    0.355786
   8 H :    0.390297
   9 O :   -0.747690
  10 H :    0.337336
  11 H :    0.384883
  12 O :   -0.708315
  13 H :    0.389423
  14 H :    0.313478
  15 O :   -0.712637
  16 H :    0.344677
  17 H :    0.368469
Sum of atomic charges:   -0.0000000

--------------------------------
MULLIKEN REDUCED ORBITAL CHARGES
--------------------------------
  0 O s       :     3.806628  s :     3.806628
      pz      :     1.706080  p :     4.857520
      px      :     1.792409
      py      :     1.359031
      dz2     :     0.009503  d :     0.051463
      dxz     :     0.011154
      dyz     :     0.009687
      dx2y2   :     0.007843
      dxy     :     0.013276
      f0      :     0.000453  f :     0.004065
      f+1     :     0.000551
      f-1     :     0.000690
      f+2     :     0.000437
      f-2     :     0.000713
      f+3     :     0.000753
      f-3     :     0.000468
  1 H s       :     0.594733  s :     0.594733
      pz      :     0.017532  p :     0.047041
      px      :     0.015651
      py      :     0.013858
  2 H s       :     0.583364  s :     0.583364
      pz      :     0.011385  p :     0.042962
      px      :     0.013791
      py      :     0.017785
  3 O s       :     3.793822  s :     3.793822
      pz      :     1.596265  p :     4.935127
      px      :     1.838324
      py      :     1.500538
      dz2     :     0.015575  d :     0.050477
      dxz     :     0.007761
      dyz     :     0.007978
      dx2y2   :     0.008846
      dxy     :     0.010317
      f0      :     0.000560  f :     0.003940
      f+1     :     0.000486
      f-1     :     0.000804
      f+2     :     0.000437
      f-2     :     0.000406
      f+3     :     0.000776
      f-3     :     0.000471
  4 H s       :     0.573900  s :     0.573900
      pz      :     0.009958  p :     0.054490
      px      :     0.015556
      py      :     0.028976
  5 H s       :     0.551745  s :     0.551745
      pz      :     0.024851  p :     0.049883
      px      :     0.013258
      py      :     0.011774
  6 O s       :     3.802629  s :     3.802629
      pz      :     1.537923  p :     4.854882
      px      :     1.482593
      py      :     1.834366
      dz2     :     0.017215  d :     0.053035
      dxz     :     0.008325
      dyz     :     0.007922
      dx2y2   :     0.009155
      dxy     :     0.010418
      f0      :     0.000551  f :     0.003999
      f+1     :     0.000834
      f-1     :     0.000491
      f+2     :     0.000432
      f-2     :     0.000406
      f+3     :     0.000476
      f-3     :     0.000809
  7 H s       :     0.598579  s :     0.598579
      pz      :     0.019101  p :     0.045635
      px      :     0.012173
      py      :     0.014362
  8 H s       :     0.566337  s :     0.566337
      pz      :     0.010210  p :     0.043367
      px      :     0.018974
      py      :     0.014183
  9 O s       :     3.806664  s :     3.806664
      pz      :     1.519551  p :     4.885388
      px      :     1.501353
      py      :     1.864485
      dz2     :     0.016498  d :     0.051629
      dxz     :     0.008265
      dyz     :     0.007978
      dx2y2   :     0.008505
      dxy     :     0.010382
      f0      :     0.000565  f :     0.004009
      f+1     :     0.000818
      f-1     :     0.000493
      f+2     :     0.000440
      f-2     :     0.000407
      f+3     :     0.000483
      f-3     :     0.000804
 10 H s       :     0.616255  s :     0.616255
      pz      :     0.018542  p :     0.046409
      px      :     0.012772
      py      :     0.015095
 11 H s       :     0.559507  s :     0.559507
      pz      :     0.010323  p :     0.055611
      px      :     0.028967
      py      :     0.016322
 12 O s       :     3.805825  s :     3.805825
      pz      :     1.550924  p :     4.846272
      px      :     1.799845
      py      :     1.495502
      dz2     :     0.016737  d :     0.052168
      dxz     :     0.008483
      dyz     :     0.006586
      dx2y2   :     0.007630
      dxy     :     0.012732
      f0      :     0.000626  f :     0.004050
      f+1     :     0.000540
      f-1     :     0.000741
      f+2     :     0.000415
      f-2     :     0.000420
      f+3     :     0.000872
      f-3     :     0.000437
 13 H s       :     0.560190  s :     0.560190
      pz      :     0.024643  p :     0.050386
      px      :     0.013639
      py      :     0.012105
 14 H s       :     0.639447  s :     0.639447
      pz      :     0.012112  p :     0.047075
      px      :     0.016852
      py      :     0.018111
 15 O s       :     3.808789  s :     3.808789
      pz      :     1.711775  p :     4.848220
      px      :     1.783075
      py      :     1.353370
      dz2     :     0.009746  d :     0.051542
      dxz     :     0.011043
      dyz     :     0.010115
      dx2y2   :     0.007855
      dxy     :     0.012783
      f0      :     0.000458  f :     0.004086
      f+1     :     0.000556
      f-1     :     0.000703
      f+2     :     0.000435
      f-2     :     0.000722
      f+3     :     0.000746
      f-3     :     0.000465
 16 H s       :     0.607823  s :     0.607823
      pz      :     0.017773  p :     0.047500
      px      :     0.015797
      py      :     0.013930
 17 H s       :     0.588100  s :     0.588100
      pz      :     0.011934  p :     0.043431
      px      :     0.013654
      py      :     0.017842


                     *******************************
                     * LOEWDIN POPULATION ANALYSIS *
                     *******************************

----------------------
LOEWDIN ATOMIC CHARGES
----------------------
   0 O :   -0.312279
   1 H :    0.161753
   2 H :    0.187975
   3 O :   -0.311370
   4 H :    0.145873
   5 H :    0.157367
   6 O :   -0.294417
   7 H :    0.167387
   8 H :    0.187936
   9 O :   -0.364373
  10 H :    0.157338
  11 H :    0.147580
  12 O :   -0.337301
  13 H :    0.155909
  14 H :    0.150203
  15 O :   -0.341263
  16 H :    0.156258
  17 H :    0.185423

-------------------------------
LOEWDIN REDUCED ORBITAL CHARGES
-------------------------------
  0 O s       :     3.463783  s :     3.463783
      pz      :     1.669743  p :     4.783853
      px      :     1.763827
      py      :     1.350283
      dz2     :     0.010864  d :     0.059808
      dxz     :     0.011460
      dyz     :     0.012373
      dx2y2   :     0.009238
      dxy     :     0.015873
      f0      :     0.000469  f :     0.004835
      f+1     :     0.000656
      f-1     :     0.000852
      f+2     :     0.000409
      f-2     :     0.001016
      f+3     :     0.000960
      f-3     :     0.000473
  1 H s       :     0.671845  s :     0.671845
      pz      :     0.067524  p :     0.166402
      px      :     0.053821
      py      :     0.045057
  2 H s       :     0.660384  s :     0.660384
      pz      :     0.034058  p :     0.151641
      px      :     0.044531
      py      :     0.073052
  3 O s       :     3.446564  s :     3.446564
      pz      :     1.549252  p :     4.802115
      px      :     1.777272
      py      :     1.475591
      dz2     :     0.019564  d :     0.057961
      dxz     :     0.006935
      dyz     :     0.009118
      dx2y2   :     0.010559
      dxy     :     0.011785
      f0      :     0.000761  f :     0.004730
      f+1     :     0.000586
      f-1     :     0.001134
      f+2     :     0.000412
      f-2     :     0.000420
      f+3     :     0.000967
      f-3     :     0.000451
  4 H s       :     0.664596  s :     0.664596
      pz      :     0.031474  p :     0.189531
      px      :     0.053588
      py      :     0.104470
  5 H s       :     0.665998  s :     0.665998
      pz      :     0.095210  p :     0.176635
      px      :     0.043466
      py      :     0.037959
  6 O s       :     3.464499  s :     3.464499
      pz      :     1.535166  p :     4.764304
      px      :     1.455860
      py      :     1.773278
      dz2     :     0.021410  d :     0.060766
      dxz     :     0.009612
      dyz     :     0.006960
      dx2y2   :     0.010875
      dxy     :     0.011910
      f0      :     0.000784  f :     0.004848
      f+1     :     0.001181
      f-1     :     0.000600
      f+2     :     0.000413
      f-2     :     0.000417
      f+3     :     0.000450
      f-3     :     0.001003
  7 H s       :     0.670827  s :     0.670827
      pz      :     0.081436  p :     0.161786
      px      :     0.036482
      py      :     0.043867
  8 H s       :     0.654688  s :     0.654688
      pz      :     0.029492  p :     0.157377
      px      :     0.077926
      py      :     0.049958
  9 O s       :     3.466920  s :     3.466920
      pz      :     1.529861  p :     4.834191
      px      :     1.476794
      py      :     1.827536
      dz2     :     0.020516  d :     0.058460
      dxz     :     0.009708
      dyz     :     0.007092
      dx2y2   :     0.009487
      dxy     :     0.011657
      f0      :     0.000802  f :     0.004802
      f+1     :     0.001185
      f-1     :     0.000578
      f+2     :     0.000417
      f-2     :     0.000418
      f+3     :     0.000444
      f-3     :     0.000958
 10 H s       :     0.680701  s :     0.680701
      pz      :     0.080211  p :     0.161961
      px      :     0.037554
      py      :     0.044196
 11 H s       :     0.664349  s :     0.664349
      pz      :     0.029902  p :     0.188071
      px      :     0.104552
      py      :     0.053617
 12 O s       :     3.464147  s :     3.464147
      pz      :     1.530219  p :     4.808104
      px      :     1.773492
      py      :     1.504393
      dz2     :     0.021111  d :     0.060145
      dxz     :     0.007729
      dyz     :     0.007124
      dx2y2   :     0.007977
      dxy     :     0.016205
      f0      :     0.000850  f :     0.004904
      f+1     :     0.000715
      f-1     :     0.000987
      f+2     :     0.000388
      f-2     :     0.000416
      f+3     :     0.001173
      f-3     :     0.000374
 13 H s       :     0.669823  s :     0.669823
      pz      :     0.095479  p :     0.174268
      px      :     0.042523
      py      :     0.036266
 14 H s       :     0.689403  s :     0.689403
      pz      :     0.032508  p :     0.160394
      px      :     0.055956
      py      :     0.071930
 15 O s       :     3.470504  s :     3.470504
      pz      :     1.696132  p :     4.806451
      px      :     1.762567
      py      :     1.347752
      dz2     :     0.010345  d :     0.059463
      dxz     :     0.011434
      dyz     :     0.012788
      dx2y2   :     0.009321
      dxy     :     0.015575
      f0      :     0.000454  f :     0.004846
      f+1     :     0.000659
      f-1     :     0.000863
      f+2     :     0.000408
      f-2     :     0.001033
      f+3     :     0.000956
      f-3     :     0.000473
 16 H s       :     0.677825  s :     0.677825
      pz      :     0.067323  p :     0.165916
      px      :     0.053757
      py      :     0.044836
 17 H s       :     0.663472  s :     0.663472
      pz      :     0.034007  p :     0.151105
      px      :     0.044478
      py      :     0.072619


                      *****************************
                      * MAYER POPULATION ANALYSIS *
                      *****************************

  NA   - Mulliken gross atomic population
  ZA   - Total nuclear charge
  QA   - Mulliken gross atomic charge
  VA   - Mayer's total valence
  BVA  - Mayer's bonded valence
  FA   - Mayer's free valence

  ATOM       NA         ZA         QA         VA         BVA        FA
  0 O      8.7197     8.0000    -0.7197     2.0727     1.6826     0.3901
  1 H      0.6418     1.0000     0.3582     0.8910     0.8455     0.0455
  2 H      0.6263     1.0000     0.3737     0.8787     0.8315     0.0472
  3 O      8.7834     8.0000    -0.7834     1.9938     1.5980     0.3958
  4 H      0.6284     1.0000     0.3716     0.9083     0.8601     0.0482
  5 H      0.6016     1.0000     0.3984     0.8755     0.8322     0.0434
  6 O      8.7145     8.0000    -0.7145     2.0791     1.6899     0.3892
  7 H      0.6442     1.0000     0.3558     0.8922     0.8454     0.0469
  8 H      0.6097     1.0000     0.3903     0.8685     0.8235     0.0450
  9 O      8.7477     8.0000    -0.7477     2.0273     1.6356     0.3917
 10 H      0.6627     1.0000     0.3373     0.9067     0.8582     0.0485
 11 H      0.6151     1.0000     0.3849     0.8913     0.8452     0.0462
 12 O      8.7083     8.0000    -0.7083     2.0663     1.6787     0.3875
 13 H      0.6106     1.0000     0.3894     0.8790     0.8351     0.0439
 14 H      0.6865     1.0000     0.3135     0.9231     0.8727     0.0505
 15 O      8.7126     8.0000    -0.7126     2.0681     1.6801     0.3881
 16 H      0.6553     1.0000     0.3447     0.9006     0.8543     0.0463
 17 H      0.6315     1.0000     0.3685     0.8828     0.8355     0.0473

  Mayer bond orders larger than 0.100000
B(  0-O ,  1-H ) :   0.8385 B(  0-O ,  2-H ) :   0.8211 B(  3-O ,  4-H ) :   0.7807 
B(  3-O ,  5-H ) :   0.7959 B(  6-O ,  7-H ) :   0.8384 B(  6-O ,  8-H ) :   0.8105 
B(  9-O , 10-H ) :   0.8521 B(  9-O , 11-H ) :   0.7904 B( 12-O , 13-H ) :   0.8072 
B( 12-O , 14-H ) :   0.8657 B( 15-O , 16-H ) :   0.8488 B( 15-O , 17-H ) :   0.8262 



                *******************************************
                * RELAXED MP2 DENSITY POPULATION ANALYSIS *
                *******************************************

------------------------------------------------------------------------------
                           ORCA POPULATION ANALYSIS
------------------------------------------------------------------------------
Input electron density              ... 12h2o.su.etal.mol2,5,6,7,9,10-orca.engrad-mp2.def2tzvp.frozencore.pmp2re
BaseName (.gbw .S,...)              ... 12h2o.su.etal.mol2,5,6,7,9,10-orca.engrad-mp2.def2tzvp.frozencore

                    ********************************
                    * MULLIKEN POPULATION ANALYSIS *
                    ********************************

-----------------------
MULLIKEN ATOMIC CHARGES
-----------------------
   0 O :   -0.700812
   1 H :    0.351757
   2 H :    0.365905
   3 O :   -0.747210
   4 H :    0.348795
   5 H :    0.382194
   6 O :   -0.690419
   7 H :    0.350252
   8 H :    0.381701
   9 O :   -0.728682
  10 H :    0.330846
  11 H :    0.362867
  12 O :   -0.690530
  13 H :    0.375007
  14 H :    0.307512
  15 O :   -0.698428
  16 H :    0.338562
  17 H :    0.360683
Sum of atomic charges:   -0.0000000

--------------------------------
MULLIKEN REDUCED ORBITAL CHARGES
--------------------------------
  0 O s       :     3.810827  s :     3.810827
      pz      :     1.695834  p :     4.836772
      px      :     1.786156
      py      :     1.354781
      dz2     :     0.009257  d :     0.049220
      dxz     :     0.010873
      dyz     :     0.009093
      dx2y2   :     0.007601
      dxy     :     0.012397
      f0      :     0.000452  f :     0.003993
      f+1     :     0.000542
      f-1     :     0.000670
      f+2     :     0.000437
      f-2     :     0.000692
      f+3     :     0.000733
      f-3     :     0.000466
  1 H s       :     0.600513  s :     0.600513
      pz      :     0.017671  p :     0.047730
      px      :     0.016262
      py      :     0.013798
  2 H s       :     0.590544  s :     0.590544
      pz      :     0.012220  p :     0.043551
      px      :     0.014550
      py      :     0.016781
  3 O s       :     3.792597  s :     3.792597
      pz      :     1.589068  p :     4.901947
      px      :     1.820125
      py      :     1.492753
      dz2     :     0.014645  d :     0.048795
      dxz     :     0.007800
      dyz     :     0.007740
      dx2y2   :     0.008668
      dxy     :     0.009942
      f0      :     0.000549  f :     0.003872
      f+1     :     0.000481
      f-1     :     0.000775
      f+2     :     0.000436
      f-2     :     0.000405
      f+3     :     0.000757
      f-3     :     0.000469
  4 H s       :     0.596204  s :     0.596204
      pz      :     0.010678  p :     0.055001
      px      :     0.016170
      py      :     0.028154
  5 H s       :     0.567380  s :     0.567380
      pz      :     0.024169  p :     0.050426
      px      :     0.014129
      py      :     0.012128
  6 O s       :     3.805474  s :     3.805474
      pz      :     1.532322  p :     4.830133
      px      :     1.479032
      py      :     1.818779
      dz2     :     0.015971  d :     0.050887
      dxz     :     0.008064
      dyz     :     0.007987
      dx2y2   :     0.008878
      dxy     :     0.009987
      f0      :     0.000536  f :     0.003925
      f+1     :     0.000806
      f-1     :     0.000485
      f+2     :     0.000431
      f-2     :     0.000404
      f+3     :     0.000474
      f-3     :     0.000787
  7 H s       :     0.603433  s :     0.603433
      pz      :     0.018430  p :     0.046316
      px      :     0.012558
      py      :     0.015328
  8 H s       :     0.574429  s :     0.574429
      pz      :     0.010882  p :     0.043870
      px      :     0.018182
      py      :     0.014806
  9 O s       :     3.807206  s :     3.807206
      pz      :     1.512570  p :     4.867938
      px      :     1.498071
      py      :     1.857296
      dz2     :     0.015299  d :     0.049596
      dxz     :     0.008008
      dyz     :     0.008001
      dx2y2   :     0.008307
      dxy     :     0.009981
      f0      :     0.000552  f :     0.003942
      f+1     :     0.000790
      f-1     :     0.000488
      f+2     :     0.000439
      f-2     :     0.000405
      f+3     :     0.000482
      f-3     :     0.000786
 10 H s       :     0.621997  s :     0.621997
      pz      :     0.017873  p :     0.047157
      px      :     0.013216
      py      :     0.016069
 11 H s       :     0.581235  s :     0.581235
      pz      :     0.011018  p :     0.055898
      px      :     0.027985
      py      :     0.016896
 12 O s       :     3.807617  s :     3.807617
      pz      :     1.547089  p :     4.828963
      px      :     1.794152
      py      :     1.487722
      dz2     :     0.015507  d :     0.049972
      dxz     :     0.008458
      dyz     :     0.006549
      dx2y2   :     0.007537
      dxy     :     0.011921
      f0      :     0.000609  f :     0.003977
      f+1     :     0.000530
      f-1     :     0.000719
      f+2     :     0.000415
      f-2     :     0.000419
      f+3     :     0.000847
      f-3     :     0.000438
 13 H s       :     0.574131  s :     0.574131
      pz      :     0.023775  p :     0.050863
      px      :     0.014503
      py      :     0.012585
 14 H s       :     0.644494  s :     0.644494
      pz      :     0.012918  p :     0.047993
      px      :     0.017486
      py      :     0.017589
 15 O s       :     3.813366  s :     3.813366
      pz      :     1.705639  p :     4.831798
      px      :     1.776484
      py      :     1.349675
      dz2     :     0.009456  d :     0.049249
      dxz     :     0.010750
      dyz     :     0.009520
      dx2y2   :     0.007589
      dxy     :     0.011934
      f0      :     0.000456  f :     0.004014
      f+1     :     0.000548
      f-1     :     0.000684
      f+2     :     0.000436
      f-2     :     0.000701
      f+3     :     0.000725
      f-3     :     0.000463
 16 H s       :     0.613232  s :     0.613232
      pz      :     0.017913  p :     0.048206
      px      :     0.016410
      py      :     0.013883
 17 H s       :     0.595271  s :     0.595271
      pz      :     0.012812  p :     0.044046
      px      :     0.014381
      py      :     0.016853


                     *******************************
                     * LOEWDIN POPULATION ANALYSIS *
                     *******************************

----------------------
LOEWDIN ATOMIC CHARGES
----------------------
   0 O :   -0.310447
   1 H :    0.163652
   2 H :    0.188839
   3 O :   -0.302125
   4 H :    0.139064
   5 H :    0.153147
   6 O :   -0.289057
   7 H :    0.169278
   8 H :    0.188349
   9 O :   -0.366210
  10 H :    0.158953
  11 H :    0.140507
  12 O :   -0.338519
  13 H :    0.151880
  14 H :    0.152134
  15 O :   -0.343983
  16 H :    0.158200
  17 H :    0.186340

-------------------------------
LOEWDIN REDUCED ORBITAL CHARGES
-------------------------------
  0 O s       :     3.465637  s :     3.465637
      pz      :     1.664429  p :     4.781363
      px      :     1.761865
      py      :     1.355069
      dz2     :     0.010774  d :     0.058593
      dxz     :     0.011426
      dyz     :     0.011993
      dx2y2   :     0.009015
      dxy     :     0.015385
      f0      :     0.000472  f :     0.004854
      f+1     :     0.000656
      f-1     :     0.000859
      f+2     :     0.000410
      f-2     :     0.001016
      f+3     :     0.000966
      f-3     :     0.000476
  1 H s       :     0.670101  s :     0.670101
      pz      :     0.067534  p :     0.166248
      px      :     0.054444
      py      :     0.044270
  2 H s       :     0.659589  s :     0.659589
      pz      :     0.034740  p :     0.151572
      px      :     0.045281
      py      :     0.071550
  3 O s       :     3.447407  s :     3.447407
      pz      :     1.547689  p :     4.792268
      px      :     1.766922
      py      :     1.477657
      dz2     :     0.019381  d :     0.057682
      dxz     :     0.007010
      dyz     :     0.008963
      dx2y2   :     0.010595
      dxy     :     0.011733
      f0      :     0.000766  f :     0.004768
      f+1     :     0.000589
      f-1     :     0.001146
      f+2     :     0.000413
      f-2     :     0.000419
      f+3     :     0.000981
      f-3     :     0.000454
  4 H s       :     0.670530  s :     0.670530
      pz      :     0.031958  p :     0.190407
      px      :     0.054165
      py      :     0.104284
  5 H s       :     0.669932  s :     0.669932
      pz      :     0.094624  p :     0.176922
      px      :     0.044164
      py      :     0.038133
  6 O s       :     3.466145  s :     3.466145
      pz      :     1.536637  p :     4.758401
      px      :     1.459067
      py      :     1.762696
      dz2     :     0.020747  d :     0.059650
      dxz     :     0.009361
      dyz     :     0.007038
      dx2y2   :     0.010767
      dxy     :     0.011736
      f0      :     0.000780  f :     0.004862
      f+1     :     0.001188
      f-1     :     0.000601
      f+2     :     0.000414
      f-2     :     0.000416
      f+3     :     0.000453
      f-3     :     0.001011
  7 H s       :     0.668869  s :     0.668869
      pz      :     0.080813  p :     0.161852
      px      :     0.036401
      py      :     0.044638
  8 H s       :     0.654617  s :     0.654617
      pz      :     0.029887  p :     0.157034
      px      :     0.076691
      py      :     0.050456
  9 O s       :     3.468383  s :     3.468383
      pz      :     1.531396  p :     4.835492
      px      :     1.479605
      py      :     1.824491
      dz2     :     0.019907  d :     0.057502
      dxz     :     0.009465
      dyz     :     0.007141
      dx2y2   :     0.009432
      dxy     :     0.011557
      f0      :     0.000799  f :     0.004833
      f+1     :     0.001199
      f-1     :     0.000579
      f+2     :     0.000420
      f-2     :     0.000416
      f+3     :     0.000446
      f-3     :     0.000973
 10 H s       :     0.678847  s :     0.678847
      pz      :     0.079556  p :     0.162200
      px      :     0.037625
      py      :     0.045019
 11 H s       :     0.670846  s :     0.670846
      pz      :     0.030327  p :     0.188647
      px      :     0.103967
      py      :     0.054354
 12 O s       :     3.465667  s :     3.465667
      pz      :     1.531330  p :     4.808999
      px      :     1.771578
      py      :     1.506090
      dz2     :     0.020500  d :     0.058930
      dxz     :     0.007766
      dyz     :     0.007006
      dx2y2   :     0.007892
      dxy     :     0.015766
      f0      :     0.000854  f :     0.004923
      f+1     :     0.000713
      f-1     :     0.000995
      f+2     :     0.000390
      f-2     :     0.000416
      f+3     :     0.001180
      f-3     :     0.000375
 13 H s       :     0.673587  s :     0.673587
      pz      :     0.094604  p :     0.174534
      px      :     0.043382
      py      :     0.036548
 14 H s       :     0.686852  s :     0.686852
      pz      :     0.033014  p :     0.161013
      px      :     0.056593
      py      :     0.071407
 15 O s       :     3.472464  s :     3.472464
      pz      :     1.695261  p :     4.808554
      px      :     1.760672
      py      :     1.352620
      dz2     :     0.010164  d :     0.058100
      dxz     :     0.011368
      dyz     :     0.012385
      dx2y2   :     0.009081
      dxy     :     0.015102
      f0      :     0.000457  f :     0.004865
      f+1     :     0.000659
      f-1     :     0.000870
      f+2     :     0.000408
      f-2     :     0.001032
      f+3     :     0.000963
      f-3     :     0.000476
 16 H s       :     0.675889  s :     0.675889
      pz      :     0.067469  p :     0.165911
      px      :     0.054352
      py      :     0.044090
 17 H s       :     0.662596  s :     0.662596
      pz      :     0.034754  p :     0.151064
      px      :     0.045205
      py      :     0.071105


                      *****************************
                      * MAYER POPULATION ANALYSIS *
                      *****************************

  NA   - Mulliken gross atomic population
  ZA   - Total nuclear charge
  QA   - Mulliken gross atomic charge
  VA   - Mayer's total valence
  BVA  - Mayer's bonded valence
  FA   - Mayer's free valence

  ATOM       NA         ZA         QA         VA         BVA        FA
  0 O      8.7008     8.0000    -0.7008     2.0952     1.7108     0.3844
  1 H      0.6482     1.0000     0.3518     0.8958     0.8503     0.0455
  2 H      0.6341     1.0000     0.3659     0.8863     0.8391     0.0472
  3 O      8.7472     8.0000    -0.7472     2.0437     1.6544     0.3893
  4 H      0.6512     1.0000     0.3488     0.9382     0.8911     0.0470
  5 H      0.6178     1.0000     0.3822     0.8963     0.8534     0.0430
  6 O      8.6904     8.0000    -0.6904     2.1100     1.7267     0.3833
  7 H      0.6497     1.0000     0.3503     0.8966     0.8497     0.0469
  8 H      0.6183     1.0000     0.3817     0.8780     0.8332     0.0448
  9 O      8.7287     8.0000    -0.7287     2.0356     1.6490     0.3867
 10 H      0.6692     1.0000     0.3308     0.9115     0.8629     0.0485
 11 H      0.6371     1.0000     0.3629     0.9217     0.8765     0.0452
 12 O      8.6905     8.0000    -0.6905     2.0794     1.6970     0.3824
 13 H      0.6250     1.0000     0.3750     0.8990     0.8554     0.0436
 14 H      0.6925     1.0000     0.3075     0.9280     0.8775     0.0504
 15 O      8.6984     8.0000    -0.6984     2.0748     1.6916     0.3831
 16 H      0.6614     1.0000     0.3386     0.9049     0.8586     0.0464
 17 H      0.6393     1.0000     0.3607     0.8900     0.8427     0.0473

  Mayer bond orders larger than 0.100000
B(  0-O ,  1-H ) :   0.8420 B(  0-O ,  2-H ) :   0.8248 B(  3-O ,  4-H ) :   0.7780 
B(  3-O ,  5-H ) :   0.8005 B(  6-O ,  7-H ) :   0.8412 B(  6-O ,  8-H ) :   0.8143 
B(  9-O , 10-H ) :   0.8554 B(  9-O , 11-H ) :   0.7918 B( 12-O , 13-H ) :   0.8128 
B( 12-O , 14-H ) :   0.8686 B( 15-O , 16-H ) :   0.8528 B( 15-O , 17-H ) :   0.8305 



----------------------------------
MP2 DERIVATIVE INTEGRAL GENERATION
----------------------------------


Input Wavefunction Amplitudes       ... 12h2o.su.etal.mol2,5,6,7,9,10-orca.engrad-mp2.def2tzvp.frozencore.mp2tsaa.tmp
Input Correlated Electron Density   ... 12h2o.su.etal.mol2,5,6,7,9,10-orca.engrad-mp2.def2tzvp.frozencore.pmp2re
Input Energy Weighted Density       ... 12h2o.su.etal.mol2,5,6,7,9,10-orca.engrad-mp2.def2tzvp.frozencore.wmp2.tmp
Input SCF Electron Density          ... 12h2o.su.etal.mol2,5,6,7,9,10-orca.engrad-mp2.def2tzvp.frozencore.scfp

One-Electron Terms    ...
                        ... One-Electron Terms done
Prescreening matrices              ... done

Batch handling in the gradient evaluation:
Memory available                      ... 8000.0 MB
Memory per occupied orbital in Q2     ...   12.2 MB
Memory per occupied orbital in Q3     ...    0.1 MB
Total memory requirement per |i>      ...   12.3 MB
Max. Number of orbitals possible      ...    651
Number of orbitals treated per batch  ...     24
Number of batches to be done          ...      1
Batch   0: i=    6 ...    29

---------------------------------------
MP2 TOTAL ENERGY:     -457.916458587 Eh
---------------------------------------

The final MP2 gradient
  0:  -0.00962075  -0.02515233  -0.00113171
  1:  -0.00172264  -0.00134722   0.00232014
  2:   0.01011666   0.02584265  -0.00020756
  3:  -0.00663107  -0.00226787   0.00061938
  4:   0.00223459   0.00593232   0.00236044
  5:   0.00167204  -0.00050366  -0.00051198
  6:   0.01284491  -0.00613966  -0.01212850
  7:   0.00067710  -0.00159585   0.00797228
  8:  -0.01240672   0.00459063   0.00429667
  9:  -0.00186729   0.00187827  -0.00926485
 10:  -0.00350216  -0.00130948   0.00943968
 11:   0.00794204  -0.00204088  -0.00061865
 12:  -0.00716110  -0.01008279  -0.00011190
 13:   0.00216787  -0.00074940  -0.00086292
 14:   0.00620928   0.01142331   0.00004898
 15:   0.00520943   0.02687045   0.00056169
 16:   0.00187713   0.00245202   0.00073635
 17:  -0.00803931  -0.02780050  -0.00351755

-----------------------------------
NORM OF THE MP2 GRADIENT:  0.066455
-----------------------------------

-------------------------   --------------------
FINAL SINGLE POINT ENERGY      -457.916458586560
-------------------------   --------------------


                            ***************************************
                            *     ORCA property calculations      *
                            ***************************************

                                    ---------------------
                                    Active property flags
                                    ---------------------
   (+) Dipole Moment


------------------------------------------------------------------------------
                       ORCA ELECTRIC PROPERTIES CALCULATION
------------------------------------------------------------------------------

Dipole Moment Calculation                       ... on
Quadrupole Moment Calculation                   ... off
Polarizability Calculation                      ... off
GBWName                                         ... 12h2o.su.etal.mol2,5,6,7,9,10-orca.engrad-mp2.def2tzvp.frozencore.gbw
Electron density file                           ... 12h2o.su.etal.mol2,5,6,7,9,10-orca.engrad-mp2.def2tzvp.frozencore.scfp
The origin for moment calculation is the CENTER OF MASS  = ( 0.534033, -1.079928 -0.873139)

-------------
DIPOLE MOMENT
-------------
                                X             Y             Z
Electronic contribution:      0.10166      -0.02174      -0.24214
Nuclear contribution   :      1.01960       0.90936      -1.17702
                        -----------------------------------------
Total Dipole Moment    :      1.12126       0.88763      -1.41916
                        -----------------------------------------
Magnitude (a.u.)       :      2.01472
Magnitude (Debye)      :      5.12102



--------------------
Rotational spectrum 
--------------------
 
Rotational constants in cm-1:     0.054464     0.027250     0.025902 
Rotational constants in MHz :  1632.800961   816.926584   776.518858 

 Dipole components along the rotational axes: 
x,y,z [a.u.] :    -1.403242    -0.498473    -1.357037 
x,y,z [Debye]:    -3.566757    -1.267019    -3.449314 

 

                         *** MP2 UNRELAXED DENSITY ***

------------------------------------------------------------------------------
                       ORCA ELECTRIC PROPERTIES CALCULATION
------------------------------------------------------------------------------

Dipole Moment Calculation                       ... on
Quadrupole Moment Calculation                   ... off
Polarizability Calculation                      ... off
GBWName                                         ... 12h2o.su.etal.mol2,5,6,7,9,10-orca.engrad-mp2.def2tzvp.frozencore.gbw
Electron density file                           ... 12h2o.su.etal.mol2,5,6,7,9,10-orca.engrad-mp2.def2tzvp.frozencore.pmp2ur
The origin for moment calculation is the CENTER OF MASS  = ( 0.534033, -1.079928 -0.873139)

-------------
DIPOLE MOMENT
-------------
                                X             Y             Z
Electronic contribution:      0.09353      -0.02920      -0.23491
Nuclear contribution   :      1.01960       0.90936      -1.17702
                        -----------------------------------------
Total Dipole Moment    :      1.11313       0.88016      -1.41192
                        -----------------------------------------
Magnitude (a.u.)       :      2.00182
Magnitude (Debye)      :      5.08821



--------------------
Rotational spectrum 
--------------------
 
Rotational constants in cm-1:     0.054464     0.027250     0.025902 
Rotational constants in MHz :  1632.800961   816.926584   776.518858 

 Dipole components along the rotational axes: 
x,y,z [a.u.] :    -1.395326    -0.497069    -1.346573 
x,y,z [Debye]:    -3.546637    -1.263448    -3.422717 

 

                           *** MP2 RELAXED DENSITY ***

------------------------------------------------------------------------------
                       ORCA ELECTRIC PROPERTIES CALCULATION
------------------------------------------------------------------------------

Dipole Moment Calculation                       ... on
Quadrupole Moment Calculation                   ... off
Polarizability Calculation                      ... off
GBWName                                         ... 12h2o.su.etal.mol2,5,6,7,9,10-orca.engrad-mp2.def2tzvp.frozencore.gbw
Electron density file                           ... 12h2o.su.etal.mol2,5,6,7,9,10-orca.engrad-mp2.def2tzvp.frozencore.pmp2re
The origin for moment calculation is the CENTER OF MASS  = ( 0.534033, -1.079928 -0.873139)

-------------
DIPOLE MOMENT
-------------
                                X             Y             Z
Electronic contribution:      0.09124      -0.01881      -0.23307
Nuclear contribution   :      1.01960       0.90936      -1.17702
                        -----------------------------------------
Total Dipole Moment    :      1.11084       0.89055      -1.41009
                        -----------------------------------------
Magnitude (a.u.)       :      2.00385
Magnitude (Debye)      :      5.09337



--------------------
Rotational spectrum 
--------------------
 
Rotational constants in cm-1:     0.054464     0.027250     0.025902 
Rotational constants in MHz :  1632.800961   816.926584   776.518858 

 Dipole components along the rotational axes: 
x,y,z [a.u.] :    -1.398573    -0.487290    -1.349793 
x,y,z [Debye]:    -3.554890    -1.238592    -3.430902 

 

Timings for individual modules:

Sum of individual times         ...       63.579 sec (=   1.060 min)
GTO integral calculation        ...        0.984 sec (=   0.016 min)   1.5 %
SCF iterations                  ...       12.894 sec (=   0.215 min)  20.3 %
MP2 module                      ...       49.701 sec (=   0.828 min)  78.2 %
                             ****ORCA TERMINATED NORMALLY****
TOTAL RUN TIME: 0 days 0 hours 1 minutes 4 seconds 571 msec
