21
Energy:   -123.66133379
O    2.34739206  -0.63268451   1.06831566
H    1.70410039  -1.26779968   0.75361516
H    3.17860859  -1.10721457   1.05682006
O    1.45533661   1.37441850  -0.58121178
H    1.85239185   0.76766864   0.04363507
H    1.01818225   0.81016136  -1.21897490
O    0.43546087  -2.22899522  -0.01349431
H   -0.44347838  -2.30236552   0.35841221
H    0.30108203  -1.81872478  -0.86780827
C   -0.23763075   1.21176714   2.42237299
H    0.58829678   0.67593643   2.84145455
H   -0.78748550   1.68947835   3.20617835
H    0.12629239   1.95129156   1.74005145
C   -1.15874806   0.23105171   1.67314664
N   -1.84456178  -0.49913551   1.11531357
C   -2.58042325   0.71531858  -2.35257704
H   -3.25040912   0.24716085  -1.66203562
H   -2.97145854   0.62682672  -3.34462527
H   -2.47526911   1.75014857  -2.10164162
C   -1.20468684   0.02709502  -2.27979193
N   -0.18038856  -0.48531870  -2.22560011
