21
Energy:   -119.84743212
O    1.41778078   0.70772084   1.12472645
H    0.74149425   1.37633916   1.01601625
H    1.57341139   0.37768933   0.23980263
O    1.69999442  -0.21687096  -1.45983758
H    1.07511724  -0.93781419  -1.38237004
H    2.54173180  -0.64469404  -1.61692816
O   -0.08348768  -2.26790009  -1.13412360
H   -0.07905097  -3.20481811  -1.33007460
H   -0.65717051  -2.18474197  -0.37241198
C   -0.95474716  -0.26408374   3.31858237
H   -1.28959840  -0.71305873   4.23028204
H   -1.44095480   0.67983918   3.18625416
H    0.10421894  -0.11692134   3.36139714
C   -1.29715634  -1.18824425   2.13524670
N   -1.55209554  -1.87632376   1.25419951
C   -0.80080216   1.97269910  -2.35483441
H    0.16522574   1.64555446  -2.67835669
H   -1.07601015   2.85682764  -2.89100265
H   -1.51968819   1.20292837  -2.54339471
C   -0.76040785   2.27895361  -0.84613416
N   -0.73033245   2.50697402   0.27716176
