21
Energy:   -120.50145479
O    0.13374057  -1.32920314  -0.42688493
H    0.56167918  -0.65161643   0.09654285
H   -0.31313332  -1.88152086   0.21458269
O    1.45535871   0.78942548   0.68662080
H    0.80674629   1.46430809   0.48645277
H    1.95600095   0.69002918  -0.12313816
O    2.14411540  -0.14911898  -1.88262726
H    1.42850553  -0.71856576  -1.60002379
H    2.81513172  -0.74984959  -2.20680575
C   -1.21322375   1.10620244  -2.79034502
H   -2.21353519   1.32866213  -3.09822305
H   -1.09820150   0.04717437  -2.68970449
H   -0.52480255   1.47166867  -3.52342741
C   -0.92988049   1.78423858  -1.43698491
N   -0.71891856   2.28906731  -0.42934679
C   -1.32878294  -0.40897668   3.75103016
H   -2.06787735  -0.61757167   4.49609912
H   -1.54748290   0.52874861   3.28440322
H   -0.36318355  -0.36252226   4.20967916
C   -1.34001635  -1.52524086   2.69016821
N   -1.34838014  -2.35635029   1.90030827
