21
Energy:   -120.21501962
O   -0.55187280  -1.44282375  -0.12657635
H   -0.94147256  -1.69147876  -0.96479742
H   -0.09759902  -0.61999871  -0.30775621
O   -1.82488742   0.26754398   1.54413291
H   -2.75008936   0.33270751   1.30751732
H   -1.50482618  -0.49029755   1.05477736
O    0.07957858   1.31304189  -0.21371848
H   -0.59854233   1.18154630   0.44892228
H    0.89702257   1.34790389   0.28307303
C   -0.40193765   1.28792196  -3.57145462
H   -1.15187413   2.04780721  -3.50025170
H   -0.03158418   1.24517929  -4.57440550
H    0.40223366   1.51677289  -2.90374597
C   -1.01302849  -0.07360398  -3.19143474
N   -1.46801339  -1.08732193  -2.90849266
C    2.16477856  -1.27490539   3.08600776
H    2.08934295  -0.89496222   4.08343086
H    3.01737400  -1.91723224   3.01254808
H    1.28024810  -1.82751440   2.84699263
C    2.31931228  -0.10192304   2.10019249
N    2.43436966   0.77141564   1.36620822
