
                                 *****************
                                 * O   R   C   A *
                                 *****************

           --- An Ab Initio, DFT and Semiempirical electronic structure package ---

                  #######################################################
                  #                        -***-                        #
                  #          Department of theory and spectroscopy      #
                  #               Directorship: Frank Neese             #
                  #        Max Planck Institute fuer Kohlenforschung    #
                  #                Kaiser Wilhelm Platz 1               #
                  #                 D-45470 Muelheim/Ruhr               #
                  #                      Germany                        #
                  #                                                     #
                  #                  All rights reserved                #
                  #                        -***-                        #
                  #######################################################


                         Program Version 4.2.0 -  RELEASE  -


 With contributions from (in alphabetic order):
   Daniel Aravena         : Magnetic Suceptibility
   Michael Atanasov       : Ab Initio Ligand Field Theory (pilot matlab implementation)
   Alexander A. Auer      : GIAO ZORA, VPT2
   Ute Becker             : Parallelization
   Giovanni Bistoni       : ED, misc. LED, open-shell LED, HFLED
   Martin Brehm           : Molecular dynamics
   Dmytro Bykov           : SCF Hessian
   Vijay G. Chilkuri      : MRCI spin determinant printing, contributions to CSF-ICE
   Dipayan Datta          : RHF DLPNO-CCSD density
   Achintya Kumar Dutta   : EOM-CC, STEOM-CC
   Dmitry Ganyushin       : Spin-Orbit,Spin-Spin,Magnetic field MRCI
   Miquel Garcia          : C-PCM Hessian, Gaussian charge scheme
   Yang Guo               : DLPNO-NEVPT2, CIM, IAO-localization
   Andreas Hansen         : Spin unrestricted coupled pair/coupled cluster methods
   Benjamin Helmich-Paris : CASSCF linear response (MC-RPA)
   Lee Huntington         : MR-EOM, pCC
   Robert Izsak           : Overlap fitted RIJCOSX, COSX-SCS-MP3, EOM
   Christian Kollmar      : KDIIS, OOCD, Brueckner-CCSD(T), CCSD density
   Simone Kossmann        : Meta GGA functionals, TD-DFT gradient, OOMP2, MP2 Hessian
   Martin Krupicka        : AUTO-CI
   Lucas Lang             : DCDCAS
   Dagmar Lenk            : GEPOL surface, SMD
   Dimitrios Liakos       : Extrapolation schemes; Compound Job, initial MDCI parallelization
   Dimitrios Manganas     : Further ROCIS development; embedding schemes
   Dimitrios Pantazis     : SARC Basis sets
   Taras Petrenko         : DFT Hessian,TD-DFT gradient, ASA, ECA, R-Raman, ABS, FL, XAS/XES, NRVS
   Peter Pinski           : DLPNO-MP2, DLPNO-MP2 Gradient
   Christoph Reimann      : Effective Core Potentials
   Marius Retegan         : Local ZFS, SOC
   Christoph Riplinger    : Optimizer, TS searches, QM/MM, DLPNO-CCSD(T), (RO)-DLPNO pert. Triples
   Tobias Risthaus        : Range-separated hybrids, TD-DFT gradient, RPA, STAB
   Michael Roemelt        : Original ROCIS implementation
   Masaaki Saitow         : Open-shell DLPNO-CCSD energy and density
   Barbara Sandhoefer     : DKH picture change effects
   Avijit Sen             : IP-ROCIS
   Kantharuban Sivalingam : CASSCF convergence, NEVPT2, FIC-MRCI
   Bernardo de Souza      : ESD, SOC TD-DFT
   Georgi Stoychev        : AutoAux, RI-MP2 NMR
   Willem Van den Heuvel  : Paramagnetic NMR
   Boris Wezisla          : Elementary symmetry handling
   Frank Wennmohs         : Technical directorship


 We gratefully acknowledge several colleagues who have allowed us to
 interface, adapt or use parts of their codes:
   Stefan Grimme, W. Hujo, H. Kruse,             : VdW corrections, initial TS optimization,
                  C. Bannwarth                     DFT functionals, gCP, sTDA/sTD-DF
   Ed Valeev, F. Pavosevic, A. Kumar             : LibInt (2-el integral package), F12 methods
   Garnet Chan, S. Sharma, J. Yang, R. Olivares  : DMRG
   Ulf Ekstrom                                   : XCFun DFT Library
   Mihaly Kallay                                 : mrcc  (arbitrary order and MRCC methods)
   Andreas Klamt, Michael Diedenhofen            : otool_cosmo (COSMO solvation model)
   Jiri Pittner, Ondrej Demel                    : Mk-CCSD
   Frank Weinhold                                : gennbo (NPA and NBO analysis)
   Christopher J. Cramer and Donald G. Truhlar   : smd solvation model
   Lars Goerigk                                  : TD-DFT with DH, B97 family of functionals
   V. Asgeirsson, H. Jonsson                     : NEB implementation
   FAccTs GmbH                                   : IRC, NEB, NEB-TS, Multilevel, MM, QM/MM, CI optimization
   S Lehtola, MJT Oliveira, MAL Marques          : LibXC Library


 Your calculation uses the libint2 library for the computation of 2-el integrals
 For citations please refer to: http://libint.valeyev.net

 Your ORCA version has been built with support for libXC version: 4.2.3
 For citations please refer to: https://tddft.org/programs/libxc/

 This ORCA versions uses:
   CBLAS   interface :  Fast vector & matrix operations
   LAPACKE interface :  Fast linear algebra routines
   SCALAPACK package :  Parallel linear algebra routines


----- Orbital basis set information -----
Your calculation utilizes the basis: def2-TZVP
   F. Weigend and R. Ahlrichs, Phys. Chem. Chem. Phys. 7, 3297 (2005).

================================================================================
                                        WARNINGS
                       Please study these warnings very carefully!
================================================================================


WARNING: The frozen-core approximation for MP2-gradient calculations is turned on by default.

INFO   : the flag for use of LIBINT has been found!

================================================================================
                                       INPUT FILE
================================================================================
NAME = 12h2o.su.etal.mol0,3,5,7,9,10,11-orca.engrad-mp2.def2tzvp.frozencore.inp
|  1> # 12h2o.su.etal.mol0,3,5,7,9,10,11
|  2> ! MP2 def2-TZVP EnGrad TightSCF
|  3> 
|  4> %pal
|  5>     nprocs 6
|  6> end
|  7> 
|  8> %maxcore 8000
|  9> 
| 10> %scf
| 11>     ConvForced true
| 12> end
| 13> 
| 14> *xyz 0 1
| 15> O   1.794470000   0.923410000   2.768350000
| 16> H   2.338250000   1.359750000   3.430940000
| 17> H   0.879480000   1.303000000   2.865760000
| 18> O  -1.752130000  -0.741530000  -2.896280000
| 19> H  -2.036450000  -0.920500000  -1.984040000
| 20> H  -0.921210000  -1.242140000  -2.984230000
| 21> O   0.885520000  -1.737840000   0.052730000
| 22> H   1.284090000  -0.839590000   0.017130000
| 23> H   1.032320000  -2.090180000  -0.841890000
| 24> O  -1.737840000  -0.885520000  -0.052730000
| 25> H  -2.090180000  -1.032320000   0.841890000
| 26> H  -0.839590000  -1.284090000  -0.017130000
| 27> O   0.741530000  -1.752130000   2.896280000
| 28> H   0.920500000  -2.036450000   1.984040000
| 29> H   1.242140000  -0.921210000   2.984230000
| 30> O  -0.923410000   1.794470000  -2.768350000
| 31> H  -1.359750000   2.338250000  -3.430940000
| 32> H  -1.303000000   0.879480000  -2.865760000
| 33> O  -0.741530000   1.752130000   2.896280000
| 34> H  -0.920500000   2.036450000   1.984040000
| 35> H  -1.242140000   0.921210000   2.984230000
| 36> *
| 37> 
| 38>                          ****END OF INPUT****
================================================================================

                     *******************************
                     * Energy+Gradient Calculation *
                     *******************************

---------------------------------
CARTESIAN COORDINATES (ANGSTROEM)
---------------------------------
  O      1.794470    0.923410    2.768350
  H      2.338250    1.359750    3.430940
  H      0.879480    1.303000    2.865760
  O     -1.752130   -0.741530   -2.896280
  H     -2.036450   -0.920500   -1.984040
  H     -0.921210   -1.242140   -2.984230
  O      0.885520   -1.737840    0.052730
  H      1.284090   -0.839590    0.017130
  H      1.032320   -2.090180   -0.841890
  O     -1.737840   -0.885520   -0.052730
  H     -2.090180   -1.032320    0.841890
  H     -0.839590   -1.284090   -0.017130
  O      0.741530   -1.752130    2.896280
  H      0.920500   -2.036450    1.984040
  H      1.242140   -0.921210    2.984230
  O     -0.923410    1.794470   -2.768350
  H     -1.359750    2.338250   -3.430940
  H     -1.303000    0.879480   -2.865760
  O     -0.741530    1.752130    2.896280
  H     -0.920500    2.036450    1.984040
  H     -1.242140    0.921210    2.984230

----------------------------
CARTESIAN COORDINATES (A.U.)
----------------------------
  NO LB      ZA    FRAG     MASS         X           Y           Z
   0 O     8.0000    0    15.999    3.391057    1.744992    5.231423
   1 H     1.0000    0     1.008    4.418652    2.569555    6.483537
   2 H     1.0000    0     1.008    1.661976    2.462313    5.415502
   3 O     8.0000    0    15.999   -3.311046   -1.401289   -5.473176
   4 H     1.0000    0     1.008   -3.848333   -1.739493   -3.749292
   5 H     1.0000    0     1.008   -1.740835   -2.347304   -5.639377
   6 O     8.0000    0    15.999    1.673390   -3.284042    0.099645
   7 H     1.0000    0     1.008    2.426578   -1.586595    0.032371
   8 H     1.0000    0     1.008    1.950802   -3.949868   -1.590942
   9 O     8.0000    0    15.999   -3.284042   -1.673390   -0.099645
  10 H     1.0000    0     1.008   -3.949868   -1.950802    1.590942
  11 H     1.0000    0     1.008   -1.586595   -2.426578   -0.032371
  12 O     8.0000    0    15.999    1.401289   -3.311046    5.473176
  13 H     1.0000    0     1.008    1.739493   -3.848333    3.749292
  14 H     1.0000    0     1.008    2.347304   -1.740835    5.639377
  15 O     8.0000    0    15.999   -1.744992    3.391057   -5.231423
  16 H     1.0000    0     1.008   -2.569555    4.418652   -6.483537
  17 H     1.0000    0     1.008   -2.462313    1.661976   -5.415502
  18 O     8.0000    0    15.999   -1.401289    3.311046    5.473176
  19 H     1.0000    0     1.008   -1.739493    3.848333    3.749292
  20 H     1.0000    0     1.008   -2.347304    1.740835    5.639377

--------------------------------
INTERNAL COORDINATES (ANGSTROEM)
--------------------------------
 O      0   0   0     0.000000000000     0.00000000     0.00000000
 H      1   0   0     0.961828878803     0.00000000     0.00000000
 H      1   2   0     0.995381322057   106.21731035     0.00000000
 O      3   1   2     6.656318732948    99.29837960   164.71437028
 H      4   3   1     0.972136791249    50.19793542   121.30203245
 H      4   3   1     0.974050112161    84.18963930     7.83137870
 O      6   4   3     3.568349453809   115.24367641    18.95239673
 H      7   6   4     0.983350632989    92.72348103   278.95950655
 H      7   6   4     0.972645187106    48.99927156   173.15988704
 O      5   4   3     1.954571525578   151.55104644   348.32540145
 H     10   5   4     0.972645187106   148.29772527   173.62852352
 H     10   5   4     0.983350632989    99.67573411   310.71905253
 O      7   6   4     2.847229166523   145.59603090    19.21090229
 H     13   7   6     0.972136791249    19.08819947   128.45271294
 H     13   7   6     0.974050112161    93.43428486   252.54899283
 O      4   3   1     2.671037050155    62.88669193   259.82381314
 H     16   4   3     0.961828878803   111.28648995   202.27526567
 H     16   4   3     0.995381322057     5.27275451   218.50755098
 O      3   1   2     1.682356278379   171.61043709   195.73896161
 H     19   3   1     0.972136791249   103.79460456   289.35412162
 H     19   3   1     0.974050112161   105.61118924    38.30604821

---------------------------
INTERNAL COORDINATES (A.U.)
---------------------------
 O      0   0   0     0.000000000000     0.00000000     0.00000000
 H      1   0   0     1.817593168635     0.00000000     0.00000000
 H      1   2   0     1.880998097508   106.21731035     0.00000000
 O      3   1   2    12.578619465362    99.29837960   164.71437028
 H      4   3   1     1.837072300170    50.19793542   121.30203245
 H      4   3   1     1.840687952699    84.18963930     7.83137870
 O      6   4   3     6.743203217827   115.24367641    18.95239673
 H      7   6   4     1.858263389967    92.72348103   278.95950655
 H      7   6   4     1.838033029106    48.99927156   173.15988704
 O      5   4   3     3.693604892503   151.55104644   348.32540145
 H     10   5   4     1.838033029106   148.29772527   173.62852352
 H     10   5   4     1.858263389967    99.67573411   310.71905253
 O      7   6   4     5.380483365242   145.59603090    19.21090229
 H     13   7   6     1.837072300170    19.08819947   128.45271294
 H     13   7   6     1.840687952699    93.43428486   252.54899283
 O      4   3   1     5.047528518350    62.88669193   259.82381314
 H     16   4   3     1.817593168635   111.28648995   202.27526567
 H     16   4   3     1.880998097508     5.27275451   218.50755098
 O      3   1   2     3.179192625819   171.61043709   195.73896161
 H     19   3   1     1.837072300170   103.79460456   289.35412162
 H     19   3   1     1.840687952699   105.61118924    38.30604821

---------------------
BASIS SET INFORMATION
---------------------
There are 2 groups of distinct atoms

 Group   1 Type O   : 11s6p2d1f contracted to 5s3p2d1f pattern {62111/411/11/1}
 Group   2 Type H   : 5s1p contracted to 3s1p pattern {311/1}

Atom   0O    basis set group =>   1
Atom   1H    basis set group =>   2
Atom   2H    basis set group =>   2
Atom   3O    basis set group =>   1
Atom   4H    basis set group =>   2
Atom   5H    basis set group =>   2
Atom   6O    basis set group =>   1
Atom   7H    basis set group =>   2
Atom   8H    basis set group =>   2
Atom   9O    basis set group =>   1
Atom  10H    basis set group =>   2
Atom  11H    basis set group =>   2
Atom  12O    basis set group =>   1
Atom  13H    basis set group =>   2
Atom  14H    basis set group =>   2
Atom  15O    basis set group =>   1
Atom  16H    basis set group =>   2
Atom  17H    basis set group =>   2
Atom  18O    basis set group =>   1
Atom  19H    basis set group =>   2
Atom  20H    basis set group =>   2


           ************************************************************
           *        Program running with 6 parallel MPI-processes     *
           *              working on a common directory               *
           ************************************************************
------------------------------------------------------------------------------
                           ORCA GTO INTEGRAL CALCULATION
------------------------------------------------------------------------------

                         BASIS SET STATISTICS AND STARTUP INFO

 # of primitive gaussian shells          ...  224
 # of primitive gaussian functions       ...  434
 # of contracted shells                  ...  133
 # of contracted basis functions         ...  301
 Highest angular momentum                ...    3
 Maximum contraction depth               ...    6
 Integral package used                   ... LIBINT
 Integral threshhold            Thresh   ...  2.500e-11
 Primitive cut-off              TCut     ...  2.500e-12


------------------------------ INTEGRAL EVALUATION ----------------------------


 * One electron integrals 
 Pre-screening matrix                    ... done
 Shell pair data                         ... done (   0.002 sec)



           ************************************************************
           *        Program running with 6 parallel MPI-processes     *
           *              working on a common directory               *
           ************************************************************
-------------------------------------------------------------------------------
                                 ORCA SCF
-------------------------------------------------------------------------------

------------
SCF SETTINGS
------------
Hamiltonian:
 Ab initio Hamiltonian  Method          .... Hartree-Fock(GTOs)


General Settings:
 Integral files         IntName         .... 12h2o.su.etal.mol0,3,5,7,9,10,11-orca.engrad-mp2.def2tzvp.frozencore
 Hartree-Fock type      HFTyp           .... RHF
 Total Charge           Charge          ....    0
 Multiplicity           Mult            ....    1
 Number of Electrons    NEL             ....   70
 Basis Dimension        Dim             ....  301
 Nuclear Repulsion      ENuc            ....    342.8669989006 Eh

Convergence Acceleration:
 DIIS                   CNVDIIS         .... on
   Start iteration      DIISMaxIt       ....    12
   Startup error        DIISStart       ....  0.200000
   # of expansion vecs  DIISMaxEq       ....     5
   Bias factor          DIISBfac        ....   1.050
   Max. coefficient     DIISMaxC        ....  10.000
 Newton-Raphson         CNVNR           .... off
 SOSCF                  CNVSOSCF        .... on
   Start iteration      SOSCFMaxIt      ....   150
   Startup grad/error   SOSCFStart      ....  0.003300
 Level Shifting         CNVShift        .... on
   Level shift para.    LevelShift      ....    0.2500
   Turn off err/grad.   ShiftErr        ....    0.0010
 Zerner damping         CNVZerner       .... off
 Static damping         CNVDamp         .... on
   Fraction old density DampFac         ....    0.7000
   Max. Damping (<1)    DampMax         ....    0.9800
   Min. Damping (>=0)   DampMin         ....    0.0000
   Turn off err/grad.   DampErr         ....    0.1000
 Fernandez-Rico         CNVRico         .... off

SCF Procedure:
 Maximum # iterations   MaxIter         ....   125
 SCF integral mode      SCFMode         .... Direct
   Integral package                     .... LIBINT
 Reset frequency        DirectResetFreq ....    20
 Integral Threshold     Thresh          ....  2.500e-11 Eh
 Primitive CutOff       TCut            ....  2.500e-12 Eh

Convergence Tolerance:
 Convergence Check Mode ConvCheckMode   .... Total+1el-Energy
 Convergence forced     ConvForced      .... 1
 Energy Change          TolE            ....  1.000e-08 Eh
 1-El. energy change                    ....  1.000e-05 Eh
 Orbital Gradient       TolG            ....  1.000e-05
 Orbital Rotation angle TolX            ....  1.000e-05
 DIIS Error             TolErr          ....  5.000e-07


Diagonalization of the overlap matrix:
Smallest eigenvalue                        ... 4.053e-03
Time for diagonalization                   ...    0.249 sec
Threshold for overlap eigenvalues          ... 1.000e-08
Number of eigenvalues below threshold      ... 0
Time for construction of square roots      ...    0.014 sec
Total time needed                          ...    0.264 sec

-------------------
DFT GRID GENERATION
-------------------

General Integration Accuracy     IntAcc      ...  4.340
Radial Grid Type                 RadialGrid  ... Gauss-Chebyshev
Angular Grid (max. acc.)         AngularGrid ... Lebedev-110
Angular grid pruning method      GridPruning ... 3 (G Style)
Weight generation scheme         WeightScheme... Becke
Basis function cutoff            BFCut       ...    1.0000e-11
Integration weight cutoff        WCut        ...    1.0000e-14
Grids for H and He will be reduced by one unit

# of grid points (after initial pruning)     ...  23128 (   0.0 sec)
# of grid points (after weights+screening)   ...  21765 (   0.0 sec)
nearest neighbour list constructed           ...    0.0 sec
Grid point re-assignment to atoms done       ...    0.0 sec
Grid point division into batches done        ...    0.0 sec
Reduced shell lists constructed in    0.0 sec

Total number of grid points                  ...    21765
Total number of batches                      ...      351
Average number of points per batch           ...       62
Average number of grid points per atom       ...     1036
Average number of shells per batch           ...    59.07 (44.41%)
Average number of basis functions per batch  ...   119.10 (39.57%)
Average number of large shells per batch     ...    40.33 (68.28%)
Average number of large basis fcns per batch ...    81.17 (68.15%)
Maximum spatial batch extension              ...  15.87, 14.40, 14.52 au
Average spatial batch extension              ...   0.57,  0.60,  0.59 au

Time for grid setup =    0.137 sec

------------------------------
INITIAL GUESS: MODEL POTENTIAL
------------------------------
Loading Hartree-Fock densities                     ... done
Calculating cut-offs                               ... done
Setting up the integral package                    ... done
Initializing the effective Hamiltonian             ... done
Starting the Coulomb interaction                   ... done (   0.0 sec)
Reading the grid                                   ... done
Mapping shells                                     ... done
Starting the XC term evaluation                    ... done (   0.0 sec)
Transforming the Hamiltonian                       ... done (   0.0 sec)
Diagonalizing the Hamiltonian                      ... done (   0.0 sec)
Back transforming the eigenvectors                 ... done (   0.0 sec)
Now organizing SCF variables                       ... done
                      ------------------
                      INITIAL GUESS DONE (   0.3 sec)
                      ------------------
--------------
SCF ITERATIONS
--------------
ITER       Energy         Delta-E        Max-DP      RMS-DP      [F,P]     Damp
               ***  Starting incremental Fock matrix formation  ***
  0   -531.8121100530   0.000000000000 0.04400635  0.00089783  0.3501731 0.7000
  1   -532.0560196350  -0.243909581975 0.02933869  0.00062220  0.2169520 0.7000
                               ***Turning on DIIS***
  2   -532.1853396438  -0.129320008875 0.01640576  0.00034807  0.1634575 0.7000
  3   -533.3537231864  -1.168383542609 0.00738862  0.00016005  0.1218536 0.7000
  4   -533.1168557012   0.236867485266 0.01616140  0.00037134  0.0862054 0.0000
  5   -532.4817103608   0.635145340329 0.00216862  0.00005929  0.0052790 0.0000
                      *** Initiating the SOSCF procedure ***
                           *** Shutting down DIIS ***
                      *** Re-Reading the Fockian *** 
                      *** Removing any level shift *** 
ITER      Energy       Delta-E        Grad      Rot      Max-DP    RMS-DP
  6   -532.44566917   0.0360411953  0.000663  0.000663  0.001344  0.000036
               *** Restarting incremental Fock matrix formation ***
  7   -532.43521784   0.0104513207  0.000237  0.000354  0.000625  0.000016
  8   -532.43522788  -0.0000100328  0.000146  0.000290  0.000449  0.000013
  9   -532.43523024  -0.0000023666  0.000071  0.000046  0.000084  0.000002
 10   -532.43523043  -0.0000001842  0.000015  0.000007  0.000020  0.000000
 11   -532.43523043  -0.0000000061  0.000003  0.000003  0.000005  0.000000
                  ***Gradient check signals convergence***
              ***Rediagonalizing the Fockian in SOSCF/NRSCF***

               *****************************************************
               *                     SUCCESS                       *
               *           SCF CONVERGED AFTER  12 CYCLES          *
               *****************************************************


----------------
TOTAL SCF ENERGY
----------------

Total Energy       :         -532.43523043 Eh          -14488.29919 eV

Components:
Nuclear Repulsion  :          342.86699890 Eh            9329.88536 eV
Electronic Energy  :         -875.30222933 Eh          -23818.18455 eV
One Electron Energy:        -1418.28128670 Eh          -38593.39586 eV
Two Electron Energy:          542.97905736 Eh           14775.21131 eV

Virial components:
Potential Energy   :        -1064.19102720 Eh          -28958.11005 eV
Kinetic Energy     :          531.75579677 Eh           14469.81086 eV
Virial Ratio       :            2.00127772


---------------
SCF CONVERGENCE
---------------

  Last Energy change         ...    1.8349e-10  Tolerance :   1.0000e-08
  Last MAX-Density change    ...    1.9852e-06  Tolerance :   1.0000e-07
  Last RMS-Density change    ...    3.9116e-08  Tolerance :   5.0000e-09
  Last Orbital Gradient      ...    9.8633e-07  Tolerance :   1.0000e-05
  Last Orbital Rotation      ...    1.1683e-06  Tolerance :   1.0000e-05

             **** THE GBW FILE WAS UPDATED (12h2o.su.etal.mol0,3,5,7,9,10,11-orca.engrad-mp2.def2tzvp.frozencore.gbw) ****
             **** DENSITY FILE WAS UPDATED (12h2o.su.etal.mol0,3,5,7,9,10,11-orca.engrad-mp2.def2tzvp.frozencore.scfp) ****
             **** ENERGY FILE WAS UPDATED (12h2o.su.etal.mol0,3,5,7,9,10,11-orca.engrad-mp2.def2tzvp.frozencore.en.tmp) ****
             **** THE GBW FILE WAS UPDATED (12h2o.su.etal.mol0,3,5,7,9,10,11-orca.engrad-mp2.def2tzvp.frozencore.gbw) ****
             **** DENSITY FILE WAS UPDATED (12h2o.su.etal.mol0,3,5,7,9,10,11-orca.engrad-mp2.def2tzvp.frozencore.scfp) ****
----------------
ORBITAL ENERGIES
----------------

  NO   OCC          E(Eh)            E(eV) 
   0   2.0000     -20.624766      -561.2284 
   1   2.0000     -20.600960      -560.5806 
   2   2.0000     -20.575515      -559.8882 
   3   2.0000     -20.571052      -559.7668 
   4   2.0000     -20.550854      -559.2172 
   5   2.0000     -20.521312      -558.4133 
   6   2.0000     -20.514298      -558.2224 
   7   2.0000      -1.407874       -38.3102 
   8   2.0000      -1.386829       -37.7375 
   9   2.0000      -1.366243       -37.1774 
  10   2.0000      -1.351307       -36.7709 
  11   2.0000      -1.335129       -36.3307 
  12   2.0000      -1.305962       -35.5370 
  13   2.0000      -1.296452       -35.2783 
  14   2.0000      -0.765115       -20.8198 
  15   2.0000      -0.743235       -20.2244 
  16   2.0000      -0.732762       -19.9395 
  17   2.0000      -0.721537       -19.6340 
  18   2.0000      -0.719899       -19.5894 
  19   2.0000      -0.688119       -18.7247 
  20   2.0000      -0.684983       -18.6393 
  21   2.0000      -0.644441       -17.5361 
  22   2.0000      -0.625913       -17.0320 
  23   2.0000      -0.616987       -16.7891 
  24   2.0000      -0.592348       -16.1186 
  25   2.0000      -0.582353       -15.8466 
  26   2.0000      -0.558667       -15.2021 
  27   2.0000      -0.546253       -14.8643 
  28   2.0000      -0.543476       -14.7887 
  29   2.0000      -0.529512       -14.4088 
  30   2.0000      -0.520515       -14.1639 
  31   2.0000      -0.502739       -13.6802 
  32   2.0000      -0.498078       -13.5534 
  33   2.0000      -0.471112       -12.8196 
  34   2.0000      -0.464941       -12.6517 
  35   0.0000       0.074856         2.0369 
  36   0.0000       0.105417         2.8685 
  37   0.0000       0.142924         3.8892 
  38   0.0000       0.160376         4.3640 
  39   0.0000       0.166982         4.5438 
  40   0.0000       0.175361         4.7718 
  41   0.0000       0.199160         5.4194 
  42   0.0000       0.214438         5.8351 
  43   0.0000       0.239861         6.5269 
  44   0.0000       0.265257         7.2180 
  45   0.0000       0.310077         8.4376 
  46   0.0000       0.315934         8.5970 
  47   0.0000       0.330537         8.9944 
  48   0.0000       0.338767         9.2183 
  49   0.0000       0.422513        11.4972 
  50   0.0000       0.457388        12.4462 
  51   0.0000       0.476190        12.9578 
  52   0.0000       0.481778        13.1098 
  53   0.0000       0.496499        13.5104 
  54   0.0000       0.516183        14.0461 
  55   0.0000       0.530729        14.4419 
  56   0.0000       0.545680        14.8487 
  57   0.0000       0.549777        14.9602 
  58   0.0000       0.553657        15.0658 
  59   0.0000       0.572778        15.5861 
  60   0.0000       0.576421        15.6852 
  61   0.0000       0.595159        16.1951 
  62   0.0000       0.604176        16.4405 
  63   0.0000       0.614184        16.7128 
  64   0.0000       0.618630        16.8338 
  65   0.0000       0.628687        17.1075 
  66   0.0000       0.639021        17.3886 
  67   0.0000       0.651908        17.7393 
  68   0.0000       0.659427        17.9439 
  69   0.0000       0.672959        18.3121 
  70   0.0000       0.702232        19.1087 
  71   0.0000       0.705614        19.2007 
  72   0.0000       0.729589        19.8531 
  73   0.0000       0.740602        20.1528 
  74   0.0000       0.748910        20.3789 
  75   0.0000       0.759739        20.6735 
  76   0.0000       0.774592        21.0777 
  77   0.0000       0.775445        21.1009 
  78   0.0000       0.793954        21.6046 
  79   0.0000       0.805327        21.9141 
  80   0.0000       0.831714        22.6321 
  81   0.0000       0.843741        22.9594 
  82   0.0000       0.859217        23.3805 
  83   0.0000       0.898408        24.4469 
  84   0.0000       0.940242        25.5853 
  85   0.0000       0.966567        26.3016 
  86   0.0000       0.981074        26.6964 
  87   0.0000       1.010442        27.4955 
  88   0.0000       1.033949        28.1352 
  89   0.0000       1.044910        28.4334 
  90   0.0000       1.061181        28.8762 
  91   0.0000       1.339973        36.4625 
  92   0.0000       1.353382        36.8274 
  93   0.0000       1.367986        37.2248 
  94   0.0000       1.378499        37.5109 
  95   0.0000       1.379489        37.5378 
  96   0.0000       1.405855        38.2553 
  97   0.0000       1.434595        39.0373 
  98   0.0000       1.444110        39.2962 
  99   0.0000       1.456967        39.6461 
 100   0.0000       1.465784        39.8860 
 101   0.0000       1.475836        40.1595 
 102   0.0000       1.493530        40.6410 
 103   0.0000       1.513386        41.1813 
 104   0.0000       1.530085        41.6357 
 105   0.0000       1.548078        42.1254 
 106   0.0000       1.581678        43.0396 
 107   0.0000       1.586671        43.1755 
 108   0.0000       1.596770        43.4503 
 109   0.0000       1.601212        43.5712 
 110   0.0000       1.642485        44.6943 
 111   0.0000       1.643601        44.7247 
 112   0.0000       1.776280        48.3350 
 113   0.0000       1.786428        48.6112 
 114   0.0000       1.800418        48.9919 
 115   0.0000       1.823971        49.6328 
 116   0.0000       1.836681        49.9786 
 117   0.0000       1.852358        50.4052 
 118   0.0000       1.875879        51.0453 
 119   0.0000       1.905865        51.8612 
 120   0.0000       1.932692        52.5912 
 121   0.0000       1.944043        52.9001 
 122   0.0000       1.963555        53.4310 
 123   0.0000       1.984083        53.9896 
 124   0.0000       1.995198        54.2921 
 125   0.0000       2.029726        55.2317 
 126   0.0000       2.053052        55.8664 
 127   0.0000       2.064413        56.1755 
 128   0.0000       2.082927        56.6793 
 129   0.0000       2.116922        57.6044 
 130   0.0000       2.139921        58.2302 
 131   0.0000       2.159645        58.7669 
 132   0.0000       2.171232        59.0822 
 133   0.0000       2.229982        60.6809 
 134   0.0000       2.262372        61.5623 
 135   0.0000       2.272903        61.8488 
 136   0.0000       2.287734        62.2524 
 137   0.0000       2.308106        62.8068 
 138   0.0000       2.316547        63.0364 
 139   0.0000       2.324969        63.2656 
 140   0.0000       2.340329        63.6836 
 141   0.0000       2.342590        63.7451 
 142   0.0000       2.354460        64.0681 
 143   0.0000       2.383605        64.8612 
 144   0.0000       2.398175        65.2577 
 145   0.0000       2.404053        65.4176 
 146   0.0000       2.409333        65.5613 
 147   0.0000       2.434298        66.2406 
 148   0.0000       2.479885        67.4811 
 149   0.0000       2.482607        67.5552 
 150   0.0000       2.522368        68.6371 
 151   0.0000       2.535494        68.9943 
 152   0.0000       2.551588        69.4322 
 153   0.0000       2.556927        69.5775 
 154   0.0000       2.590737        70.4975 
 155   0.0000       2.595151        70.6176 
 156   0.0000       2.600649        70.7673 
 157   0.0000       2.617506        71.2260 
 158   0.0000       2.626797        71.4788 
 159   0.0000       2.643040        71.9208 
 160   0.0000       2.650723        72.1298 
 161   0.0000       2.660238        72.3888 
 162   0.0000       2.684596        73.0516 
 163   0.0000       2.707313        73.6697 
 164   0.0000       2.727358        74.2152 
 165   0.0000       2.745669        74.7135 
 166   0.0000       2.791315        75.9555 
 167   0.0000       2.805071        76.3299 
 168   0.0000       2.878155        78.3186 
 169   0.0000       2.895709        78.7963 
 170   0.0000       2.906588        79.0923 
 171   0.0000       2.921089        79.4869 
 172   0.0000       2.934655        79.8560 
 173   0.0000       2.950590        80.2896 
 174   0.0000       2.959598        80.5348 
 175   0.0000       2.984766        81.2196 
 176   0.0000       3.003720        81.7354 
 177   0.0000       3.017136        82.1004 
 178   0.0000       3.025857        82.3377 
 179   0.0000       3.051361        83.0318 
 180   0.0000       3.071682        83.5847 
 181   0.0000       3.095248        84.2260 
 182   0.0000       3.103579        84.4527 
 183   0.0000       3.112236        84.6882 
 184   0.0000       3.147662        85.6522 
 185   0.0000       3.181924        86.5845 
 186   0.0000       3.186676        86.7139 
 187   0.0000       3.232796        87.9689 
 188   0.0000       3.240799        88.1866 
 189   0.0000       3.245833        88.3236 
 190   0.0000       3.283695        89.3539 
 191   0.0000       3.292363        89.5897 
 192   0.0000       3.351449        91.1976 
 193   0.0000       3.432392        93.4001 
 194   0.0000       3.497472        95.1710 
 195   0.0000       3.514940        95.6464 
 196   0.0000       3.990503       108.5871 
 197   0.0000       3.999322       108.8271 
 198   0.0000       4.036613       109.8418 
 199   0.0000       4.067798       110.6904 
 200   0.0000       4.094836       111.4262 
 201   0.0000       4.116872       112.0258 
 202   0.0000       4.122997       112.1924 
 203   0.0000       4.247305       115.5751 
 204   0.0000       4.273561       116.2895 
 205   0.0000       4.300670       117.0272 
 206   0.0000       4.333750       117.9273 
 207   0.0000       4.355999       118.5328 
 208   0.0000       4.380842       119.2088 
 209   0.0000       4.412911       120.0814 
 210   0.0000       5.484294       149.2352 
 211   0.0000       5.507160       149.8574 
 212   0.0000       5.530037       150.4800 
 213   0.0000       5.535775       150.6361 
 214   0.0000       5.552277       151.0851 
 215   0.0000       5.582319       151.9026 
 216   0.0000       5.591123       152.1422 
 217   0.0000       5.610310       152.6643 
 218   0.0000       5.643748       153.5742 
 219   0.0000       5.644638       153.5984 
 220   0.0000       5.659866       154.0128 
 221   0.0000       5.670618       154.3054 
 222   0.0000       5.688269       154.7857 
 223   0.0000       5.688740       154.7985 
 224   0.0000       5.760203       156.7431 
 225   0.0000       5.787651       157.4900 
 226   0.0000       5.791176       157.5859 
 227   0.0000       5.797691       157.7632 
 228   0.0000       5.812584       158.1685 
 229   0.0000       5.816044       158.2626 
 230   0.0000       5.825730       158.5262 
 231   0.0000       5.834371       158.7613 
 232   0.0000       5.840528       158.9288 
 233   0.0000       5.850864       159.2101 
 234   0.0000       5.853209       159.2739 
 235   0.0000       5.857218       159.3830 
 236   0.0000       5.875476       159.8798 
 237   0.0000       5.879098       159.9784 
 238   0.0000       5.884217       160.1177 
 239   0.0000       5.889623       160.2648 
 240   0.0000       5.897965       160.4918 
 241   0.0000       5.915419       160.9667 
 242   0.0000       5.935707       161.5188 
 243   0.0000       5.938470       161.5940 
 244   0.0000       5.972686       162.5250 
 245   0.0000       6.410299       174.4331 
 246   0.0000       6.449115       175.4893 
 247   0.0000       6.454498       175.6358 
 248   0.0000       6.475608       176.2103 
 249   0.0000       6.477305       176.2564 
 250   0.0000       6.511131       177.1769 
 251   0.0000       6.526314       177.5900 
 252   0.0000       6.631941       180.4643 
 253   0.0000       6.670336       181.5091 
 254   0.0000       6.698546       182.2767 
 255   0.0000       6.702839       182.3935 
 256   0.0000       6.735039       183.2697 
 257   0.0000       6.749643       183.6671 
 258   0.0000       6.757208       183.8730 
 259   0.0000       6.814542       185.4331 
 260   0.0000       6.828784       185.8207 
 261   0.0000       6.832806       185.9301 
 262   0.0000       6.842405       186.1913 
 263   0.0000       6.870549       186.9571 
 264   0.0000       6.874470       187.0638 
 265   0.0000       6.889441       187.4712 
 266   0.0000       6.889465       187.4719 
 267   0.0000       6.896626       187.6667 
 268   0.0000       6.913950       188.1381 
 269   0.0000       6.920380       188.3131 
 270   0.0000       6.922356       188.3669 
 271   0.0000       6.953158       189.2050 
 272   0.0000       6.954658       189.2459 
 273   0.0000       6.986034       190.0997 
 274   0.0000       6.988776       190.1743 
 275   0.0000       6.993626       190.3062 
 276   0.0000       6.996825       190.3933 
 277   0.0000       7.017369       190.9523 
 278   0.0000       7.056547       192.0184 
 279   0.0000       7.087430       192.8588 
 280   0.0000       7.325963       199.3496 
 281   0.0000       7.384063       200.9306 
 282   0.0000       7.417761       201.8475 
 283   0.0000       7.424078       202.0194 
 284   0.0000       7.428486       202.1394 
 285   0.0000       7.470927       203.2943 
 286   0.0000       7.484680       203.6685 
 287   0.0000       7.498599       204.0473 
 288   0.0000       7.508812       204.3252 
 289   0.0000       7.532922       204.9812 
 290   0.0000       7.558466       205.6763 
 291   0.0000       7.564921       205.8520 
 292   0.0000       7.583207       206.3496 
 293   0.0000       7.616691       207.2607 
 294   0.0000      44.908722      1222.0285 
 295   0.0000      44.921387      1222.3731 
 296   0.0000      44.962131      1223.4818 
 297   0.0000      44.971148      1223.7271 
 298   0.0000      44.975947      1223.8577 
 299   0.0000      44.997628      1224.4477 
 300   0.0000      45.019415      1225.0406 

                    ********************************
                    * MULLIKEN POPULATION ANALYSIS *
                    ********************************

-----------------------
MULLIKEN ATOMIC CHARGES
-----------------------
   0 O :   -0.774805
   1 H :    0.352184
   2 H :    0.405719
   3 O :   -0.719567
   4 H :    0.407705
   5 H :    0.337519
   6 O :   -0.740913
   7 H :    0.395589
   8 H :    0.369480
   9 O :   -0.756677
  10 H :    0.355877
  11 H :    0.382472
  12 O :   -0.761463
  13 H :    0.373747
  14 H :    0.374608
  15 O :   -0.763534
  16 H :    0.332168
  17 H :    0.395502
  18 O :   -0.715824
  19 H :    0.378344
  20 H :    0.371868
Sum of atomic charges:    0.0000000

--------------------------------
MULLIKEN REDUCED ORBITAL CHARGES
--------------------------------
  0 O s       :     3.806167  s :     3.806167
      pz      :     1.732879  p :     4.944365
      px      :     1.427339
      py      :     1.784147
      dz2     :     0.003973  d :     0.022841
      dxz     :     0.004759
      dyz     :     0.005198
      dx2y2   :     0.002330
      dxy     :     0.006581
      f0      :     0.000089  f :     0.001432
      f+1     :     0.000333
      f-1     :     0.000177
      f+2     :     0.000062
      f-2     :     0.000357
      f+3     :     0.000082
      f-3     :     0.000331
  1 H s       :     0.602120  s :     0.602120
      pz      :     0.017121  p :     0.045696
      px      :     0.013690
      py      :     0.014885
  2 H s       :     0.538181  s :     0.538181
      pz      :     0.010596  p :     0.056100
      px      :     0.032238
      py      :     0.013266
  3 O s       :     3.797946  s :     3.797946
      pz      :     1.580204  p :     4.895045
      px      :     1.531177
      py      :     1.783663
      dz2     :     0.011855  d :     0.025169
      dxz     :     0.001168
      dyz     :     0.002442
      dx2y2   :     0.002528
      dxy     :     0.007177
      f0      :     0.000226  f :     0.001408
      f+1     :     0.000382
      f-1     :     0.000158
      f+2     :     0.000051
      f-2     :     0.000056
      f+3     :     0.000055
      f-3     :     0.000481
  4 H s       :     0.544515  s :     0.544515
      pz      :     0.025091  p :     0.047780
      px      :     0.010985
      py      :     0.011703
  5 H s       :     0.618211  s :     0.618211
      pz      :     0.010918  p :     0.044270
      px      :     0.018115
      py      :     0.015237
  6 O s       :     3.806480  s :     3.806480
      pz      :     1.564805  p :     4.907985
      px      :     1.852362
      py      :     1.490818
      dz2     :     0.011422  d :     0.025018
      dxz     :     0.002221
      dyz     :     0.002778
      dx2y2   :     0.003579
      dxy     :     0.005016
      f0      :     0.000186  f :     0.001431
      f+1     :     0.000117
      f-1     :     0.000457
      f+2     :     0.000069
      f-2     :     0.000038
      f+3     :     0.000456
      f-3     :     0.000108
  7 H s       :     0.563146  s :     0.563146
      pz      :     0.008876  p :     0.041265
      px      :     0.013537
      py      :     0.018851
  8 H s       :     0.586607  s :     0.586607
      pz      :     0.019057  p :     0.043913
      px      :     0.013347
      py      :     0.011509
  9 O s       :     3.808109  s :     3.808109
      pz      :     1.543013  p :     4.924010
      px      :     1.501967
      py      :     1.879029
      dz2     :     0.010212  d :     0.023098
      dxz     :     0.002532
      dyz     :     0.002343
      dx2y2   :     0.002878
      dxy     :     0.005133
      f0      :     0.000207  f :     0.001461
      f+1     :     0.000437
      f-1     :     0.000125
      f+2     :     0.000078
      f-2     :     0.000038
      f+3     :     0.000119
      f-3     :     0.000456
 10 H s       :     0.599113  s :     0.599113
      pz      :     0.018547  p :     0.045010
      px      :     0.012234
      py      :     0.014228
 11 H s       :     0.564054  s :     0.564054
      pz      :     0.009088  p :     0.053474
      px      :     0.028602
      py      :     0.015784
 12 O s       :     3.806751  s :     3.806751
      pz      :     1.537194  p :     4.928575
      px      :     1.820972
      py      :     1.570409
      dz2     :     0.011591  d :     0.024701
      dxz     :     0.002853
      dyz     :     0.001269
      dx2y2   :     0.001997
      dxy     :     0.006991
      f0      :     0.000257  f :     0.001437
      f+1     :     0.000160
      f-1     :     0.000370
      f+2     :     0.000055
      f-2     :     0.000054
      f+3     :     0.000478
      f-3     :     0.000062
 13 H s       :     0.577765  s :     0.577765
      pz      :     0.023378  p :     0.048488
      px      :     0.013330
      py      :     0.011780
 14 H s       :     0.574846  s :     0.574846
      pz      :     0.010054  p :     0.050546
      px      :     0.016454
      py      :     0.024039
 15 O s       :     3.807227  s :     3.807227
      pz      :     1.718537  p :     4.930986
      px      :     1.804188
      py      :     1.408262
      dz2     :     0.004072  d :     0.023849
      dxz     :     0.005606
      dyz     :     0.004737
      dx2y2   :     0.002323
      dxy     :     0.007111
      f0      :     0.000088  f :     0.001472
      f+1     :     0.000185
      f-1     :     0.000329
      f+2     :     0.000070
      f-2     :     0.000360
      f+3     :     0.000352
      f-3     :     0.000089
 16 H s       :     0.621761  s :     0.621761
      pz      :     0.017055  p :     0.046071
      px      :     0.015205
      py      :     0.013811
 17 H s       :     0.547621  s :     0.547621
      pz      :     0.010805  p :     0.056878
      px      :     0.013982
      py      :     0.032091
 18 O s       :     3.800746  s :     3.800746
      pz      :     1.535908  p :     4.887777
      px      :     1.789989
      py      :     1.561880
      dz2     :     0.012572  d :     0.025858
      dxz     :     0.002449
      dyz     :     0.001231
      dx2y2   :     0.002472
      dxy     :     0.007133
      f0      :     0.000247  f :     0.001443
      f+1     :     0.000162
      f-1     :     0.000393
      f+2     :     0.000051
      f-2     :     0.000057
      f+3     :     0.000480
      f-3     :     0.000052
 19 H s       :     0.578178  s :     0.578178
      pz      :     0.019633  p :     0.043477
      px      :     0.012347
      py      :     0.011497
 20 H s       :     0.584861  s :     0.584861
      pz      :     0.010159  p :     0.043271
      px      :     0.014561
      py      :     0.018551


                     *******************************
                     * LOEWDIN POPULATION ANALYSIS *
                     *******************************

----------------------
LOEWDIN ATOMIC CHARGES
----------------------
   0 O :   -0.348667
   1 H :    0.156240
   2 H :    0.155018
   3 O :   -0.284936
   4 H :    0.166231
   5 H :    0.161997
   6 O :   -0.285432
   7 H :    0.191600
   8 H :    0.172657
   9 O :   -0.342423
  10 H :    0.165683
  11 H :    0.152097
  12 O :   -0.359328
  13 H :    0.149731
  14 H :    0.150181
  15 O :   -0.376432
  16 H :    0.147129
  17 H :    0.151856
  18 O :   -0.278293
  19 H :    0.178899
  20 H :    0.176195

-------------------------------
LOEWDIN REDUCED ORBITAL CHARGES
-------------------------------
  0 O s       :     3.460674  s :     3.460674
      pz      :     1.710677  p :     4.857148
      px      :     1.399292
      py      :     1.747179
      dz2     :     0.004343  d :     0.028871
      dxz     :     0.006914
      dyz     :     0.005293
      dx2y2   :     0.003751
      dxy     :     0.008570
      f0      :     0.000074  f :     0.001974
      f+1     :     0.000439
      f-1     :     0.000264
      f+2     :     0.000031
      f-2     :     0.000618
      f+3     :     0.000083
      f-3     :     0.000465
  1 H s       :     0.678881  s :     0.678881
      pz      :     0.065837  p :     0.164879
      px      :     0.045963
      py      :     0.053078
  2 H s       :     0.649797  s :     0.649797
      pz      :     0.033483  p :     0.195186
      px      :     0.114185
      py      :     0.047518
  3 O s       :     3.454535  s :     3.454535
      pz      :     1.547531  p :     4.795773
      px      :     1.522324
      py      :     1.725918
      dz2     :     0.015339  d :     0.032486
      dxz     :     0.001666
      dyz     :     0.001852
      dx2y2   :     0.003871
      dxy     :     0.009758
      f0      :     0.000399  f :     0.002142
      f+1     :     0.000564
      f-1     :     0.000338
      f+2     :     0.000021
      f-2     :     0.000045
      f+3     :     0.000027
      f-3     :     0.000748
  4 H s       :     0.661657  s :     0.661657
      pz      :     0.095277  p :     0.172112
      px      :     0.035672
      py      :     0.041163
  5 H s       :     0.680213  s :     0.680213
      pz      :     0.031608  p :     0.157790
      px      :     0.071212
      py      :     0.054969
  6 O s       :     3.463063  s :     3.463063
      pz      :     1.535200  p :     4.787458
      px      :     1.789198
      py      :     1.463060
      dz2     :     0.015989  d :     0.032831
      dxz     :     0.001412
      dyz     :     0.004109
      dx2y2   :     0.005116
      dxy     :     0.006204
      f0      :     0.000378  f :     0.002079
      f+1     :     0.000206
      f-1     :     0.000743
      f+2     :     0.000041
      f-2     :     0.000045
      f+3     :     0.000596
      f-3     :     0.000071
  7 H s       :     0.653591  s :     0.653591
      pz      :     0.028936  p :     0.154809
      px      :     0.049066
      py      :     0.076807
  8 H s       :     0.668387  s :     0.668387
      pz      :     0.080362  p :     0.158957
      px      :     0.042896
      py      :     0.035699
  9 O s       :     3.461708  s :     3.461708
      pz      :     1.527097  p :     4.848813
      px      :     1.482177
      py      :     1.839539
      dz2     :     0.014395  d :     0.029870
      dxz     :     0.004052
      dyz     :     0.001617
      dx2y2   :     0.003726
      dxy     :     0.006080
      f0      :     0.000402  f :     0.002033
      f+1     :     0.000732
      f-1     :     0.000186
      f+2     :     0.000047
      f-2     :     0.000044
      f+3     :     0.000065
      f-3     :     0.000557
 10 H s       :     0.675448  s :     0.675448
      pz      :     0.079120  p :     0.158869
      px      :     0.036500
      py      :     0.043249
 11 H s       :     0.663326  s :     0.663326
      pz      :     0.029173  p :     0.184577
      px      :     0.102921
      py      :     0.052484
 12 O s       :     3.460738  s :     3.460738
      pz      :     1.525679  p :     4.866456
      px      :     1.792620
      py      :     1.548157
      dz2     :     0.015209  d :     0.030106
      dxz     :     0.002239
      dyz     :     0.002029
      dx2y2   :     0.002049
      dxy     :     0.008580
      f0      :     0.000464  f :     0.002028
      f+1     :     0.000304
      f-1     :     0.000546
      f+2     :     0.000023
      f-2     :     0.000048
      f+3     :     0.000641
      f-3     :     0.000002
 13 H s       :     0.680724  s :     0.680724
      pz      :     0.089757  p :     0.169546
      px      :     0.042601
      py      :     0.037187
 14 H s       :     0.674721  s :     0.674721
      pz      :     0.030779  p :     0.175098
      px      :     0.058008
      py      :     0.086311
 15 O s       :     3.467945  s :     3.467945
      pz      :     1.705288  p :     4.876765
      px      :     1.780188
      py      :     1.391289
      dz2     :     0.004303  d :     0.029710
      dxz     :     0.005822
      dyz     :     0.007233
      dx2y2   :     0.003330
      dxy     :     0.009022
      f0      :     0.000074  f :     0.002013
      f+1     :     0.000267
      f-1     :     0.000440
      f+2     :     0.000034
      f-2     :     0.000634
      f+3     :     0.000479
      f-3     :     0.000085
 16 H s       :     0.688534  s :     0.688534
      pz      :     0.065557  p :     0.164337
      px      :     0.053268
      py      :     0.045512
 17 H s       :     0.654001  s :     0.654001
      pz      :     0.033601  p :     0.194143
      px      :     0.047558
      py      :     0.112984
 18 O s       :     3.457570  s :     3.457570
      pz      :     1.522597  p :     4.785416
      px      :     1.728049
      py      :     1.534770
      dz2     :     0.016512  d :     0.033132
      dxz     :     0.001935
      dyz     :     0.001930
      dx2y2   :     0.003659
      dxy     :     0.009097
      f0      :     0.000447  f :     0.002175
      f+1     :     0.000344
      f-1     :     0.000583
      f+2     :     0.000022
      f-2     :     0.000048
      f+3     :     0.000704
      f-3     :     0.000027
 19 H s       :     0.662140  s :     0.662140
      pz      :     0.082036  p :     0.158962
      px      :     0.041343
      py      :     0.035583
 20 H s       :     0.665855  s :     0.665855
      pz      :     0.029825  p :     0.157950
      px      :     0.054975
      py      :     0.073150


                      *****************************
                      * MAYER POPULATION ANALYSIS *
                      *****************************

  NA   - Mulliken gross atomic population
  ZA   - Total nuclear charge
  QA   - Mulliken gross atomic charge
  VA   - Mayer's total valence
  BVA  - Mayer's bonded valence
  FA   - Mayer's free valence

  ATOM       NA         ZA         QA         VA         BVA        FA
  0 O      8.7748     8.0000    -0.7748     1.6956     1.6956    -0.0000
  1 H      0.6478     1.0000     0.3522     0.8929     0.8929     0.0000
  2 H      0.5943     1.0000     0.4057     0.8679     0.8679    -0.0000
  3 O      8.7196     8.0000    -0.7196     1.7597     1.7597    -0.0000
  4 H      0.5923     1.0000     0.4077     0.8618     0.8618    -0.0000
  5 H      0.6625     1.0000     0.3375     0.9026     0.9026     0.0000
  6 O      8.7409     8.0000    -0.7409     1.7575     1.7575     0.0000
  7 H      0.6044     1.0000     0.3956     0.8594     0.8594     0.0000
  8 H      0.6305     1.0000     0.3695     0.8801     0.8801    -0.0000
  9 O      8.7567     8.0000    -0.7567     1.7142     1.7142     0.0000
 10 H      0.6441     1.0000     0.3559     0.8926     0.8926     0.0000
 11 H      0.6175     1.0000     0.3825     0.8899     0.8899     0.0000
 12 O      8.7615     8.0000    -0.7615     1.7244     1.7244     0.0000
 13 H      0.6263     1.0000     0.3737     0.8789     0.8789    -0.0000
 14 H      0.6254     1.0000     0.3746     0.8968     0.8968     0.0000
 15 O      8.7635     8.0000    -0.7635     1.6932     1.6932    -0.0000
 16 H      0.6678     1.0000     0.3322     0.9052     0.9052    -0.0000
 17 H      0.6045     1.0000     0.3955     0.8799     0.8799    -0.0000
 18 O      8.7158     8.0000    -0.7158     1.7725     1.7725     0.0000
 19 H      0.6217     1.0000     0.3783     0.8715     0.8715     0.0000
 20 H      0.6281     1.0000     0.3719     0.8811     0.8811    -0.0000

  Mayer bond orders larger than 0.100000
B(  0-O ,  1-H ) :   0.8845 B(  0-O ,  2-H ) :   0.7987 B(  3-O ,  4-H ) :   0.8262 
B(  3-O ,  5-H ) :   0.8931 B(  6-O ,  7-H ) :   0.8469 B(  6-O ,  8-H ) :   0.8697 
B(  9-O , 10-H ) :   0.8820 B(  9-O , 11-H ) :   0.8238 B( 12-O , 13-H ) :   0.8696 
B( 12-O , 14-H ) :   0.8468 B( 15-O , 16-H ) :   0.8997 B( 15-O , 17-H ) :   0.8141 
B( 18-O , 19-H ) :   0.8641 B( 18-O , 20-H ) :   0.8664 

-------
TIMINGS
-------

Total SCF time: 0 days 0 hours 0 min 16 sec 

Total time                  ....      16.241 sec
Sum of individual times     ....      15.756 sec  ( 97.0%)

Fock matrix formation       ....      14.756 sec  ( 90.9%)
Diagonalization             ....       0.268 sec  (  1.6%)
Density matrix formation    ....       0.008 sec  (  0.0%)
Population analysis         ....       0.028 sec  (  0.2%)
Initial guess               ....       0.153 sec  (  0.9%)
Orbital Transformation      ....       0.000 sec  (  0.0%)
Orbital Orthonormalization  ....       0.000 sec  (  0.0%)
DIIS solution               ....       0.102 sec  (  0.6%)
SOSCF solution              ....       0.306 sec  (  1.9%)


           ************************************************************
           *        Program running with 6 parallel MPI-processes     *
           *              working on a common directory               *
           ************************************************************

------------------------------------------------------------------------------
                                ORCA  MP2 
------------------------------------------------------------------------------

Freezing NCore=14 chemical core electrons
MP2 will be done in the AO integral direct mode
The Q1-step will be done using symmetric double matrices
Dimension of the basis                    ...  301
Memory devoted for MP2                    ... 8000 MB   
Memory needed for all in one shot         ...  523 MB
Number of MOs that can be treated together...   75      
MP2 density construction                  ... relaxed
The MP2 gradient is requested => amplitudes will be stored on disk
Total number of MOs              ...   28
Number of MOs treated per batch  ...    5 
Number of batches necessary      ...    1 
OPERATORS   0/  0 PASS   0
-----------------------------------------------
 MP2 CORRELATION ENERGY   :     -1.808494500 Eh
-----------------------------------------------


---------------------
MP2 DENSITY FORMATION
---------------------

Completing the external part of the density      ... done
Storing the unrelaxed density                    ... done

Calculating G(D)                                 ... done
Completing the Lagrangian                        ... done
Solving the Z-vector equations                   ... 

------------------------------------------------------------------------------
                           ORCA CP-SCF CALCULATION
------------------------------------------------------------------------------

Input orbitals are from        ... 12h2o.su.etal.mol0,3,5,7,9,10,11-orca.engrad-mp2.def2tzvp.frozencore.gbw
Input Perturbation             ... 12h2o.su.etal.mol0,3,5,7,9,10,11-orca.engrad-mp2.def2tzvp.frozencore.pin.tmp
Wavefunction output            ... 12h2o.su.etal.mol0,3,5,7,9,10,11-orca.engrad-mp2.def2tzvp.frozencore.pout.tmp
Perturbation mode              ... Real perturbation (singlet)
Solver                         ... POPLE
Max. number of iterations      ... 128
Convergence tolerance          ... 1.000e-08
Integral handling              ... Direct
Number of perturbations        ... 1
Number of operators            ... 1
Orbital ranges used for CP-SCF:
 Operator 0:  Orbitals   0... 34  to  35...300
Variables per vector in CP-SCF ... 9310
Number of vectors sought       ... 1
     CP-SCF ITERATION   0: 
     CP-SCF ITERATION   1:      0.000849269437
     CP-SCF ITERATION   2:      0.000020838542
     CP-SCF ITERATION   3:      0.000000580093
     CP-SCF ITERATION   4:      0.000000077314
     CP-SCF ITERATION   5:      0.000000006824
                                                 ... done
Finalizing the relaxed density                   ... done
Transforming P to the AO basis                   ... done
Storing the relaxed density                      ... done

------------------------------------
ENERGY WEIGHTED DENSITY FINALIZATION
------------------------------------

Gathering the parts of the W-matrix              ...                                                      done
Forming the Z-density                            ... done
Transforming Z to the AO basis                   ... done
Calculating G(Z)                                 ... done
Finalizing the W-matrix                          ...                                                      done
Transforming W to the AO basis and storing       ... done

                *********************************************
                * UNRELAXED MP2 DENSITY POPULATION ANALYSIS *
                *********************************************

------------------------------------------------------------------------------
                           ORCA POPULATION ANALYSIS
------------------------------------------------------------------------------
Input electron density              ... 12h2o.su.etal.mol0,3,5,7,9,10,11-orca.engrad-mp2.def2tzvp.frozencore.pmp2ur
BaseName (.gbw .S,...)              ... 12h2o.su.etal.mol0,3,5,7,9,10,11-orca.engrad-mp2.def2tzvp.frozencore

                    ********************************
                    * MULLIKEN POPULATION ANALYSIS *
                    ********************************

-----------------------
MULLIKEN ATOMIC CHARGES
-----------------------
   0 O :   -0.768667
   1 H :    0.349894
   2 H :    0.401246
   3 O :   -0.713097
   4 H :    0.404690
   5 H :    0.334982
   6 O :   -0.734743
   7 H :    0.392867
   8 H :    0.367060
   9 O :   -0.750705
  10 H :    0.353443
  11 H :    0.378118
  12 O :   -0.755541
  13 H :    0.370961
  14 H :    0.371042
  15 O :   -0.758140
  16 H :    0.329901
  17 H :    0.391115
  18 O :   -0.709588
  19 H :    0.375933
  20 H :    0.369229
Sum of atomic charges:    0.0000000

--------------------------------
MULLIKEN REDUCED ORBITAL CHARGES
--------------------------------
  0 O s       :     3.801222  s :     3.801222
      pz      :     1.722241  p :     4.913106
      px      :     1.418682
      py      :     1.772182
      dz2     :     0.009486  d :     0.050326
      dxz     :     0.010170
      dyz     :     0.010653
      dx2y2   :     0.007959
      dxy     :     0.012057
      f0      :     0.000459  f :     0.004014
      f+1     :     0.000698
      f-1     :     0.000543
      f+2     :     0.000433
      f-2     :     0.000723
      f+3     :     0.000459
      f-3     :     0.000700
  1 H s       :     0.602773  s :     0.602773
      pz      :     0.017604  p :     0.047334
      px      :     0.014134
      py      :     0.015596
  2 H s       :     0.541005  s :     0.541005
      pz      :     0.011418  p :     0.057749
      px      :     0.032351
      py      :     0.013980
  3 O s       :     3.792785  s :     3.792785
      pz      :     1.570477  p :     4.863879
      px      :     1.521977
      py      :     1.771425
      dz2     :     0.017072  d :     0.052430
      dxz     :     0.006610
      dyz     :     0.008049
      dx2y2   :     0.008157
      dxy     :     0.012542
      f0      :     0.000611  f :     0.004003
      f+1     :     0.000750
      f-1     :     0.000537
      f+2     :     0.000414
      f-2     :     0.000423
      f+3     :     0.000429
      f-3     :     0.000839
  4 H s       :     0.546108  s :     0.546108
      pz      :     0.025118  p :     0.049202
      px      :     0.011602
      py      :     0.012482
  5 H s       :     0.619079  s :     0.619079
      pz      :     0.011733  p :     0.045939
      px      :     0.018317
      py      :     0.015889
  6 O s       :     3.801392  s :     3.801392
      pz      :     1.555335  p :     4.876955
      px      :     1.839636
      py      :     1.481984
      dz2     :     0.016696  d :     0.052383
      dxz     :     0.007885
      dyz     :     0.008151
      dx2y2   :     0.009142
      dxy     :     0.010509
      f0      :     0.000570  f :     0.004012
      f+1     :     0.000493
      f-1     :     0.000822
      f+2     :     0.000434
      f-2     :     0.000404
      f+3     :     0.000812
      f-3     :     0.000478
  7 H s       :     0.564418  s :     0.564418
      pz      :     0.009640  p :     0.042715
      px      :     0.014222
      py      :     0.018853
  8 H s       :     0.587465  s :     0.587465
      pz      :     0.019211  p :     0.045475
      px      :     0.014179
      py      :     0.012085
  9 O s       :     3.803107  s :     3.803107
      pz      :     1.533562  p :     4.893123
      px      :     1.492611
      py      :     1.866949
      dz2     :     0.015526  d :     0.050439
      dxz     :     0.007981
      dyz     :     0.007953
      dx2y2   :     0.008417
      dxy     :     0.010562
      f0      :     0.000589  f :     0.004035
      f+1     :     0.000805
      f-1     :     0.000497
      f+2     :     0.000441
      f-2     :     0.000404
      f+3     :     0.000486
      f-3     :     0.000813
 10 H s       :     0.599930  s :     0.599930
      pz      :     0.018677  p :     0.046627
      px      :     0.012861
      py      :     0.015089
 11 H s       :     0.566745  s :     0.566745
      pz      :     0.009888  p :     0.055137
      px      :     0.028746
      py      :     0.016503
 12 O s       :     3.801948  s :     3.801948
      pz      :     1.527832  p :     4.897870
      px      :     1.809260
      py      :     1.560778
      dz2     :     0.016752  d :     0.051712
      dxz     :     0.008360
      dyz     :     0.006725
      dx2y2   :     0.007570
      dxy     :     0.012305
      f0      :     0.000636  f :     0.004012
      f+1     :     0.000533
      f-1     :     0.000740
      f+2     :     0.000416
      f-2     :     0.000421
      f+3     :     0.000835
      f-3     :     0.000432
 13 H s       :     0.578904  s :     0.578904
      pz      :     0.023470  p :     0.050135
      px      :     0.014192
      py      :     0.012474
 14 H s       :     0.576829  s :     0.576829
      pz      :     0.010845  p :     0.052130
      px      :     0.017063
      py      :     0.024221
 15 O s       :     3.802297  s :     3.802297
      pz      :     1.708141  p :     4.900943
      px      :     1.792953
      py      :     1.399849
      dz2     :     0.009541  d :     0.050862
      dxz     :     0.010935
      dyz     :     0.010104
      dx2y2   :     0.007822
      dxy     :     0.012460
      f0      :     0.000456  f :     0.004038
      f+1     :     0.000547
      f-1     :     0.000693
      f+2     :     0.000438
      f-2     :     0.000725
      f+3     :     0.000717
      f-3     :     0.000462
 16 H s       :     0.622290  s :     0.622290
      pz      :     0.017573  p :     0.047809
      px      :     0.015955
      py      :     0.014281
 17 H s       :     0.550327  s :     0.550327
      pz      :     0.011644  p :     0.058557
      px      :     0.014715
      py      :     0.032198
 18 O s       :     3.795598  s :     3.795598
      pz      :     1.526704  p :     4.857074
      px      :     1.777715
      py      :     1.552655
      dz2     :     0.017651  d :     0.052890
      dxz     :     0.008000
      dyz     :     0.006616
      dx2y2   :     0.008090
      dxy     :     0.012533
      f0      :     0.000627  f :     0.004027
      f+1     :     0.000538
      f-1     :     0.000758
      f+2     :     0.000413
      f-2     :     0.000423
      f+3     :     0.000840
      f-3     :     0.000427
 19 H s       :     0.579084  s :     0.579084
      pz      :     0.019684  p :     0.044983
      px      :     0.013148
      py      :     0.012151
 20 H s       :     0.585979  s :     0.585979
      pz      :     0.010916  p :     0.044791
      px      :     0.015177
      py      :     0.018698


                     *******************************
                     * LOEWDIN POPULATION ANALYSIS *
                     *******************************

----------------------
LOEWDIN ATOMIC CHARGES
----------------------
   0 O :   -0.345284
   1 H :    0.154977
   2 H :    0.152475
   3 O :   -0.280714
   4 H :    0.164374
   5 H :    0.160375
   6 O :   -0.280724
   7 H :    0.189982
   8 H :    0.171196
   9 O :   -0.339032
  10 H :    0.164153
  11 H :    0.149504
  12 O :   -0.356298
  13 H :    0.147849
  14 H :    0.147948
  15 O :   -0.374135
  16 H :    0.145837
  17 H :    0.149366
  18 O :   -0.274057
  19 H :    0.177561
  20 H :    0.174649

-------------------------------
LOEWDIN REDUCED ORBITAL CHARGES
-------------------------------
  0 O s       :     3.457017  s :     3.457017
      pz      :     1.700074  p :     4.826081
      px      :     1.390895
      py      :     1.735112
      dz2     :     0.009974  d :     0.057434
      dxz     :     0.012547
      dyz     :     0.011064
      dx2y2   :     0.009465
      dxy     :     0.014384
      f0      :     0.000453  f :     0.004753
      f+1     :     0.000853
      f-1     :     0.000649
      f+2     :     0.000409
      f-2     :     0.001028
      f+3     :     0.000474
      f-3     :     0.000887
  1 H s       :     0.676986  s :     0.676986
      pz      :     0.067074  p :     0.168037
      px      :     0.046895
      py      :     0.054067
  2 H s       :     0.649919  s :     0.649919
      pz      :     0.034311  p :     0.197606
      px      :     0.114916
      py      :     0.048380
  3 O s       :     3.450709  s :     3.450709
      pz      :     1.537866  p :     4.764276
      px      :     1.512837
      py      :     1.713573
      dz2     :     0.021219  d :     0.060794
      dxz     :     0.007061
      dyz     :     0.007390
      dx2y2   :     0.009481
      dxy     :     0.015644
      f0      :     0.000824  f :     0.004935
      f+1     :     0.000987
      f-1     :     0.000740
      f+2     :     0.000389
      f-2     :     0.000420
      f+3     :     0.000407
      f-3     :     0.001168
  4 H s       :     0.660868  s :     0.660868
      pz      :     0.096444  p :     0.174758
      px      :     0.036372
      py      :     0.041943
  5 H s       :     0.678500  s :     0.678500
      pz      :     0.032395  p :     0.161126
      px      :     0.072667
      py      :     0.056063
  6 O s       :     3.459190  s :     3.459190
      pz      :     1.524997  p :     4.755426
      px      :     1.776453
      py      :     1.453976
      dz2     :     0.021904  d :     0.061251
      dxz     :     0.006998
      dyz     :     0.009522
      dx2y2   :     0.010846
      dxy     :     0.011981
      f0      :     0.000794  f :     0.004857
      f+1     :     0.000597
      f-1     :     0.001178
      f+2     :     0.000413
      f-2     :     0.000417
      f+3     :     0.001007
      f-3     :     0.000451
  7 H s       :     0.652363  s :     0.652363
      pz      :     0.029721  p :     0.157655
      px      :     0.049938
      py      :     0.077996
  8 H s       :     0.666794  s :     0.666794
      pz      :     0.081893  p :     0.162010
      px      :     0.043678
      py      :     0.036439
  9 O s       :     3.457984  s :     3.457984
      pz      :     1.516902  p :     4.817906
      px      :     1.472982
      py      :     1.828022
      dz2     :     0.020341  d :     0.058338
      dxz     :     0.009523
      dyz     :     0.007161
      dx2y2   :     0.009455
      dxy     :     0.011858
      f0      :     0.000816  f :     0.004804
      f+1     :     0.001169
      f-1     :     0.000574
      f+2     :     0.000417
      f-2     :     0.000416
      f+3     :     0.000443
      f-3     :     0.000968
 10 H s       :     0.673820  s :     0.673820
      pz      :     0.080690  p :     0.162027
      px      :     0.037301
      py      :     0.044036
 11 H s       :     0.663129  s :     0.663129
      pz      :     0.029998  p :     0.187367
      px      :     0.104011
      py      :     0.053358
 12 O s       :     3.457096  s :     3.457096
      pz      :     1.516110  p :     4.836142
      px      :     1.781402
      py      :     1.538630
      dz2     :     0.021068  d :     0.058261
      dxz     :     0.007693
      dyz     :     0.007446
      dx2y2   :     0.007603
      dxy     :     0.014450
      f0      :     0.000886  f :     0.004799
      f+1     :     0.000701
      f-1     :     0.000970
      f+2     :     0.000388
      f-2     :     0.000421
      f+3     :     0.001056
      f-3     :     0.000377
 13 H s       :     0.679507  s :     0.679507
      pz      :     0.091227  p :     0.172645
      px      :     0.043430
      py      :     0.037988
 14 H s       :     0.674058  s :     0.674058
      pz      :     0.031546  p :     0.177994
      px      :     0.058941
      py      :     0.087507
 15 O s       :     3.464307  s :     3.464307
      pz      :     1.694927  p :     4.847264
      px      :     1.769316
      py      :     1.383021
      dz2     :     0.009849  d :     0.057789
      dxz     :     0.011472
      dyz     :     0.012819
      dx2y2   :     0.008929
      dxy     :     0.014720
      f0      :     0.000452  f :     0.004775
      f+1     :     0.000649
      f-1     :     0.000852
      f+2     :     0.000410
      f-2     :     0.001043
      f+3     :     0.000898
      f-3     :     0.000472
 16 H s       :     0.686489  s :     0.686489
      pz      :     0.066876  p :     0.167674
      px      :     0.054303
      py      :     0.046495
 17 H s       :     0.654015  s :     0.654015
      pz      :     0.034442  p :     0.196619
      px      :     0.048434
      py      :     0.113743
 18 O s       :     3.453707  s :     3.453707
      pz      :     1.513196  p :     4.754227
      px      :     1.715682
      py      :     1.525349
      dz2     :     0.022281  d :     0.061169
      dxz     :     0.007411
      dyz     :     0.007252
      dx2y2   :     0.009253
      dxy     :     0.014972
      f0      :     0.000868  f :     0.004954
      f+1     :     0.000742
      f-1     :     0.001003
      f+2     :     0.000389
      f-2     :     0.000421
      f+3     :     0.001124
      f-3     :     0.000407
 19 H s       :     0.660568  s :     0.660568
      pz      :     0.083444  p :     0.161871
      px      :     0.042128
      py      :     0.036300
 20 H s       :     0.664442  s :     0.664442
      pz      :     0.030547  p :     0.160909
      px      :     0.055967
      py      :     0.074395


                      *****************************
                      * MAYER POPULATION ANALYSIS *
                      *****************************

  NA   - Mulliken gross atomic population
  ZA   - Total nuclear charge
  QA   - Mulliken gross atomic charge
  VA   - Mayer's total valence
  BVA  - Mayer's bonded valence
  FA   - Mayer's free valence

  ATOM       NA         ZA         QA         VA         BVA        FA
  0 O      8.7687     8.0000    -0.7687     2.0119     1.6179     0.3939
  1 H      0.6501     1.0000     0.3499     0.8987     0.8522     0.0465
  2 H      0.5988     1.0000     0.4012     0.8753     0.8300     0.0452
  3 O      8.7131     8.0000    -0.7131     2.0675     1.6800     0.3876
  4 H      0.5953     1.0000     0.4047     0.8676     0.8249     0.0427
  5 H      0.6650     1.0000     0.3350     0.9088     0.8600     0.0488
  6 O      8.7347     8.0000    -0.7347     2.0696     1.6779     0.3917
  7 H      0.6071     1.0000     0.3929     0.8652     0.8202     0.0450
  8 H      0.6329     1.0000     0.3671     0.8858     0.8398     0.0460
  9 O      8.7507     8.0000    -0.7507     2.0278     1.6350     0.3928
 10 H      0.6466     1.0000     0.3534     0.8985     0.8514     0.0471
 11 H      0.6219     1.0000     0.3781     0.8976     0.8506     0.0470
 12 O      8.7555     8.0000    -0.7555     2.0376     1.6459     0.3917
 13 H      0.6290     1.0000     0.3710     0.8850     0.8394     0.0456
 14 H      0.6290     1.0000     0.3710     0.9038     0.8577     0.0461
 15 O      8.7581     8.0000    -0.7581     2.0065     1.6150     0.3916
 16 H      0.6701     1.0000     0.3299     0.9113     0.8633     0.0480
 17 H      0.6089     1.0000     0.3911     0.8872     0.8417     0.0455
 18 O      8.7096     8.0000    -0.7096     2.0793     1.6930     0.3863
 19 H      0.6241     1.0000     0.3759     0.8771     0.8323     0.0449
 20 H      0.6308     1.0000     0.3692     0.8871     0.8412     0.0459

  Mayer bond orders larger than 0.100000
B(  0-O ,  1-H ) :   0.8444 B(  0-O ,  2-H ) :   0.7627 B(  3-O ,  4-H ) :   0.7905 
B(  3-O ,  5-H ) :   0.8512 B(  6-O ,  7-H ) :   0.8084 B(  6-O ,  8-H ) :   0.8302 
B(  9-O , 10-H ) :   0.8415 B(  9-O , 11-H ) :   0.7862 B( 12-O , 13-H ) :   0.8303 
B( 12-O , 14-H ) :   0.8091 B( 15-O , 16-H ) :   0.8583 B( 15-O , 17-H ) :   0.7776 
B( 18-O , 19-H ) :   0.8254 B( 18-O , 20-H ) :   0.8273 


                *******************************************
                * RELAXED MP2 DENSITY POPULATION ANALYSIS *
                *******************************************

------------------------------------------------------------------------------
                           ORCA POPULATION ANALYSIS
------------------------------------------------------------------------------
Input electron density              ... 12h2o.su.etal.mol0,3,5,7,9,10,11-orca.engrad-mp2.def2tzvp.frozencore.pmp2re
BaseName (.gbw .S,...)              ... 12h2o.su.etal.mol0,3,5,7,9,10,11-orca.engrad-mp2.def2tzvp.frozencore

                    ********************************
                    * MULLIKEN POPULATION ANALYSIS *
                    ********************************

-----------------------
MULLIKEN ATOMIC CHARGES
-----------------------
   0 O :   -0.742994
   1 H :    0.343335
   2 H :    0.380261
   3 O :   -0.686766
   4 H :    0.390179
   5 H :    0.328954
   6 O :   -0.709690
   7 H :    0.384774
   8 H :    0.359592
   9 O :   -0.726769
  10 H :    0.345121
  11 H :    0.356567
  12 O :   -0.732234
  13 H :    0.360180
  14 H :    0.352702
  15 O :   -0.739911
  16 H :    0.323876
  17 H :    0.368740
  18 O :   -0.686598
  19 H :    0.369644
  20 H :    0.361038
Sum of atomic charges:    0.0000000

--------------------------------
MULLIKEN REDUCED ORBITAL CHARGES
--------------------------------
  0 O s       :     3.802632  s :     3.802632
      pz      :     1.717016  p :     4.887907
      px      :     1.413270
      py      :     1.757620
      dz2     :     0.009293  d :     0.048509
      dxz     :     0.009616
      dyz     :     0.010362
      dx2y2   :     0.007828
      dxy     :     0.011411
      f0      :     0.000457  f :     0.003946
      f+1     :     0.000681
      f-1     :     0.000534
      f+2     :     0.000432
      f-2     :     0.000703
      f+3     :     0.000457
      f-3     :     0.000681
  1 H s       :     0.608573  s :     0.608573
      pz      :     0.017699  p :     0.048092
      px      :     0.014136
      py      :     0.016258
  2 H s       :     0.561755  s :     0.561755
      pz      :     0.012146  p :     0.057984
      px      :     0.031372
      py      :     0.014465
  3 O s       :     3.793240  s :     3.793240
      pz      :     1.567715  p :     4.839138
      px      :     1.515309
      py      :     1.756114
      dz2     :     0.015898  d :     0.050459
      dxz     :     0.006587
      dyz     :     0.008040
      dx2y2   :     0.008109
      dxy     :     0.011825
      f0      :     0.000594  f :     0.003929
      f+1     :     0.000729
      f-1     :     0.000527
      f+2     :     0.000415
      f-2     :     0.000421
      f+3     :     0.000429
      f-3     :     0.000814
  4 H s       :     0.560265  s :     0.560265
      pz      :     0.024298  p :     0.049556
      px      :     0.012022
      py      :     0.013236
  5 H s       :     0.624314  s :     0.624314
      pz      :     0.012495  p :     0.046732
      px      :     0.017760
      py      :     0.016478
  6 O s       :     3.805113  s :     3.805113
      pz      :     1.547876  p :     4.850391
      px      :     1.824938
      py      :     1.477577
      dz2     :     0.015490  d :     0.050248
      dxz     :     0.007949
      dyz     :     0.007869
      dx2y2   :     0.008874
      dxy     :     0.010066
      f0      :     0.000556  f :     0.003939
      f+1     :     0.000487
      f-1     :     0.000793
      f+2     :     0.000433
      f-2     :     0.000403
      f+3     :     0.000790
      f-3     :     0.000476
  7 H s       :     0.571980  s :     0.571980
      pz      :     0.010332  p :     0.043246
      px      :     0.014844
      py      :     0.018070
  8 H s       :     0.594281  s :     0.594281
      pz      :     0.018507  p :     0.046128
      px      :     0.015134
      py      :     0.012487
  9 O s       :     3.804578  s :     3.804578
      pz      :     1.522936  p :     4.869830
      px      :     1.486706
      py      :     1.860188
      dz2     :     0.014368  d :     0.048394
      dxz     :     0.007703
      dyz     :     0.007975
      dx2y2   :     0.008215
      dxy     :     0.010133
      f0      :     0.000576  f :     0.003967
      f+1     :     0.000776
      f-1     :     0.000491
      f+2     :     0.000441
      f-2     :     0.000403
      f+3     :     0.000485
      f-3     :     0.000794
 10 H s       :     0.607521  s :     0.607521
      pz      :     0.017923  p :     0.047357
      px      :     0.013351
      py      :     0.016083
 11 H s       :     0.587852  s :     0.587852
      pz      :     0.010591  p :     0.055581
      px      :     0.027895
      py      :     0.017096
 12 O s       :     3.799933  s :     3.799933
      pz      :     1.523056  p :     4.878601
      px      :     1.800740
      py      :     1.554805
      dz2     :     0.015541  d :     0.049758
      dxz     :     0.008334
      dyz     :     0.006690
      dx2y2   :     0.007515
      dxy     :     0.011679
      f0      :     0.000621  f :     0.003942
      f+1     :     0.000524
      f-1     :     0.000718
      f+2     :     0.000416
      f-2     :     0.000419
      f+3     :     0.000812
      f-3     :     0.000432
 13 H s       :     0.589153  s :     0.589153
      pz      :     0.022579  p :     0.050667
      px      :     0.015106
      py      :     0.012982
 14 H s       :     0.594572  s :     0.594572
      pz      :     0.011514  p :     0.052726
      px      :     0.017530
      py      :     0.023682
 15 O s       :     3.802602  s :     3.802602
      pz      :     1.703251  p :     4.884362
      px      :     1.787899
      py      :     1.393212
      dz2     :     0.009339  d :     0.048973
      dxz     :     0.010637
      dyz     :     0.009540
      dx2y2   :     0.007697
      dxy     :     0.011761
      f0      :     0.000454  f :     0.003973
      f+1     :     0.000539
      f-1     :     0.000676
      f+2     :     0.000438
      f-2     :     0.000706
      f+3     :     0.000700
      f-3     :     0.000460
 16 H s       :     0.627514  s :     0.627514
      pz      :     0.017717  p :     0.048609
      px      :     0.016613
      py      :     0.014280
 17 H s       :     0.572489  s :     0.572489
      pz      :     0.012420  p :     0.058771
      px      :     0.015233
      py      :     0.031117
 18 O s       :     3.797536  s :     3.797536
      pz      :     1.522101  p :     4.834329
      px      :     1.762681
      py      :     1.549546
      dz2     :     0.016331  d :     0.050783
      dxz     :     0.007981
      dyz     :     0.006564
      dx2y2   :     0.008039
      dxy     :     0.011867
      f0      :     0.000609  f :     0.003950
      f+1     :     0.000528
      f-1     :     0.000736
      f+2     :     0.000414
      f-2     :     0.000421
      f+3     :     0.000815
      f-3     :     0.000427
 19 H s       :     0.584837  s :     0.584837
      pz      :     0.018930  p :     0.045519
      px      :     0.013946
      py      :     0.012643
 20 H s       :     0.593599  s :     0.593599
      pz      :     0.011565  p :     0.045364
      px      :     0.015654
      py      :     0.018144


                     *******************************
                     * LOEWDIN POPULATION ANALYSIS *
                     *******************************

----------------------
LOEWDIN ATOMIC CHARGES
----------------------
   0 O :   -0.342088
   1 H :    0.156905
   2 H :    0.145284
   3 O :   -0.274784
   4 H :    0.160636
   5 H :    0.162126
   6 O :   -0.273800
   7 H :    0.190574
   8 H :    0.172534
   9 O :   -0.337487
  10 H :    0.165176
  11 H :    0.142841
  12 O :   -0.355095
  13 H :    0.145499
  14 H :    0.143180
  15 O :   -0.376600
  16 H :    0.147607
  17 H :    0.142090
  18 O :   -0.268764
  19 H :    0.178968
  20 H :    0.175196

-------------------------------
LOEWDIN REDUCED ORBITAL CHARGES
-------------------------------
  0 O s       :     3.458373  s :     3.458373
      pz      :     1.699659  p :     4.822115
      px      :     1.394843
      py      :     1.727613
      dz2     :     0.009944  d :     0.056810
      dxz     :     0.012200
      dyz     :     0.010999
      dx2y2   :     0.009485
      dxy     :     0.014181
      f0      :     0.000456  f :     0.004790
      f+1     :     0.000864
      f-1     :     0.000650
      f+2     :     0.000410
      f-2     :     0.001030
      f+3     :     0.000479
      f-3     :     0.000902
  1 H s       :     0.675054  s :     0.675054
      pz      :     0.067051  p :     0.168040
      px      :     0.046513
      py      :     0.054476
  2 H s       :     0.656882  s :     0.656882
      pz      :     0.034956  p :     0.197834
      px      :     0.114049
      py      :     0.048828
  3 O s       :     3.451715  s :     3.451715
      pz      :     1.539384  p :     4.758182
      px      :     1.514502
      py      :     1.704297
      dz2     :     0.020702  d :     0.059932
      dxz     :     0.006962
      dyz     :     0.007439
      dx2y2   :     0.009527
      dxy     :     0.015302
      f0      :     0.000827  f :     0.004955
      f+1     :     0.000993
      f-1     :     0.000741
      f+2     :     0.000391
      f-2     :     0.000420
      f+3     :     0.000408
      f-3     :     0.001175
  4 H s       :     0.664576  s :     0.664576
      pz      :     0.095532  p :     0.174787
      px      :     0.036663
      py      :     0.042593
  5 H s       :     0.676371  s :     0.676371
      pz      :     0.032898  p :     0.161503
      px      :     0.072034
      py      :     0.056570
  6 O s       :     3.461043  s :     3.461043
      pz      :     1.524290  p :     4.747531
      px      :     1.766521
      py      :     1.456719
      dz2     :     0.021421  d :     0.060349
      dxz     :     0.007093
      dyz     :     0.009300
      dx2y2   :     0.010733
      dxy     :     0.011801
      f0      :     0.000793  f :     0.004877
      f+1     :     0.000599
      f-1     :     0.001185
      f+2     :     0.000415
      f-2     :     0.000416
      f+3     :     0.001015
      f-3     :     0.000454
  7 H s       :     0.652126  s :     0.652126
      pz      :     0.030095  p :     0.157301
      px      :     0.050426
      py      :     0.076780
  8 H s       :     0.665456  s :     0.665456
      pz      :     0.081230  p :     0.162010
      px      :     0.044473
      py      :     0.036306
  9 O s       :     3.459202  s :     3.459202
      pz      :     1.515585  p :     4.815931
      px      :     1.475214
      py      :     1.825132
      dz2     :     0.019851  d :     0.057517
      dxz     :     0.009304
      dyz     :     0.007223
      dx2y2   :     0.009402
      dxy     :     0.011737
      f0      :     0.000817  f :     0.004837
      f+1     :     0.001182
      f-1     :     0.000575
      f+2     :     0.000419
      f-2     :     0.000415
      f+3     :     0.000446
      f-3     :     0.000983
 10 H s       :     0.672676  s :     0.672676
      pz      :     0.079879  p :     0.162148
      px      :     0.037321
      py      :     0.044948
 11 H s       :     0.669155  s :     0.669155
      pz      :     0.030344  p :     0.188004
      px      :     0.103589
      py      :     0.054070
 12 O s       :     3.457915  s :     3.457915
      pz      :     1.516804  p :     4.835029
      px      :     1.778377
      py      :     1.539849
      dz2     :     0.020498  d :     0.057328
      dxz     :     0.007724
      dyz     :     0.007331
      dx2y2   :     0.007568
      dxy     :     0.014208
      f0      :     0.000890  f :     0.004822
      f+1     :     0.000700
      f-1     :     0.000979
      f+2     :     0.000390
      f-2     :     0.000421
      f+3     :     0.001067
      f-3     :     0.000377
 13 H s       :     0.681454  s :     0.681454
      pz      :     0.090327  p :     0.173047
      px      :     0.044259
      py      :     0.038462
 14 H s       :     0.678157  s :     0.678157
      pz      :     0.031980  p :     0.178663
      px      :     0.059462
      py      :     0.087222
 15 O s       :     3.465886  s :     3.465886
      pz      :     1.694612  p :     4.848916
      px      :     1.767887
      py      :     1.386417
      dz2     :     0.009800  d :     0.056986
      dxz     :     0.011382
      dyz     :     0.012448
      dx2y2   :     0.008908
      dxy     :     0.014449
      f0      :     0.000454  f :     0.004812
      f+1     :     0.000649
      f-1     :     0.000864
      f+2     :     0.000411
      f-2     :     0.001044
      f+3     :     0.000914
      f-3     :     0.000476
 16 H s       :     0.684393  s :     0.684393
      pz      :     0.066998  p :     0.168000
      px      :     0.054906
      py      :     0.046096
 17 H s       :     0.661135  s :     0.661135
      pz      :     0.035170  p :     0.196775
      px      :     0.048995
      py      :     0.112610
 18 O s       :     3.454919  s :     3.454919
      pz      :     1.515344  p :     4.748742
      px      :     1.705931
      py      :     1.527467
      dz2     :     0.021584  d :     0.060134
      dxz     :     0.007446
      dyz     :     0.007120
      dx2y2   :     0.009306
      dxy     :     0.014679
      f0      :     0.000867  f :     0.004969
      f+1     :     0.000743
      f-1     :     0.001009
      f+2     :     0.000390
      f-2     :     0.000421
      f+3     :     0.001131
      f-3     :     0.000408
 19 H s       :     0.659388  s :     0.659388
      pz      :     0.082458  p :     0.161644
      px      :     0.042740
      py      :     0.036446
 20 H s       :     0.664007  s :     0.664007
      pz      :     0.030866  p :     0.160797
      px      :     0.056350
      py      :     0.073581


                      *****************************
                      * MAYER POPULATION ANALYSIS *
                      *****************************

  NA   - Mulliken gross atomic population
  ZA   - Total nuclear charge
  QA   - Mulliken gross atomic charge
  VA   - Mayer's total valence
  BVA  - Mayer's bonded valence
  FA   - Mayer's free valence

  ATOM       NA         ZA         QA         VA         BVA        FA
  0 O      8.7430     8.0000    -0.7430     2.0388     1.6505     0.3883
  1 H      0.6567     1.0000     0.3433     0.9033     0.8567     0.0466
  2 H      0.6197     1.0000     0.3803     0.9005     0.8559     0.0446
  3 O      8.6868     8.0000    -0.6868     2.1038     1.7222     0.3816
  4 H      0.6098     1.0000     0.3902     0.8876     0.8452     0.0424
  5 H      0.6710     1.0000     0.3290     0.9141     0.8654     0.0487
  6 O      8.7097     8.0000    -0.7097     2.1121     1.7267     0.3854
  7 H      0.6152     1.0000     0.3848     0.8738     0.8290     0.0449
  8 H      0.6404     1.0000     0.3596     0.8919     0.8460     0.0459
  9 O      8.7268     8.0000    -0.7268     2.0481     1.6609     0.3872
 10 H      0.6549     1.0000     0.3451     0.9053     0.8582     0.0471
 11 H      0.6434     1.0000     0.3566     0.9266     0.8807     0.0458
 12 O      8.7322     8.0000    -0.7322     2.0580     1.6719     0.3861
 13 H      0.6398     1.0000     0.3602     0.8985     0.8530     0.0455
 14 H      0.6473     1.0000     0.3527     0.9296     0.8842     0.0454
 15 O      8.7399     8.0000    -0.7399     2.0131     1.6261     0.3869
 16 H      0.6761     1.0000     0.3239     0.9148     0.8668     0.0481
 17 H      0.6313     1.0000     0.3687     0.9153     0.8704     0.0449
 18 O      8.6866     8.0000    -0.6866     2.1089     1.7283     0.3805
 19 H      0.6304     1.0000     0.3696     0.8827     0.8378     0.0449
 20 H      0.6390     1.0000     0.3610     0.8964     0.8508     0.0456

  Mayer bond orders larger than 0.100000
B(  0-O ,  1-H ) :   0.8474 B(  0-O ,  2-H ) :   0.7630 B(  3-O ,  4-H ) :   0.7953 
B(  3-O ,  5-H ) :   0.8536 B(  6-O ,  7-H ) :   0.8121 B(  6-O ,  8-H ) :   0.8330 
B(  9-O , 10-H ) :   0.8449 B(  9-O , 11-H ) :   0.7849 B( 12-O , 13-H ) :   0.8355 
B( 12-O , 14-H ) :   0.8118 B( 15-O , 16-H ) :   0.8615 B( 15-O , 17-H ) :   0.7807 
B( 18-O , 19-H ) :   0.8289 B( 18-O , 20-H ) :   0.8307 


----------------------------------
MP2 DERIVATIVE INTEGRAL GENERATION
----------------------------------


Input Wavefunction Amplitudes       ... 12h2o.su.etal.mol0,3,5,7,9,10,11-orca.engrad-mp2.def2tzvp.frozencore.mp2tsaa.tmp
Input Correlated Electron Density   ... 12h2o.su.etal.mol0,3,5,7,9,10,11-orca.engrad-mp2.def2tzvp.frozencore.pmp2re
Input Energy Weighted Density       ... 12h2o.su.etal.mol0,3,5,7,9,10,11-orca.engrad-mp2.def2tzvp.frozencore.wmp2.tmp
Input SCF Electron Density          ... 12h2o.su.etal.mol0,3,5,7,9,10,11-orca.engrad-mp2.def2tzvp.frozencore.scfp

One-Electron Terms    ...
                        ... One-Electron Terms done
Prescreening matrices              ... done

Batch handling in the gradient evaluation:
Memory available                      ... 8000.0 MB
Memory per occupied orbital in Q2     ...   19.4 MB
Memory per occupied orbital in Q3     ...    0.1 MB
Total memory requirement per |i>      ...   19.5 MB
Max. Number of orbitals possible      ...    410
Number of orbitals treated per batch  ...     28
Number of batches to be done          ...      1
Batch   0: i=    7 ...    34

---------------------------------------
MP2 TOTAL ENERGY:     -534.243724934 Eh
---------------------------------------

The final MP2 gradient
  0:   0.00894616  -0.00070273   0.00064929
  1:   0.00032277  -0.00050726   0.00014014
  2:  -0.01467589   0.00324995  -0.00118689
  3:  -0.00875728   0.01280487   0.00073232
  4:   0.00144787  -0.00171976  -0.00336300
  5:   0.01042105  -0.00482934   0.00152243
  6:  -0.00700012  -0.01395550   0.01564406
  7:   0.00398960   0.01218143  -0.00284946
  8:  -0.00265303   0.00061616  -0.00776047
  9:  -0.00277948   0.00462230  -0.00853501
 10:  -0.00139977   0.00064141   0.01025646
 11:   0.00766971  -0.00428194  -0.00435433
 12:   0.00057794  -0.00140166   0.00562225
 13:   0.00078880  -0.00085118  -0.00906609
 14:   0.00003095   0.00195268   0.00058066
 15:   0.00245539   0.00921288   0.00010078
 16:   0.00017032   0.00205823  -0.00046434
 17:  -0.00488430  -0.01860770   0.00017876
 18:   0.00932624   0.00594201   0.00837854
 19:   0.00047068   0.00022326  -0.00522395
 20:  -0.00446761  -0.00664810  -0.00100217

-----------------------------------
NORM OF THE MP2 GRADIENT:  0.051059
-----------------------------------

-------------------------   --------------------
FINAL SINGLE POINT ENERGY      -534.243724934403
-------------------------   --------------------


                            ***************************************
                            *     ORCA property calculations      *
                            ***************************************

                                    ---------------------
                                    Active property flags
                                    ---------------------
   (+) Dipole Moment


------------------------------------------------------------------------------
                       ORCA ELECTRIC PROPERTIES CALCULATION
------------------------------------------------------------------------------

Dipole Moment Calculation                       ... on
Quadrupole Moment Calculation                   ... off
Polarizability Calculation                      ... off
GBWName                                         ... 12h2o.su.etal.mol0,3,5,7,9,10,11-orca.engrad-mp2.def2tzvp.frozencore.gbw
Electron density file                           ... 12h2o.su.etal.mol0,3,5,7,9,10,11-orca.engrad-mp2.def2tzvp.frozencore.scfp
The origin for moment calculation is the CENTER OF MASS  = (-0.461139, -0.178207  0.769431)

-------------
DIPOLE MOMENT
-------------
                                X             Y             Z
Electronic contribution:     -0.14584      -0.05716       0.21911
Nuclear contribution   :      0.37518      -0.19504      -0.68611
                        -----------------------------------------
Total Dipole Moment    :      0.22934      -0.25219      -0.46700
                        -----------------------------------------
Magnitude (a.u.)       :      0.57817
Magnitude (Debye)      :      1.46960



--------------------
Rotational spectrum 
--------------------
 
Rotational constants in cm-1:     0.044617     0.018407     0.015735 
Rotational constants in MHz :  1337.591994   551.820615   471.723711 

 Dipole components along the rotational axes: 
x,y,z [a.u.] :    -0.343744    -0.319044    -0.338136 
x,y,z [Debye]:    -0.873727    -0.810945    -0.859474 

 

                         *** MP2 UNRELAXED DENSITY ***

------------------------------------------------------------------------------
                       ORCA ELECTRIC PROPERTIES CALCULATION
------------------------------------------------------------------------------

Dipole Moment Calculation                       ... on
Quadrupole Moment Calculation                   ... off
Polarizability Calculation                      ... off
GBWName                                         ... 12h2o.su.etal.mol0,3,5,7,9,10,11-orca.engrad-mp2.def2tzvp.frozencore.gbw
Electron density file                           ... 12h2o.su.etal.mol0,3,5,7,9,10,11-orca.engrad-mp2.def2tzvp.frozencore.pmp2ur
The origin for moment calculation is the CENTER OF MASS  = (-0.461139, -0.178207  0.769431)

-------------
DIPOLE MOMENT
-------------
                                X             Y             Z
Electronic contribution:     -0.15006      -0.05562       0.22854
Nuclear contribution   :      0.37518      -0.19504      -0.68611
                        -----------------------------------------
Total Dipole Moment    :      0.22512      -0.25066      -0.45757
                        -----------------------------------------
Magnitude (a.u.)       :      0.56822
Magnitude (Debye)      :      1.44431



--------------------
Rotational spectrum 
--------------------
 
Rotational constants in cm-1:     0.044617     0.018407     0.015735 
Rotational constants in MHz :  1337.591994   551.820615   471.723711 

 Dipole components along the rotational axes: 
x,y,z [a.u.] :    -0.336613    -0.316169    -0.331071 
x,y,z [Debye]:    -0.855602    -0.803638    -0.841516 

 

                           *** MP2 RELAXED DENSITY ***

------------------------------------------------------------------------------
                       ORCA ELECTRIC PROPERTIES CALCULATION
------------------------------------------------------------------------------

Dipole Moment Calculation                       ... on
Quadrupole Moment Calculation                   ... off
Polarizability Calculation                      ... off
GBWName                                         ... 12h2o.su.etal.mol0,3,5,7,9,10,11-orca.engrad-mp2.def2tzvp.frozencore.gbw
Electron density file                           ... 12h2o.su.etal.mol0,3,5,7,9,10,11-orca.engrad-mp2.def2tzvp.frozencore.pmp2re
The origin for moment calculation is the CENTER OF MASS  = (-0.461139, -0.178207  0.769431)

-------------
DIPOLE MOMENT
-------------
                                X             Y             Z
Electronic contribution:     -0.14642      -0.05045       0.24932
Nuclear contribution   :      0.37518      -0.19504      -0.68611
                        -----------------------------------------
Total Dipole Moment    :      0.22876      -0.24549      -0.43678
                        -----------------------------------------
Magnitude (a.u.)       :      0.55080
Magnitude (Debye)      :      1.40001



--------------------
Rotational spectrum 
--------------------
 
Rotational constants in cm-1:     0.044617     0.018407     0.015735 
Rotational constants in MHz :  1337.591994   551.820615   471.723711 

 Dipole components along the rotational axes: 
x,y,z [a.u.] :    -0.316040    -0.310087    -0.327630 
x,y,z [Debye]:    -0.803309    -0.788178    -0.832769 

 

Timings for individual modules:

Sum of individual times         ...      104.333 sec (=   1.739 min)
GTO integral calculation        ...        2.358 sec (=   0.039 min)   2.3 %
SCF iterations                  ...       18.258 sec (=   0.304 min)  17.5 %
MP2 module                      ...       83.717 sec (=   1.395 min)  80.2 %
                             ****ORCA TERMINATED NORMALLY****
TOTAL RUN TIME: 0 days 0 hours 1 minutes 46 seconds 237 msec
