
                                 *****************
                                 * O   R   C   A *
                                 *****************

           --- An Ab Initio, DFT and Semiempirical electronic structure package ---

                  #######################################################
                  #                        -***-                        #
                  #          Department of theory and spectroscopy      #
                  #               Directorship: Frank Neese             #
                  #        Max Planck Institute fuer Kohlenforschung    #
                  #                Kaiser Wilhelm Platz 1               #
                  #                 D-45470 Muelheim/Ruhr               #
                  #                      Germany                        #
                  #                                                     #
                  #                  All rights reserved                #
                  #                        -***-                        #
                  #######################################################


                         Program Version 4.2.0 -  RELEASE  -


 With contributions from (in alphabetic order):
   Daniel Aravena         : Magnetic Suceptibility
   Michael Atanasov       : Ab Initio Ligand Field Theory (pilot matlab implementation)
   Alexander A. Auer      : GIAO ZORA, VPT2
   Ute Becker             : Parallelization
   Giovanni Bistoni       : ED, misc. LED, open-shell LED, HFLED
   Martin Brehm           : Molecular dynamics
   Dmytro Bykov           : SCF Hessian
   Vijay G. Chilkuri      : MRCI spin determinant printing, contributions to CSF-ICE
   Dipayan Datta          : RHF DLPNO-CCSD density
   Achintya Kumar Dutta   : EOM-CC, STEOM-CC
   Dmitry Ganyushin       : Spin-Orbit,Spin-Spin,Magnetic field MRCI
   Miquel Garcia          : C-PCM Hessian, Gaussian charge scheme
   Yang Guo               : DLPNO-NEVPT2, CIM, IAO-localization
   Andreas Hansen         : Spin unrestricted coupled pair/coupled cluster methods
   Benjamin Helmich-Paris : CASSCF linear response (MC-RPA)
   Lee Huntington         : MR-EOM, pCC
   Robert Izsak           : Overlap fitted RIJCOSX, COSX-SCS-MP3, EOM
   Christian Kollmar      : KDIIS, OOCD, Brueckner-CCSD(T), CCSD density
   Simone Kossmann        : Meta GGA functionals, TD-DFT gradient, OOMP2, MP2 Hessian
   Martin Krupicka        : AUTO-CI
   Lucas Lang             : DCDCAS
   Dagmar Lenk            : GEPOL surface, SMD
   Dimitrios Liakos       : Extrapolation schemes; Compound Job, initial MDCI parallelization
   Dimitrios Manganas     : Further ROCIS development; embedding schemes
   Dimitrios Pantazis     : SARC Basis sets
   Taras Petrenko         : DFT Hessian,TD-DFT gradient, ASA, ECA, R-Raman, ABS, FL, XAS/XES, NRVS
   Peter Pinski           : DLPNO-MP2, DLPNO-MP2 Gradient
   Christoph Reimann      : Effective Core Potentials
   Marius Retegan         : Local ZFS, SOC
   Christoph Riplinger    : Optimizer, TS searches, QM/MM, DLPNO-CCSD(T), (RO)-DLPNO pert. Triples
   Tobias Risthaus        : Range-separated hybrids, TD-DFT gradient, RPA, STAB
   Michael Roemelt        : Original ROCIS implementation
   Masaaki Saitow         : Open-shell DLPNO-CCSD energy and density
   Barbara Sandhoefer     : DKH picture change effects
   Avijit Sen             : IP-ROCIS
   Kantharuban Sivalingam : CASSCF convergence, NEVPT2, FIC-MRCI
   Bernardo de Souza      : ESD, SOC TD-DFT
   Georgi Stoychev        : AutoAux, RI-MP2 NMR
   Willem Van den Heuvel  : Paramagnetic NMR
   Boris Wezisla          : Elementary symmetry handling
   Frank Wennmohs         : Technical directorship


 We gratefully acknowledge several colleagues who have allowed us to
 interface, adapt or use parts of their codes:
   Stefan Grimme, W. Hujo, H. Kruse,             : VdW corrections, initial TS optimization,
                  C. Bannwarth                     DFT functionals, gCP, sTDA/sTD-DF
   Ed Valeev, F. Pavosevic, A. Kumar             : LibInt (2-el integral package), F12 methods
   Garnet Chan, S. Sharma, J. Yang, R. Olivares  : DMRG
   Ulf Ekstrom                                   : XCFun DFT Library
   Mihaly Kallay                                 : mrcc  (arbitrary order and MRCC methods)
   Andreas Klamt, Michael Diedenhofen            : otool_cosmo (COSMO solvation model)
   Jiri Pittner, Ondrej Demel                    : Mk-CCSD
   Frank Weinhold                                : gennbo (NPA and NBO analysis)
   Christopher J. Cramer and Donald G. Truhlar   : smd solvation model
   Lars Goerigk                                  : TD-DFT with DH, B97 family of functionals
   V. Asgeirsson, H. Jonsson                     : NEB implementation
   FAccTs GmbH                                   : IRC, NEB, NEB-TS, Multilevel, MM, QM/MM, CI optimization
   S Lehtola, MJT Oliveira, MAL Marques          : LibXC Library


 Your calculation uses the libint2 library for the computation of 2-el integrals
 For citations please refer to: http://libint.valeyev.net

 Your ORCA version has been built with support for libXC version: 4.2.3
 For citations please refer to: https://tddft.org/programs/libxc/

 This ORCA versions uses:
   CBLAS   interface :  Fast vector & matrix operations
   LAPACKE interface :  Fast linear algebra routines
   SCALAPACK package :  Parallel linear algebra routines


----- Orbital basis set information -----
Your calculation utilizes the basis: def2-TZVP
   F. Weigend and R. Ahlrichs, Phys. Chem. Chem. Phys. 7, 3297 (2005).

================================================================================
                                        WARNINGS
                       Please study these warnings very carefully!
================================================================================


WARNING: The frozen-core approximation for MP2-gradient calculations is turned on by default.

INFO   : the flag for use of LIBINT has been found!

================================================================================
                                       INPUT FILE
================================================================================
NAME = 12h2o.su.etal.mol0,1,4,6,7,8,9,11-orca.engrad-mp2.def2tzvp.frozencore.inp
|  1> # 12h2o.su.etal.mol0,1,4,6,7,8,9,11
|  2> ! MP2 def2-TZVP EnGrad TightSCF
|  3> 
|  4> %pal
|  5>     nprocs 6
|  6> end
|  7> 
|  8> %maxcore 8000
|  9> 
| 10> %scf
| 11>     ConvForced true
| 12> end
| 13> 
| 14> *xyz 0 1
| 15> O   1.794470000   0.923410000   2.768350000
| 16> H   2.338250000   1.359750000   3.430940000
| 17> H   0.879480000   1.303000000   2.865760000
| 18> O  -1.794470000  -0.923410000   2.768350000
| 19> H  -2.338250000  -1.359750000   3.430940000
| 20> H  -0.879480000  -1.303000000   2.865760000
| 21> O  -0.885520000   1.737840000   0.052730000
| 22> H  -1.032320000   2.090180000  -0.841890000
| 23> H  -1.284090000   0.839590000   0.017130000
| 24> O   1.737840000   0.885520000  -0.052730000
| 25> H   2.090180000   1.032320000   0.841890000
| 26> H   0.839590000   1.284090000  -0.017130000
| 27> O  -1.737840000  -0.885520000  -0.052730000
| 28> H  -2.090180000  -1.032320000   0.841890000
| 29> H  -0.839590000  -1.284090000  -0.017130000
| 30> O   1.752130000   0.741530000  -2.896280000
| 31> H   2.036450000   0.920500000  -1.984040000
| 32> H   0.921210000   1.242140000  -2.984230000
| 33> O   0.741530000  -1.752130000   2.896280000
| 34> H   0.920500000  -2.036450000   1.984040000
| 35> H   1.242140000  -0.921210000   2.984230000
| 36> O  -0.741530000   1.752130000   2.896280000
| 37> H  -0.920500000   2.036450000   1.984040000
| 38> H  -1.242140000   0.921210000   2.984230000
| 39> *
| 40> 
| 41>                          ****END OF INPUT****
================================================================================

                     *******************************
                     * Energy+Gradient Calculation *
                     *******************************

---------------------------------
CARTESIAN COORDINATES (ANGSTROEM)
---------------------------------
  O      1.794470    0.923410    2.768350
  H      2.338250    1.359750    3.430940
  H      0.879480    1.303000    2.865760
  O     -1.794470   -0.923410    2.768350
  H     -2.338250   -1.359750    3.430940
  H     -0.879480   -1.303000    2.865760
  O     -0.885520    1.737840    0.052730
  H     -1.032320    2.090180   -0.841890
  H     -1.284090    0.839590    0.017130
  O      1.737840    0.885520   -0.052730
  H      2.090180    1.032320    0.841890
  H      0.839590    1.284090   -0.017130
  O     -1.737840   -0.885520   -0.052730
  H     -2.090180   -1.032320    0.841890
  H     -0.839590   -1.284090   -0.017130
  O      1.752130    0.741530   -2.896280
  H      2.036450    0.920500   -1.984040
  H      0.921210    1.242140   -2.984230
  O      0.741530   -1.752130    2.896280
  H      0.920500   -2.036450    1.984040
  H      1.242140   -0.921210    2.984230
  O     -0.741530    1.752130    2.896280
  H     -0.920500    2.036450    1.984040
  H     -1.242140    0.921210    2.984230

----------------------------
CARTESIAN COORDINATES (A.U.)
----------------------------
  NO LB      ZA    FRAG     MASS         X           Y           Z
   0 O     8.0000    0    15.999    3.391057    1.744992    5.231423
   1 H     1.0000    0     1.008    4.418652    2.569555    6.483537
   2 H     1.0000    0     1.008    1.661976    2.462313    5.415502
   3 O     8.0000    0    15.999   -3.391057   -1.744992    5.231423
   4 H     1.0000    0     1.008   -4.418652   -2.569555    6.483537
   5 H     1.0000    0     1.008   -1.661976   -2.462313    5.415502
   6 O     8.0000    0    15.999   -1.673390    3.284042    0.099645
   7 H     1.0000    0     1.008   -1.950802    3.949868   -1.590942
   8 H     1.0000    0     1.008   -2.426578    1.586595    0.032371
   9 O     8.0000    0    15.999    3.284042    1.673390   -0.099645
  10 H     1.0000    0     1.008    3.949868    1.950802    1.590942
  11 H     1.0000    0     1.008    1.586595    2.426578   -0.032371
  12 O     8.0000    0    15.999   -3.284042   -1.673390   -0.099645
  13 H     1.0000    0     1.008   -3.949868   -1.950802    1.590942
  14 H     1.0000    0     1.008   -1.586595   -2.426578   -0.032371
  15 O     8.0000    0    15.999    3.311046    1.401289   -5.473176
  16 H     1.0000    0     1.008    3.848333    1.739493   -3.749292
  17 H     1.0000    0     1.008    1.740835    2.347304   -5.639377
  18 O     8.0000    0    15.999    1.401289   -3.311046    5.473176
  19 H     1.0000    0     1.008    1.739493   -3.848333    3.749292
  20 H     1.0000    0     1.008    2.347304   -1.740835    5.639377
  21 O     8.0000    0    15.999   -1.401289    3.311046    5.473176
  22 H     1.0000    0     1.008   -1.739493    3.848333    3.749292
  23 H     1.0000    0     1.008   -2.347304    1.740835    5.639377

--------------------------------
INTERNAL COORDINATES (ANGSTROEM)
--------------------------------
 O      0   0   0     0.000000000000     0.00000000     0.00000000
 H      1   0   0     0.961828878803     0.00000000     0.00000000
 H      1   2   0     0.995381322057   106.21731035     0.00000000
 O      3   1   2     3.480861789658   117.35405144   223.81249033
 H      4   3   1     0.961828878803   134.84484566    98.22461471
 H      4   3   1     0.995381322057    62.29205096    12.66575463
 O      3   1   2     3.349245975813   116.85538783   143.82107740
 H      7   3   1     0.972645187106   154.03893681   304.15813038
 H      7   3   1     0.983350632989    97.20424340    87.67157074
 O      7   3   1     2.760360281485    59.41411630   355.12427997
 H     10   7   3     0.972645187106   105.22009255   347.26752702
 H     10   7   3     0.983350632989     5.92595386   271.62167973
 O      9   7   3     1.785153773264   170.81379649   301.36914736
 H     13   9   7     0.972645187106   101.65007623   109.44492584
 H     13   9   7     0.983350632989    99.09581498     3.33484705
 O     10   7   3     2.847229166523    93.35605850   179.94795427
 H     16  10   7     0.972136791249    19.08819947   137.47046308
 H     16  10   7     0.974050112161    93.43428486    13.37418319
 O      6   4   3     1.682356278379   171.61043709   328.33166207
 H     19   6   4     0.972136791249   103.79460456   289.35412162
 H     19   6   4     0.974050112161   105.61118924    38.30604821
 O      3   1   2     1.682356278379   171.61043709   195.73896161
 H     22   3   1     0.972136791249   103.79460456   289.35412162
 H     22   3   1     0.974050112161   105.61118924    38.30604821

---------------------------
INTERNAL COORDINATES (A.U.)
---------------------------
 O      0   0   0     0.000000000000     0.00000000     0.00000000
 H      1   0   0     1.817593168635     0.00000000     0.00000000
 H      1   2   0     1.880998097508   106.21731035     0.00000000
 O      3   1   2     6.577875492484   117.35405144   223.81249033
 H      4   3   1     1.817593168635   134.84484566    98.22461471
 H      4   3   1     1.880998097508    62.29205096    12.66575463
 O      3   1   2     6.329157649425   116.85538783   143.82107740
 H      7   3   1     1.838033029106   154.03893681   304.15813038
 H      7   3   1     1.858263389967    97.20424340    87.67157074
 O      7   3   1     5.216324962960    59.41411630   355.12427997
 H     10   7   3     1.838033029106   105.22009255   347.26752702
 H     10   7   3     1.858263389967     5.92595386   271.62167973
 O      9   7   3     3.373451738406   170.81379649   301.36914736
 H     13   9   7     1.838033029106   101.65007623   109.44492584
 H     13   9   7     1.858263389967    99.09581498     3.33484705
 O     10   7   3     5.380483365242    93.35605850   179.94795427
 H     16  10   7     1.837072300170    19.08819947   137.47046308
 H     16  10   7     1.840687952699    93.43428486    13.37418319
 O      6   4   3     3.179192625819   171.61043709   328.33166207
 H     19   6   4     1.837072300170   103.79460456   289.35412162
 H     19   6   4     1.840687952699   105.61118924    38.30604821
 O      3   1   2     3.179192625819   171.61043709   195.73896161
 H     22   3   1     1.837072300170   103.79460456   289.35412162
 H     22   3   1     1.840687952699   105.61118924    38.30604821

---------------------
BASIS SET INFORMATION
---------------------
There are 2 groups of distinct atoms

 Group   1 Type O   : 11s6p2d1f contracted to 5s3p2d1f pattern {62111/411/11/1}
 Group   2 Type H   : 5s1p contracted to 3s1p pattern {311/1}

Atom   0O    basis set group =>   1
Atom   1H    basis set group =>   2
Atom   2H    basis set group =>   2
Atom   3O    basis set group =>   1
Atom   4H    basis set group =>   2
Atom   5H    basis set group =>   2
Atom   6O    basis set group =>   1
Atom   7H    basis set group =>   2
Atom   8H    basis set group =>   2
Atom   9O    basis set group =>   1
Atom  10H    basis set group =>   2
Atom  11H    basis set group =>   2
Atom  12O    basis set group =>   1
Atom  13H    basis set group =>   2
Atom  14H    basis set group =>   2
Atom  15O    basis set group =>   1
Atom  16H    basis set group =>   2
Atom  17H    basis set group =>   2
Atom  18O    basis set group =>   1
Atom  19H    basis set group =>   2
Atom  20H    basis set group =>   2
Atom  21O    basis set group =>   1
Atom  22H    basis set group =>   2
Atom  23H    basis set group =>   2


           ************************************************************
           *        Program running with 6 parallel MPI-processes     *
           *              working on a common directory               *
           ************************************************************
------------------------------------------------------------------------------
                           ORCA GTO INTEGRAL CALCULATION
------------------------------------------------------------------------------

                         BASIS SET STATISTICS AND STARTUP INFO

 # of primitive gaussian shells          ...  256
 # of primitive gaussian functions       ...  496
 # of contracted shells                  ...  152
 # of contracted basis functions         ...  344
 Highest angular momentum                ...    3
 Maximum contraction depth               ...    6
 Integral package used                   ... LIBINT
 Integral threshhold            Thresh   ...  2.500e-11
 Primitive cut-off              TCut     ...  2.500e-12


------------------------------ INTEGRAL EVALUATION ----------------------------


 * One electron integrals 
 Pre-screening matrix                    ... done
 Shell pair data                         ... done (   0.002 sec)



           ************************************************************
           *        Program running with 6 parallel MPI-processes     *
           *              working on a common directory               *
           ************************************************************
-------------------------------------------------------------------------------
                                 ORCA SCF
-------------------------------------------------------------------------------

------------
SCF SETTINGS
------------
Hamiltonian:
 Ab initio Hamiltonian  Method          .... Hartree-Fock(GTOs)


General Settings:
 Integral files         IntName         .... 12h2o.su.etal.mol0,1,4,6,7,8,9,11-orca.engrad-mp2.def2tzvp.frozencore
 Hartree-Fock type      HFTyp           .... RHF
 Total Charge           Charge          ....    0
 Multiplicity           Mult            ....    1
 Number of Electrons    NEL             ....   80
 Basis Dimension        Dim             ....  344
 Nuclear Repulsion      ENuc            ....    476.9408446225 Eh

Convergence Acceleration:
 DIIS                   CNVDIIS         .... on
   Start iteration      DIISMaxIt       ....    12
   Startup error        DIISStart       ....  0.200000
   # of expansion vecs  DIISMaxEq       ....     5
   Bias factor          DIISBfac        ....   1.050
   Max. coefficient     DIISMaxC        ....  10.000
 Newton-Raphson         CNVNR           .... off
 SOSCF                  CNVSOSCF        .... on
   Start iteration      SOSCFMaxIt      ....   150
   Startup grad/error   SOSCFStart      ....  0.003300
 Level Shifting         CNVShift        .... on
   Level shift para.    LevelShift      ....    0.2500
   Turn off err/grad.   ShiftErr        ....    0.0010
 Zerner damping         CNVZerner       .... off
 Static damping         CNVDamp         .... on
   Fraction old density DampFac         ....    0.7000
   Max. Damping (<1)    DampMax         ....    0.9800
   Min. Damping (>=0)   DampMin         ....    0.0000
   Turn off err/grad.   DampErr         ....    0.1000
 Fernandez-Rico         CNVRico         .... off

SCF Procedure:
 Maximum # iterations   MaxIter         ....   125
 SCF integral mode      SCFMode         .... Direct
   Integral package                     .... LIBINT
 Reset frequency        DirectResetFreq ....    20
 Integral Threshold     Thresh          ....  2.500e-11 Eh
 Primitive CutOff       TCut            ....  2.500e-12 Eh

Convergence Tolerance:
 Convergence Check Mode ConvCheckMode   .... Total+1el-Energy
 Convergence forced     ConvForced      .... 1
 Energy Change          TolE            ....  1.000e-08 Eh
 1-El. energy change                    ....  1.000e-05 Eh
 Orbital Gradient       TolG            ....  1.000e-05
 Orbital Rotation angle TolX            ....  1.000e-05
 DIIS Error             TolErr          ....  5.000e-07


Diagonalization of the overlap matrix:
Smallest eigenvalue                        ... 3.339e-03
Time for diagonalization                   ...    0.015 sec
Threshold for overlap eigenvalues          ... 1.000e-08
Number of eigenvalues below threshold      ... 0
Time for construction of square roots      ...    0.008 sec
Total time needed                          ...    0.024 sec

-------------------
DFT GRID GENERATION
-------------------

General Integration Accuracy     IntAcc      ...  4.340
Radial Grid Type                 RadialGrid  ... Gauss-Chebyshev
Angular Grid (max. acc.)         AngularGrid ... Lebedev-110
Angular grid pruning method      GridPruning ... 3 (G Style)
Weight generation scheme         WeightScheme... Becke
Basis function cutoff            BFCut       ...    1.0000e-11
Integration weight cutoff        WCut        ...    1.0000e-14
Grids for H and He will be reduced by one unit

# of grid points (after initial pruning)     ...  26432 (   0.0 sec)
# of grid points (after weights+screening)   ...  24491 (   0.0 sec)
nearest neighbour list constructed           ...    0.0 sec
Grid point re-assignment to atoms done       ...    0.0 sec
Grid point division into batches done        ...    0.0 sec
Reduced shell lists constructed in    0.1 sec

Total number of grid points                  ...    24491
Total number of batches                      ...      396
Average number of points per batch           ...       61
Average number of grid points per atom       ...     1020
Average number of shells per batch           ...    79.61 (52.38%)
Average number of basis functions per batch  ...   161.97 (47.08%)
Average number of large shells per batch     ...    55.07 (69.18%)
Average number of large basis fcns per batch ...   106.93 (66.02%)
Maximum spatial batch extension              ...  12.91, 16.09, 11.85 au
Average spatial batch extension              ...   0.45,  0.52,  0.46 au

Time for grid setup =    0.089 sec

------------------------------
INITIAL GUESS: MODEL POTENTIAL
------------------------------
Loading Hartree-Fock densities                     ... done
Calculating cut-offs                               ... done
Setting up the integral package                    ... done
Initializing the effective Hamiltonian             ... done
Starting the Coulomb interaction                   ... done (   0.0 sec)
Reading the grid                                   ... done
Mapping shells                                     ... done
Starting the XC term evaluation                    ... done (   0.0 sec)
Transforming the Hamiltonian                       ... done (   0.0 sec)
Diagonalizing the Hamiltonian                      ... done (   0.0 sec)
Back transforming the eigenvectors                 ... done (   0.0 sec)
Now organizing SCF variables                       ... done
                      ------------------
                      INITIAL GUESS DONE (   0.3 sec)
                      ------------------
--------------
SCF ITERATIONS
--------------
ITER       Energy         Delta-E        Max-DP      RMS-DP      [F,P]     Damp
               ***  Starting incremental Fock matrix formation  ***
  0   -607.8552327537   0.000000000000 0.04347258  0.00082250  0.3473772 0.7000
  1   -608.1160516754  -0.260818921726 0.02898780  0.00057042  0.2162843 0.7000
                               ***Turning on DIIS***
  2   -608.2551246619  -0.139072986524 0.01665044  0.00032089  0.1636135 0.7000
  3   -609.5398483260  -1.284723664063 0.00750859  0.00014893  0.1218073 0.7000
  4   -609.2796071997   0.260241126253 0.01669918  0.00034488  0.0861222 0.0000
  5   -608.5709281663   0.708679033457 0.00237637  0.00005498  0.0054830 0.0000
                      *** Initiating the SOSCF procedure ***
                           *** Shutting down DIIS ***
                      *** Re-Reading the Fockian *** 
                      *** Removing any level shift *** 
ITER      Energy       Delta-E        Grad      Rot      Max-DP    RMS-DP
  6   -608.53411333   0.0368148320  0.000679  0.000679  0.001500  0.000034
               *** Restarting incremental Fock matrix formation ***
  7   -608.52461598   0.0094973567  0.000257  0.000412  0.000669  0.000015
  8   -608.52462727  -0.0000112955  0.000125  0.000361  0.000550  0.000013
  9   -608.52463006  -0.0000027844  0.000077  0.000045  0.000115  0.000002
 10   -608.52463028  -0.0000002197  0.000013  0.000008  0.000022  0.000000
 11   -608.52463028  -0.0000000073  0.000003  0.000002  0.000005  0.000000
                  ***Gradient check signals convergence***
              ***Rediagonalizing the Fockian in SOSCF/NRSCF***

               *****************************************************
               *                     SUCCESS                       *
               *           SCF CONVERGED AFTER  12 CYCLES          *
               *****************************************************


----------------
TOTAL SCF ENERGY
----------------

Total Energy       :         -608.52463028 Eh          -16558.79702 eV

Components:
Nuclear Repulsion  :          476.94084462 Eh           12978.22018 eV
Electronic Energy  :        -1085.46547491 Eh          -29537.01721 eV
One Electron Energy:        -1790.70501618 Eh          -48727.56075 eV
Two Electron Energy:          705.23954127 Eh           19190.54355 eV

Virial components:
Potential Energy   :        -1216.31958959 Eh          -33097.73869 eV
Kinetic Energy     :          607.79495931 Eh           16538.94167 eV
Virial Ratio       :            2.00120052


---------------
SCF CONVERGENCE
---------------

  Last Energy change         ...    9.7725e-10  Tolerance :   1.0000e-08
  Last MAX-Density change    ...    1.6866e-06  Tolerance :   1.0000e-07
  Last RMS-Density change    ...    3.7651e-08  Tolerance :   5.0000e-09
  Last Orbital Gradient      ...    7.7770e-07  Tolerance :   1.0000e-05
  Last Orbital Rotation      ...    9.0250e-07  Tolerance :   1.0000e-05

             **** THE GBW FILE WAS UPDATED (12h2o.su.etal.mol0,1,4,6,7,8,9,11-orca.engrad-mp2.def2tzvp.frozencore.gbw) ****
             **** DENSITY FILE WAS UPDATED (12h2o.su.etal.mol0,1,4,6,7,8,9,11-orca.engrad-mp2.def2tzvp.frozencore.scfp) ****
             **** ENERGY FILE WAS UPDATED (12h2o.su.etal.mol0,1,4,6,7,8,9,11-orca.engrad-mp2.def2tzvp.frozencore.en.tmp) ****
             **** THE GBW FILE WAS UPDATED (12h2o.su.etal.mol0,1,4,6,7,8,9,11-orca.engrad-mp2.def2tzvp.frozencore.gbw) ****
             **** DENSITY FILE WAS UPDATED (12h2o.su.etal.mol0,1,4,6,7,8,9,11-orca.engrad-mp2.def2tzvp.frozencore.scfp) ****
----------------
ORBITAL ENERGIES
----------------

  NO   OCC          E(Eh)            E(eV) 
   0   2.0000     -20.591719      -560.3292 
   1   2.0000     -20.588686      -560.2466 
   2   2.0000     -20.587252      -560.2076 
   3   2.0000     -20.585604      -560.1628 
   4   2.0000     -20.573593      -559.8359 
   5   2.0000     -20.565922      -559.6272 
   6   2.0000     -20.532468      -558.7169 
   7   2.0000     -20.524494      -558.4999 
   8   2.0000      -1.390061       -37.8255 
   9   2.0000      -1.382340       -37.6154 
  10   2.0000      -1.370697       -37.2986 
  11   2.0000      -1.366576       -37.1864 
  12   2.0000      -1.361269       -37.0420 
  13   2.0000      -1.346906       -36.6512 
  14   2.0000      -1.320154       -35.9232 
  15   2.0000      -1.304770       -35.5046 
  16   2.0000      -0.753442       -20.5022 
  17   2.0000      -0.745979       -20.2991 
  18   2.0000      -0.744281       -20.2529 
  19   2.0000      -0.733896       -19.9703 
  20   2.0000      -0.731361       -19.9013 
  21   2.0000      -0.722394       -19.6573 
  22   2.0000      -0.700591       -19.0640 
  23   2.0000      -0.674079       -18.3426 
  24   2.0000      -0.654134       -17.7999 
  25   2.0000      -0.630349       -17.1527 
  26   2.0000      -0.621226       -16.9044 
  27   2.0000      -0.604835       -16.4584 
  28   2.0000      -0.600467       -16.3395 
  29   2.0000      -0.588032       -16.0012 
  30   2.0000      -0.565527       -15.3888 
  31   2.0000      -0.544155       -14.8072 
  32   2.0000      -0.535128       -14.5616 
  33   2.0000      -0.534260       -14.5379 
  34   2.0000      -0.527917       -14.3653 
  35   2.0000      -0.526142       -14.3171 
  36   2.0000      -0.515467       -14.0266 
  37   2.0000      -0.511778       -13.9262 
  38   2.0000      -0.484364       -13.1802 
  39   2.0000      -0.470594       -12.8055 
  40   0.0000       0.089150         2.4259 
  41   0.0000       0.117906         3.2084 
  42   0.0000       0.136787         3.7222 
  43   0.0000       0.138699         3.7742 
  44   0.0000       0.192579         5.2403 
  45   0.0000       0.202041         5.4978 
  46   0.0000       0.221185         6.0188 
  47   0.0000       0.237244         6.4557 
  48   0.0000       0.253321         6.8932 
  49   0.0000       0.276950         7.5362 
  50   0.0000       0.296937         8.0801 
  51   0.0000       0.303952         8.2709 
  52   0.0000       0.314517         8.5585 
  53   0.0000       0.320035         8.7086 
  54   0.0000       0.334888         9.1128 
  55   0.0000       0.349150         9.5009 
  56   0.0000       0.400176        10.8894 
  57   0.0000       0.472841        12.8666 
  58   0.0000       0.476523        12.9669 
  59   0.0000       0.479555        13.0493 
  60   0.0000       0.498702        13.5704 
  61   0.0000       0.507104        13.7990 
  62   0.0000       0.508629        13.8405 
  63   0.0000       0.518486        14.1087 
  64   0.0000       0.532746        14.4968 
  65   0.0000       0.542911        14.7734 
  66   0.0000       0.556398        15.1404 
  67   0.0000       0.559055        15.2127 
  68   0.0000       0.565768        15.3953 
  69   0.0000       0.581358        15.8196 
  70   0.0000       0.591988        16.1088 
  71   0.0000       0.604875        16.4595 
  72   0.0000       0.629089        17.1184 
  73   0.0000       0.630676        17.1616 
  74   0.0000       0.639045        17.3893 
  75   0.0000       0.654406        17.8073 
  76   0.0000       0.681519        18.5451 
  77   0.0000       0.697015        18.9667 
  78   0.0000       0.704063        19.1585 
  79   0.0000       0.719141        19.5688 
  80   0.0000       0.731240        19.8981 
  81   0.0000       0.732815        19.9409 
  82   0.0000       0.754523        20.5316 
  83   0.0000       0.763594        20.7784 
  84   0.0000       0.765481        20.8298 
  85   0.0000       0.782858        21.3026 
  86   0.0000       0.798120        21.7179 
  87   0.0000       0.805894        21.9295 
  88   0.0000       0.813447        22.1350 
  89   0.0000       0.829700        22.5773 
  90   0.0000       0.835369        22.7315 
  91   0.0000       0.858474        23.3603 
  92   0.0000       0.865066        23.5396 
  93   0.0000       0.877855        23.8877 
  94   0.0000       0.885569        24.0976 
  95   0.0000       0.931871        25.3575 
  96   0.0000       0.955364        25.9968 
  97   0.0000       1.005228        27.3536 
  98   0.0000       1.010541        27.4982 
  99   0.0000       1.029211        28.0063 
 100   0.0000       1.060692        28.8629 
 101   0.0000       1.076359        29.2892 
 102   0.0000       1.115182        30.3456 
 103   0.0000       1.205101        32.7925 
 104   0.0000       1.335472        36.3400 
 105   0.0000       1.349338        36.7174 
 106   0.0000       1.381045        37.5802 
 107   0.0000       1.387457        37.7546 
 108   0.0000       1.393446        37.9176 
 109   0.0000       1.409766        38.3617 
 110   0.0000       1.419251        38.6198 
 111   0.0000       1.424150        38.7531 
 112   0.0000       1.427178        38.8355 
 113   0.0000       1.441591        39.2277 
 114   0.0000       1.461479        39.7689 
 115   0.0000       1.486180        40.4410 
 116   0.0000       1.498198        40.7680 
 117   0.0000       1.514616        41.2148 
 118   0.0000       1.519457        41.3465 
 119   0.0000       1.538915        41.8760 
 120   0.0000       1.555160        42.3181 
 121   0.0000       1.568284        42.6752 
 122   0.0000       1.572746        42.7966 
 123   0.0000       1.601940        43.5910 
 124   0.0000       1.606448        43.7137 
 125   0.0000       1.613598        43.9082 
 126   0.0000       1.635921        44.5157 
 127   0.0000       1.662950        45.2512 
 128   0.0000       1.798052        48.9275 
 129   0.0000       1.814271        49.3688 
 130   0.0000       1.835379        49.9432 
 131   0.0000       1.858051        50.5601 
 132   0.0000       1.875929        51.0466 
 133   0.0000       1.883945        51.2647 
 134   0.0000       1.893528        51.5255 
 135   0.0000       1.912698        52.0471 
 136   0.0000       1.932299        52.5805 
 137   0.0000       1.974910        53.7400 
 138   0.0000       1.978399        53.8350 
 139   0.0000       1.991638        54.1952 
 140   0.0000       1.994137        54.2632 
 141   0.0000       2.016464        54.8708 
 142   0.0000       2.018004        54.9127 
 143   0.0000       2.050855        55.8066 
 144   0.0000       2.058366        56.0110 
 145   0.0000       2.076553        56.5059 
 146   0.0000       2.097963        57.0885 
 147   0.0000       2.126123        57.8548 
 148   0.0000       2.139639        58.2225 
 149   0.0000       2.168845        59.0173 
 150   0.0000       2.203715        59.9661 
 151   0.0000       2.209563        60.1253 
 152   0.0000       2.229796        60.6758 
 153   0.0000       2.233082        60.7652 
 154   0.0000       2.261500        61.5385 
 155   0.0000       2.282989        62.1233 
 156   0.0000       2.306933        62.7748 
 157   0.0000       2.326643        63.3112 
 158   0.0000       2.342143        63.7330 
 159   0.0000       2.346380        63.8483 
 160   0.0000       2.352172        64.0058 
 161   0.0000       2.356380        64.1204 
 162   0.0000       2.377268        64.6888 
 163   0.0000       2.389346        65.0174 
 164   0.0000       2.405202        65.4489 
 165   0.0000       2.421450        65.8910 
 166   0.0000       2.437504        66.3278 
 167   0.0000       2.459451        66.9251 
 168   0.0000       2.477064        67.4043 
 169   0.0000       2.501569        68.0712 
 170   0.0000       2.502796        68.1045 
 171   0.0000       2.521936        68.6254 
 172   0.0000       2.528511        68.8043 
 173   0.0000       2.547391        69.3180 
 174   0.0000       2.582940        70.2854 
 175   0.0000       2.597883        70.6920 
 176   0.0000       2.603681        70.8498 
 177   0.0000       2.613884        71.1274 
 178   0.0000       2.623575        71.3911 
 179   0.0000       2.630372        71.5761 
 180   0.0000       2.642209        71.8982 
 181   0.0000       2.655058        72.2478 
 182   0.0000       2.657194        72.3059 
 183   0.0000       2.671755        72.7021 
 184   0.0000       2.688508        73.1580 
 185   0.0000       2.704948        73.6054 
 186   0.0000       2.715084        73.8812 
 187   0.0000       2.736715        74.4698 
 188   0.0000       2.737662        74.4956 
 189   0.0000       2.801075        76.2211 
 190   0.0000       2.803891        76.2977 
 191   0.0000       2.817114        76.6576 
 192   0.0000       2.884540        78.4923 
 193   0.0000       2.914146        79.2979 
 194   0.0000       2.931399        79.7674 
 195   0.0000       2.949662        80.2644 
 196   0.0000       2.961784        80.5942 
 197   0.0000       2.977912        81.0331 
 198   0.0000       2.987419        81.2918 
 199   0.0000       3.001849        81.6845 
 200   0.0000       3.010993        81.9333 
 201   0.0000       3.014266        82.0223 
 202   0.0000       3.041157        82.7541 
 203   0.0000       3.049022        82.9681 
 204   0.0000       3.058681        83.2309 
 205   0.0000       3.099884        84.3521 
 206   0.0000       3.106436        84.5304 
 207   0.0000       3.114619        84.7531 
 208   0.0000       3.141690        85.4897 
 209   0.0000       3.175306        86.4045 
 210   0.0000       3.183423        86.6253 
 211   0.0000       3.207663        87.2849 
 212   0.0000       3.231528        87.9344 
 213   0.0000       3.236918        88.0810 
 214   0.0000       3.262263        88.7707 
 215   0.0000       3.292255        89.5868 
 216   0.0000       3.308123        90.0186 
 217   0.0000       3.336538        90.7918 
 218   0.0000       3.381266        92.0089 
 219   0.0000       3.382798        92.0506 
 220   0.0000       3.422770        93.1383 
 221   0.0000       3.488789        94.9348 
 222   0.0000       3.500808        95.2618 
 223   0.0000       3.551184        96.6326 
 224   0.0000       4.025590       109.5419 
 225   0.0000       4.036305       109.8334 
 226   0.0000       4.074188       110.8643 
 227   0.0000       4.083994       111.1311 
 228   0.0000       4.093201       111.3817 
 229   0.0000       4.116942       112.0277 
 230   0.0000       4.137941       112.5991 
 231   0.0000       4.177205       113.6675 
 232   0.0000       4.287095       116.6578 
 233   0.0000       4.296420       116.9115 
 234   0.0000       4.313102       117.3655 
 235   0.0000       4.330577       117.8410 
 236   0.0000       4.346713       118.2801 
 237   0.0000       4.360106       118.6445 
 238   0.0000       4.374455       119.0350 
 239   0.0000       4.392912       119.5372 
 240   0.0000       5.511340       149.9712 
 241   0.0000       5.513241       150.0229 
 242   0.0000       5.516451       150.1103 
 243   0.0000       5.519718       150.1992 
 244   0.0000       5.531428       150.5178 
 245   0.0000       5.534223       150.5939 
 246   0.0000       5.572425       151.6334 
 247   0.0000       5.582737       151.9140 
 248   0.0000       5.611964       152.7093 
 249   0.0000       5.628252       153.1525 
 250   0.0000       5.642757       153.5472 
 251   0.0000       5.651520       153.7857 
 252   0.0000       5.661323       154.0524 
 253   0.0000       5.682055       154.6166 
 254   0.0000       5.684312       154.6780 
 255   0.0000       5.688688       154.7971 
 256   0.0000       5.781747       157.3293 
 257   0.0000       5.785234       157.4242 
 258   0.0000       5.797068       157.7462 
 259   0.0000       5.799358       157.8086 
 260   0.0000       5.805076       157.9641 
 261   0.0000       5.813398       158.1906 
 262   0.0000       5.821305       158.4058 
 263   0.0000       5.829680       158.6336 
 264   0.0000       5.841919       158.9667 
 265   0.0000       5.844569       159.0388 
 266   0.0000       5.852734       159.2610 
 267   0.0000       5.857517       159.3911 
 268   0.0000       5.859808       159.4535 
 269   0.0000       5.863891       159.5646 
 270   0.0000       5.864001       159.5676 
 271   0.0000       5.874359       159.8494 
 272   0.0000       5.878102       159.9513 
 273   0.0000       5.887084       160.1957 
 274   0.0000       5.897955       160.4915 
 275   0.0000       5.902343       160.6109 
 276   0.0000       5.908586       160.7808 
 277   0.0000       5.920274       161.0988 
 278   0.0000       5.929494       161.3497 
 279   0.0000       5.942318       161.6987 
 280   0.0000       6.440267       175.2486 
 281   0.0000       6.447566       175.4472 
 282   0.0000       6.451066       175.5424 
 283   0.0000       6.458707       175.7503 
 284   0.0000       6.467625       175.9930 
 285   0.0000       6.485695       176.4847 
 286   0.0000       6.499366       176.8567 
 287   0.0000       6.528370       177.6460 
 288   0.0000       6.635800       180.5693 
 289   0.0000       6.657306       181.1545 
 290   0.0000       6.693598       182.1421 
 291   0.0000       6.717448       182.7911 
 292   0.0000       6.723612       182.9588 
 293   0.0000       6.730958       183.1587 
 294   0.0000       6.741429       183.4436 
 295   0.0000       6.780456       184.5056 
 296   0.0000       6.816463       185.4854 
 297   0.0000       6.832835       185.9309 
 298   0.0000       6.846364       186.2990 
 299   0.0000       6.861628       186.7144 
 300   0.0000       6.867762       186.8813 
 301   0.0000       6.873492       187.0372 
 302   0.0000       6.881282       187.2492 
 303   0.0000       6.886419       187.3890 
 304   0.0000       6.900699       187.7776 
 305   0.0000       6.911720       188.0775 
 306   0.0000       6.915909       188.1914 
 307   0.0000       6.920092       188.3053 
 308   0.0000       6.927914       188.5181 
 309   0.0000       6.933066       188.6583 
 310   0.0000       6.944227       188.9620 
 311   0.0000       6.957332       189.3186 
 312   0.0000       6.971143       189.6944 
 313   0.0000       6.985012       190.0719 
 314   0.0000       6.991745       190.2551 
 315   0.0000       7.019521       191.0109 
 316   0.0000       7.039158       191.5452 
 317   0.0000       7.049115       191.8162 
 318   0.0000       7.086057       192.8214 
 319   0.0000       7.116656       193.6541 
 320   0.0000       7.345155       199.8718 
 321   0.0000       7.374630       200.6739 
 322   0.0000       7.404900       201.4976 
 323   0.0000       7.408263       201.5891 
 324   0.0000       7.441765       202.5007 
 325   0.0000       7.463449       203.0908 
 326   0.0000       7.483754       203.6433 
 327   0.0000       7.493261       203.9020 
 328   0.0000       7.520615       204.6463 
 329   0.0000       7.534361       205.0204 
 330   0.0000       7.550490       205.4593 
 331   0.0000       7.562022       205.7731 
 332   0.0000       7.572201       206.0501 
 333   0.0000       7.576004       206.1536 
 334   0.0000       7.585586       206.4143 
 335   0.0000       7.654292       208.2839 
 336   0.0000      44.943894      1222.9855 
 337   0.0000      44.965593      1223.5760 
 338   0.0000      44.981375      1224.0055 
 339   0.0000      44.997229      1224.4368 
 340   0.0000      45.019854      1225.0525 
 341   0.0000      45.023258      1225.1451 
 342   0.0000      45.085124      1226.8286 
 343   0.0000      45.172213      1229.1984 

                    ********************************
                    * MULLIKEN POPULATION ANALYSIS *
                    ********************************

-----------------------
MULLIKEN ATOMIC CHARGES
-----------------------
   0 O :   -0.798715
   1 H :    0.362423
   2 H :    0.416524
   3 O :   -0.800950
   4 H :    0.368173
   5 H :    0.412303
   6 O :   -0.776718
   7 H :    0.366346
   8 H :    0.406127
   9 O :   -0.784848
  10 H :    0.388907
  11 H :    0.366739
  12 O :   -0.734827
  13 H :    0.402536
  14 H :    0.356345
  15 O :   -0.716047
  16 H :    0.393707
  17 H :    0.314076
  18 O :   -0.742562
  19 H :    0.361504
  20 H :    0.408609
  21 O :   -0.764440
  22 H :    0.404121
  23 H :    0.390665
Sum of atomic charges:   -0.0000000

--------------------------------
MULLIKEN REDUCED ORBITAL CHARGES
--------------------------------
  0 O s       :     3.807539  s :     3.807539
      pz      :     1.728370  p :     4.967994
      px      :     1.448109
      py      :     1.791515
      dz2     :     0.003667  d :     0.021807
      dxz     :     0.004474
      dyz     :     0.004965
      dx2y2   :     0.002186
      dxy     :     0.006514
      f0      :     0.000081  f :     0.001375
      f+1     :     0.000315
      f-1     :     0.000169
      f+2     :     0.000060
      f-2     :     0.000345
      f+3     :     0.000081
      f-3     :     0.000325
  1 H s       :     0.592328  s :     0.592328
      pz      :     0.016928  p :     0.045249
      px      :     0.013695
      py      :     0.014626
  2 H s       :     0.527666  s :     0.527666
      pz      :     0.009763  p :     0.055811
      px      :     0.033045
      py      :     0.013002
  3 O s       :     3.806133  s :     3.806133
      pz      :     1.728731  p :     4.971732
      px      :     1.445319
      py      :     1.797682
      dz2     :     0.003517  d :     0.021704
      dxz     :     0.004306
      dyz     :     0.004961
      dx2y2   :     0.002210
      dxy     :     0.006710
      f0      :     0.000080  f :     0.001381
      f+1     :     0.000314
      f-1     :     0.000169
      f+2     :     0.000061
      f-2     :     0.000346
      f+3     :     0.000082
      f-3     :     0.000329
  4 H s       :     0.586671  s :     0.586671
      pz      :     0.016845  p :     0.045156
      px      :     0.013676
      py      :     0.014635
  5 H s       :     0.531952  s :     0.531952
      pz      :     0.009851  p :     0.055745
      px      :     0.032854
      py      :     0.013040
  6 O s       :     3.801074  s :     3.801074
      pz      :     1.561263  p :     4.951465
      px      :     1.855217
      py      :     1.534984
      dz2     :     0.010569  d :     0.022810
      dxz     :     0.001971
      dyz     :     0.002578
      dx2y2   :     0.003121
      dxy     :     0.004571
      f0      :     0.000192  f :     0.001369
      f+1     :     0.000114
      f-1     :     0.000444
      f+2     :     0.000069
      f-2     :     0.000038
      f+3     :     0.000415
      f-3     :     0.000098
  7 H s       :     0.589568  s :     0.589568
      pz      :     0.018854  p :     0.044085
      px      :     0.013390
      py      :     0.011842
  8 H s       :     0.541577  s :     0.541577
      pz      :     0.008478  p :     0.052295
      px      :     0.014265
      py      :     0.029553
  9 O s       :     3.807132  s :     3.807132
      pz      :     1.588533  p :     4.953852
      px      :     1.490838
      py      :     1.874481
      dz2     :     0.009812  d :     0.022469
      dxz     :     0.002462
      dyz     :     0.002275
      dx2y2   :     0.002890
      dxy     :     0.005030
      f0      :     0.000182  f :     0.001395
      f+1     :     0.000423
      f-1     :     0.000116
      f+2     :     0.000077
      f-2     :     0.000035
      f+3     :     0.000116
      f-3     :     0.000446
 10 H s       :     0.561794  s :     0.561794
      pz      :     0.024536  p :     0.049299
      px      :     0.011528
      py      :     0.013234
 11 H s       :     0.579433  s :     0.579433
      pz      :     0.009430  p :     0.053829
      px      :     0.028462
      py      :     0.015937
 12 O s       :     3.803703  s :     3.803703
      pz      :     1.605361  p :     4.904620
      px      :     1.462562
      py      :     1.836697
      dz2     :     0.011552  d :     0.025140
      dxz     :     0.002886
      dyz     :     0.002217
      dx2y2   :     0.003599
      dxy     :     0.004886
      f0      :     0.000145  f :     0.001364
      f+1     :     0.000456
      f-1     :     0.000110
      f+2     :     0.000066
      f-2     :     0.000039
      f+3     :     0.000104
      f-3     :     0.000444
 13 H s       :     0.549050  s :     0.549050
      pz      :     0.025331  p :     0.048413
      px      :     0.010705
      py      :     0.012377
 14 H s       :     0.600868  s :     0.600868
      pz      :     0.010076  p :     0.042786
      px      :     0.018597
      py      :     0.014113
 15 O s       :     3.809879  s :     3.809879
      pz      :     1.563211  p :     4.879277
      px      :     1.503560
      py      :     1.812506
      dz2     :     0.011490  d :     0.025401
      dxz     :     0.001175
      dyz     :     0.003005
      dx2y2   :     0.002161
      dxy     :     0.007570
      f0      :     0.000244  f :     0.001490
      f+1     :     0.000374
      f-1     :     0.000167
      f+2     :     0.000056
      f-2     :     0.000056
      f+3     :     0.000072
      f-3     :     0.000521
 16 H s       :     0.557509  s :     0.557509
      pz      :     0.024791  p :     0.048783
      px      :     0.011387
      py      :     0.012604
 17 H s       :     0.640612  s :     0.640612
      pz      :     0.011304  p :     0.045312
      px      :     0.017866
      py      :     0.016143
 18 O s       :     3.795646  s :     3.795646
      pz      :     1.522371  p :     4.920883
      px      :     1.789512
      py      :     1.609000
      dz2     :     0.012369  d :     0.024652
      dxz     :     0.002250
      dyz     :     0.001274
      dx2y2   :     0.002291
      dxy     :     0.006468
      f0      :     0.000250  f :     0.001381
      f+1     :     0.000154
      f-1     :     0.000388
      f+2     :     0.000051
      f-2     :     0.000056
      f+3     :     0.000439
      f-3     :     0.000045
 19 H s       :     0.594695  s :     0.594695
      pz      :     0.019225  p :     0.043801
      px      :     0.012834
      py      :     0.011741
 20 H s       :     0.542298  s :     0.542298
      pz      :     0.009218  p :     0.049093
      px      :     0.015212
      py      :     0.024662
 21 O s       :     3.793414  s :     3.793414
      pz      :     1.572631  p :     4.945644
      px      :     1.782706
      py      :     1.590308
      dz2     :     0.011786  d :     0.024042
      dxz     :     0.002189
      dyz     :     0.001213
      dx2y2   :     0.002323
      dxy     :     0.006532
      f0      :     0.000229  f :     0.001339
      f+1     :     0.000148
      f-1     :     0.000377
      f+2     :     0.000050
      f-2     :     0.000054
      f+3     :     0.000437
      f-3     :     0.000045
 22 H s       :     0.548176  s :     0.548176
      pz      :     0.024601  p :     0.047702
      px      :     0.012010
      py      :     0.011091
 23 H s       :     0.559725  s :     0.559725
      pz      :     0.009812  p :     0.049611
      px      :     0.015617
      py      :     0.024181


                     *******************************
                     * LOEWDIN POPULATION ANALYSIS *
                     *******************************

----------------------
LOEWDIN ATOMIC CHARGES
----------------------
   0 O :   -0.327843
   1 H :    0.159701
   2 H :    0.157232
   3 O :   -0.328081
   4 H :    0.162357
   5 H :    0.156421
   6 O :   -0.308833
   7 H :    0.169825
   8 H :    0.158470
   9 O :   -0.356935
  10 H :    0.153572
  11 H :    0.144275
  12 O :   -0.305378
  13 H :    0.160355
  14 H :    0.172722
  15 O :   -0.343192
  16 H :    0.159240
  17 H :    0.150765
  18 O :   -0.289574
  19 H :    0.169176
  20 H :    0.164591
  21 O :   -0.297722
  22 H :    0.162357
  23 H :    0.156501

-------------------------------
LOEWDIN REDUCED ORBITAL CHARGES
-------------------------------
  0 O s       :     3.454459  s :     3.454459
      pz      :     1.684625  p :     4.843254
      px      :     1.409600
      py      :     1.749029
      dz2     :     0.004693  d :     0.028195
      dxz     :     0.006678
      dyz     :     0.005082
      dx2y2   :     0.003594
      dxy     :     0.008148
      f0      :     0.000086  f :     0.001935
      f+1     :     0.000426
      f-1     :     0.000255
      f+2     :     0.000031
      f-2     :     0.000606
      f+3     :     0.000083
      f-3     :     0.000448
  1 H s       :     0.674774  s :     0.674774
      pz      :     0.066240  p :     0.165526
      px      :     0.046383
      py      :     0.052903
  2 H s       :     0.643044  s :     0.643044
      pz      :     0.033219  p :     0.199724
      px      :     0.118850
      py      :     0.047655
  3 O s       :     3.453982  s :     3.453982
      pz      :     1.683975  p :     4.844159
      px      :     1.408351
      py      :     1.751833
      dz2     :     0.004590  d :     0.028007
      dxz     :     0.006467
      dyz     :     0.004996
      dx2y2   :     0.003607
      dxy     :     0.008347
      f0      :     0.000083  f :     0.001934
      f+1     :     0.000425
      f-1     :     0.000256
      f+2     :     0.000031
      f-2     :     0.000601
      f+3     :     0.000083
      f-3     :     0.000455
  4 H s       :     0.672089  s :     0.672089
      pz      :     0.066149  p :     0.165554
      px      :     0.046370
      py      :     0.053035
  5 H s       :     0.644544  s :     0.644544
      pz      :     0.033217  p :     0.199035
      px      :     0.118063
      py      :     0.047755
  6 O s       :     3.454927  s :     3.454927
      pz      :     1.533045  p :     4.822205
      px      :     1.793862
      py      :     1.495298
      dz2     :     0.014525  d :     0.029720
      dxz     :     0.001268
      dyz     :     0.004001
      dx2y2   :     0.004490
      dxy     :     0.005436
      f0      :     0.000385  f :     0.001981
      f+1     :     0.000195
      f-1     :     0.000728
      f+2     :     0.000039
      f-2     :     0.000046
      f+3     :     0.000523
      f-3     :     0.000064
  7 H s       :     0.670251  s :     0.670251
      pz      :     0.079541  p :     0.159924
      px      :     0.043239
      py      :     0.037144
  8 H s       :     0.653004  s :     0.653004
      pz      :     0.028847  p :     0.188527
      px      :     0.052616
      py      :     0.107064
  9 O s       :     3.456916  s :     3.456916
      pz      :     1.553400  p :     4.869496
      px      :     1.478612
      py      :     1.837485
      dz2     :     0.013451  d :     0.028592
      dxz     :     0.003677
      dyz     :     0.001489
      dx2y2   :     0.003850
      dxy     :     0.006125
      f0      :     0.000357  f :     0.001931
      f+1     :     0.000687
      f-1     :     0.000179
      f+2     :     0.000041
      f-2     :     0.000042
      f+3     :     0.000066
      f-3     :     0.000559
 10 H s       :     0.673217  s :     0.673217
      pz      :     0.093185  p :     0.173211
      px      :     0.037068
      py      :     0.042958
 11 H s       :     0.669967  s :     0.669967
      pz      :     0.030760  p :     0.185758
      px      :     0.102237
      py      :     0.052761
 12 O s       :     3.462076  s :     3.462076
      pz      :     1.578885  p :     4.809957
      px      :     1.452835
      py      :     1.778237
      dz2     :     0.014308  d :     0.031339
      dxz     :     0.003716
      dyz     :     0.001301
      dx2y2   :     0.005516
      dxy     :     0.006499
      f0      :     0.000318  f :     0.002004
      f+1     :     0.000711
      f-1     :     0.000202
      f+2     :     0.000037
      f-2     :     0.000042
      f+3     :     0.000073
      f-3     :     0.000622
 13 H s       :     0.665924  s :     0.665924
      pz      :     0.095475  p :     0.173721
      px      :     0.035975
      py      :     0.042271
 14 H s       :     0.673068  s :     0.673068
      pz      :     0.030634  p :     0.154210
      px      :     0.074417
      py      :     0.049158
 15 O s       :     3.467767  s :     3.467767
      pz      :     1.542120  p :     4.841061
      px      :     1.513450
      py      :     1.785492
      dz2     :     0.015125  d :     0.032216
      dxz     :     0.001761
      dyz     :     0.002307
      dx2y2   :     0.002505
      dxy     :     0.010517
      f0      :     0.000423  f :     0.002147
      f+1     :     0.000567
      f-1     :     0.000319
      f+2     :     0.000025
      f-2     :     0.000045
      f+3     :     0.000003
      f-3     :     0.000766
 16 H s       :     0.669139  s :     0.669139
      pz      :     0.094669  p :     0.171621
      px      :     0.035415
      py      :     0.041538
 17 H s       :     0.692320  s :     0.692320
      pz      :     0.031784  p :     0.156915
      px      :     0.070251
      py      :     0.054880
 18 O s       :     3.450841  s :     3.450841
      pz      :     1.515283  p :     4.805668
      px      :     1.729759
      py      :     1.560626
      dz2     :     0.016190  d :     0.030995
      dxz     :     0.001796
      dyz     :     0.002086
      dx2y2   :     0.003277
      dxy     :     0.007646
      f0      :     0.000470  f :     0.002070
      f+1     :     0.000325
      f-1     :     0.000569
      f+2     :     0.000020
      f-2     :     0.000052
      f+3     :     0.000609
      f-3     :     0.000025
 19 H s       :     0.671467  s :     0.671467
      pz      :     0.080591  p :     0.159357
      px      :     0.041940
      py      :     0.036826
 20 H s       :     0.659314  s :     0.659314
      pz      :     0.029253  p :     0.176095
      px      :     0.058028
      py      :     0.088814
 21 O s       :     3.445658  s :     3.445658
      pz      :     1.542063  p :     4.820385
      px      :     1.725824
      py      :     1.552498
      dz2     :     0.014813  d :     0.029685
      dxz     :     0.001661
      dyz     :     0.001781
      dx2y2   :     0.003393
      dxy     :     0.008036
      f0      :     0.000415  f :     0.001995
      f+1     :     0.000317
      f-1     :     0.000538
      f+2     :     0.000019
      f-2     :     0.000048
      f+3     :     0.000633
      f-3     :     0.000025
 22 H s       :     0.665599  s :     0.665599
      pz      :     0.093513  p :     0.172044
      px      :     0.041493
      py      :     0.037038
 23 H s       :     0.667943  s :     0.667943
      pz      :     0.031036  p :     0.175556
      px      :     0.057886
      py      :     0.086634


                      *****************************
                      * MAYER POPULATION ANALYSIS *
                      *****************************

  NA   - Mulliken gross atomic population
  ZA   - Total nuclear charge
  QA   - Mulliken gross atomic charge
  VA   - Mayer's total valence
  BVA  - Mayer's bonded valence
  FA   - Mayer's free valence

  ATOM       NA         ZA         QA         VA         BVA        FA
  0 O      8.7987     8.0000    -0.7987     1.6697     1.6697    -0.0000
  1 H      0.6376     1.0000     0.3624     0.8860     0.8860    -0.0000
  2 H      0.5835     1.0000     0.4165     0.8662     0.8662    -0.0000
  3 O      8.8009     8.0000    -0.8009     1.6693     1.6693     0.0000
  4 H      0.6318     1.0000     0.3682     0.8820     0.8820     0.0000
  5 H      0.5877     1.0000     0.4123     0.8705     0.8705    -0.0000
  6 O      8.7767     8.0000    -0.7767     1.6897     1.6897     0.0000
  7 H      0.6337     1.0000     0.3663     0.8841     0.8841     0.0000
  8 H      0.5939     1.0000     0.4061     0.8745     0.8745    -0.0000
  9 O      8.7848     8.0000    -0.7848     1.6819     1.6819     0.0000
 10 H      0.6111     1.0000     0.3889     0.8799     0.8799    -0.0000
 11 H      0.6333     1.0000     0.3667     0.9058     0.9058     0.0000
 12 O      8.7348     8.0000    -0.7348     1.7577     1.7577    -0.0000
 13 H      0.5975     1.0000     0.4025     0.8671     0.8671    -0.0000
 14 H      0.6437     1.0000     0.3563     0.8929     0.8929    -0.0000
 15 O      8.7160     8.0000    -0.7160     1.7544     1.7544    -0.0000
 16 H      0.6063     1.0000     0.3937     0.8736     0.8736    -0.0000
 17 H      0.6859     1.0000     0.3141     0.9173     0.9173    -0.0000
 18 O      8.7426     8.0000    -0.7426     1.7437     1.7437    -0.0000
 19 H      0.6385     1.0000     0.3615     0.8852     0.8852    -0.0000
 20 H      0.5914     1.0000     0.4086     0.8696     0.8696    -0.0000
 21 O      8.7644     8.0000    -0.7644     1.7305     1.7305     0.0000
 22 H      0.5959     1.0000     0.4041     0.8606     0.8606     0.0000
 23 H      0.6093     1.0000     0.3907     0.8811     0.8811    -0.0000

  Mayer bond orders larger than 0.100000
B(  0-O ,  1-H ) :   0.8759 B(  0-O ,  2-H ) :   0.7641 B(  3-O ,  4-H ) :   0.8722 
B(  3-O ,  5-H ) :   0.7697 B(  6-O ,  7-H ) :   0.8734 B(  6-O ,  8-H ) :   0.7894 
B(  9-O , 10-H ) :   0.8453 B(  9-O , 11-H ) :   0.8319 B( 12-O , 13-H ) :   0.8275 
B( 12-O , 14-H ) :   0.8768 B( 15-O , 16-H ) :   0.8414 B( 15-O , 17-H ) :   0.9108 
B( 18-O , 19-H ) :   0.8764 B( 18-O , 20-H ) :   0.8132 B( 21-O , 22-H ) :   0.8356 
B( 21-O , 23-H ) :   0.8349 

-------
TIMINGS
-------

Total SCF time: 0 days 0 hours 0 min 30 sec 

Total time                  ....      30.251 sec
Sum of individual times     ....      29.936 sec  ( 99.0%)

Fock matrix formation       ....      29.357 sec  ( 97.0%)
Diagonalization             ....       0.134 sec  (  0.4%)
Density matrix formation    ....       0.018 sec  (  0.1%)
Population analysis         ....       0.017 sec  (  0.1%)
Initial guess               ....       0.194 sec  (  0.6%)
Orbital Transformation      ....       0.000 sec  (  0.0%)
Orbital Orthonormalization  ....       0.000 sec  (  0.0%)
DIIS solution               ....       0.053 sec  (  0.2%)
SOSCF solution              ....       0.073 sec  (  0.2%)


           ************************************************************
           *        Program running with 6 parallel MPI-processes     *
           *              working on a common directory               *
           ************************************************************

------------------------------------------------------------------------------
                                ORCA  MP2 
------------------------------------------------------------------------------

Freezing NCore=16 chemical core electrons
MP2 will be done in the AO integral direct mode
The Q1-step will be done using symmetric double matrices
Dimension of the basis                    ...  344
Memory devoted for MP2                    ... 8000 MB   
Memory needed for all in one shot         ...  935 MB
Number of MOs that can be treated together...   50      
MP2 density construction                  ... relaxed
The MP2 gradient is requested => amplitudes will be stored on disk
Total number of MOs              ...   32
Number of MOs treated per batch  ...    6 
Number of batches necessary      ...    1 
OPERATORS   0/  0 PASS   0
-----------------------------------------------
 MP2 CORRELATION ENERGY   :     -2.076801821 Eh
-----------------------------------------------


---------------------
MP2 DENSITY FORMATION
---------------------

Completing the external part of the density      ... done
Storing the unrelaxed density                    ... done

Calculating G(D)                                 ... done
Completing the Lagrangian                        ... done
Solving the Z-vector equations                   ... 

------------------------------------------------------------------------------
                           ORCA CP-SCF CALCULATION
------------------------------------------------------------------------------

Input orbitals are from        ... 12h2o.su.etal.mol0,1,4,6,7,8,9,11-orca.engrad-mp2.def2tzvp.frozencore.gbw
Input Perturbation             ... 12h2o.su.etal.mol0,1,4,6,7,8,9,11-orca.engrad-mp2.def2tzvp.frozencore.pin.tmp
Wavefunction output            ... 12h2o.su.etal.mol0,1,4,6,7,8,9,11-orca.engrad-mp2.def2tzvp.frozencore.pout.tmp
Perturbation mode              ... Real perturbation (singlet)
Solver                         ... POPLE
Max. number of iterations      ... 128
Convergence tolerance          ... 1.000e-08
Integral handling              ... Direct
Number of perturbations        ... 1
Number of operators            ... 1
Orbital ranges used for CP-SCF:
 Operator 0:  Orbitals   0... 39  to  40...343
Variables per vector in CP-SCF ... 12160
Number of vectors sought       ... 1
     CP-SCF ITERATION   0: 
     CP-SCF ITERATION   1:      0.001066101969
     CP-SCF ITERATION   2:      0.000030567966
     CP-SCF ITERATION   3:      0.000001313272
     CP-SCF ITERATION   4:      0.000000148190
     CP-SCF ITERATION   5:      0.000000013688
     CP-SCF ITERATION   6:      0.000000000742
                                                 ... done
Finalizing the relaxed density                   ... done
Transforming P to the AO basis                   ... done
Storing the relaxed density                      ... done

------------------------------------
ENERGY WEIGHTED DENSITY FINALIZATION
------------------------------------

Gathering the parts of the W-matrix              ...                                                      done
Forming the Z-density                            ... done
Transforming Z to the AO basis                   ... done
Calculating G(Z)                                 ... done
Finalizing the W-matrix                          ...                                                      done
Transforming W to the AO basis and storing       ... done

                *********************************************
                * UNRELAXED MP2 DENSITY POPULATION ANALYSIS *
                *********************************************

------------------------------------------------------------------------------
                           ORCA POPULATION ANALYSIS
------------------------------------------------------------------------------
Input electron density              ... 12h2o.su.etal.mol0,1,4,6,7,8,9,11-orca.engrad-mp2.def2tzvp.frozencore.pmp2ur
BaseName (.gbw .S,...)              ... 12h2o.su.etal.mol0,1,4,6,7,8,9,11-orca.engrad-mp2.def2tzvp.frozencore

                    ********************************
                    * MULLIKEN POPULATION ANALYSIS *
                    ********************************

-----------------------
MULLIKEN ATOMIC CHARGES
-----------------------
   0 O :   -0.791913
   1 H :    0.360076
   2 H :    0.411443
   3 O :   -0.794197
   4 H :    0.365850
   5 H :    0.407264
   6 O :   -0.769682
   7 H :    0.363881
   8 H :    0.401524
   9 O :   -0.778287
  10 H :    0.385838
  11 H :    0.361954
  12 O :   -0.727899
  13 H :    0.399385
  14 H :    0.353463
  15 O :   -0.710797
  16 H :    0.390695
  17 H :    0.311607
  18 O :   -0.735558
  19 H :    0.358997
  20 H :    0.405027
  21 O :   -0.756991
  22 H :    0.401165
  23 H :    0.387156
Sum of atomic charges:   -0.0000000

--------------------------------
MULLIKEN REDUCED ORBITAL CHARGES
--------------------------------
  0 O s       :     3.802590  s :     3.802590
      pz      :     1.717229  p :     4.935544
      px      :     1.439024
      py      :     1.779291
      dz2     :     0.009365  d :     0.049805
      dxz     :     0.010018
      dyz     :     0.010514
      dx2y2   :     0.007869
      dxy     :     0.012038
      f0      :     0.000455  f :     0.003974
      f+1     :     0.000684
      f-1     :     0.000537
      f+2     :     0.000432
      f-2     :     0.000713
      f+3     :     0.000458
      f-3     :     0.000695
  1 H s       :     0.593084  s :     0.593084
      pz      :     0.017399  p :     0.046840
      px      :     0.014136
      py      :     0.015304
  2 H s       :     0.531145  s :     0.531145
      pz      :     0.010560  p :     0.057411
      px      :     0.033161
      py      :     0.013690
  3 O s       :     3.801176  s :     3.801176
      pz      :     1.717549  p :     4.939324
      px      :     1.436249
      py      :     1.785526
      dz2     :     0.009216  d :     0.049718
      dxz     :     0.009850
      dyz     :     0.010530
      dx2y2   :     0.007893
      dxy     :     0.012229
      f0      :     0.000454  f :     0.003980
      f+1     :     0.000682
      f-1     :     0.000537
      f+2     :     0.000434
      f-2     :     0.000714
      f+3     :     0.000459
      f-3     :     0.000699
  4 H s       :     0.587422  s :     0.587422
      pz      :     0.017300  p :     0.046728
      px      :     0.014108
      py      :     0.015320
  5 H s       :     0.535381  s :     0.535381
      pz      :     0.010648  p :     0.057355
      px      :     0.032969
      py      :     0.013738
  6 O s       :     3.795777  s :     3.795777
      pz      :     1.551685  p :     4.919141
      px      :     1.842144
      py      :     1.525312
      dz2     :     0.015981  d :     0.050791
      dxz     :     0.007711
      dyz     :     0.008078
      dx2y2   :     0.008844
      dxy     :     0.010177
      f0      :     0.000577  f :     0.003974
      f+1     :     0.000490
      f-1     :     0.000814
      f+2     :     0.000436
      f-2     :     0.000407
      f+3     :     0.000779
      f-3     :     0.000471
  7 H s       :     0.590442  s :     0.590442
      pz      :     0.018997  p :     0.045677
      px      :     0.014230
      py      :     0.012450
  8 H s       :     0.544613  s :     0.544613
      pz      :     0.009242  p :     0.053863
      px      :     0.014922
      py      :     0.029699
  9 O s       :     3.802144  s :     3.802144
      pz      :     1.578473  p :     4.921994
      px      :     1.481284
      py      :     1.862237
      dz2     :     0.015286  d :     0.050163
      dxz     :     0.007984
      dyz     :     0.007954
      dx2y2   :     0.008450
      dxy     :     0.010489
      f0      :     0.000570  f :     0.003986
      f+1     :     0.000796
      f-1     :     0.000491
      f+2     :     0.000442
      f-2     :     0.000404
      f+3     :     0.000482
      f-3     :     0.000802
 10 H s       :     0.563332  s :     0.563332
      pz      :     0.024639  p :     0.050830
      px      :     0.012120
      py      :     0.014071
 11 H s       :     0.582493  s :     0.582493
      pz      :     0.010264  p :     0.055553
      px      :     0.028609
      py      :     0.016681
 12 O s       :     3.798588  s :     3.798588
      pz      :     1.595280  p :     4.872946
      px      :     1.453821
      py      :     1.823845
      dz2     :     0.016784  d :     0.052415
      dxz     :     0.008257
      dyz     :     0.007860
      dx2y2   :     0.009142
      dxy     :     0.010372
      f0      :     0.000532  f :     0.003950
      f+1     :     0.000824
      f-1     :     0.000487
      f+2     :     0.000431
      f-2     :     0.000405
      f+3     :     0.000472
      f-3     :     0.000799
 13 H s       :     0.550740  s :     0.550740
      pz      :     0.025425  p :     0.049875
      px      :     0.011270
      py      :     0.013180
 14 H s       :     0.602138  s :     0.602138
      pz      :     0.010921  p :     0.044400
      px      :     0.018636
      py      :     0.014843
 15 O s       :     3.805029  s :     3.805029
      pz      :     1.553700  p :     4.849713
      px      :     1.494691
      py      :     1.801322
      dz2     :     0.016615  d :     0.052006
      dxz     :     0.006563
      dyz     :     0.008462
      dx2y2   :     0.007620
      dxy     :     0.012746
      f0      :     0.000625  f :     0.004049
      f+1     :     0.000740
      f-1     :     0.000540
      f+2     :     0.000415
      f-2     :     0.000420
      f+3     :     0.000437
      f-3     :     0.000872
 16 H s       :     0.559031  s :     0.559031
      pz      :     0.024824  p :     0.050275
      px      :     0.012028
      py      :     0.013423
 17 H s       :     0.641294  s :     0.641294
      pz      :     0.012153  p :     0.047100
      px      :     0.018080
      py      :     0.016867
 18 O s       :     3.790415  s :     3.790415
      pz      :     1.513174  p :     4.889070
      px      :     1.776716
      py      :     1.599180
      dz2     :     0.017497  d :     0.052091
      dxz     :     0.007859
      dyz     :     0.006739
      dx2y2   :     0.008018
      dxy     :     0.011978
      f0      :     0.000630  f :     0.003981
      f+1     :     0.000530
      f-1     :     0.000756
      f+2     :     0.000414
      f-2     :     0.000424
      f+3     :     0.000804
      f-3     :     0.000423
 19 H s       :     0.595611  s :     0.595611
      pz      :     0.019305  p :     0.045392
      px      :     0.013650
      py      :     0.012437
 20 H s       :     0.544444  s :     0.544444
      pz      :     0.009947  p :     0.050529
      px      :     0.015740
      py      :     0.024842
 21 O s       :     3.788247  s :     3.788247
      pz      :     1.562822  p :     4.913005
      px      :     1.769820
      py      :     1.580363
      dz2     :     0.017072  d :     0.051786
      dxz     :     0.007862
      dyz     :     0.006748
      dx2y2   :     0.008071
      dxy     :     0.012034
      f0      :     0.000614  f :     0.003953
      f+1     :     0.000527
      f-1     :     0.000749
      f+2     :     0.000415
      f-2     :     0.000424
      f+3     :     0.000801
      f-3     :     0.000423
 22 H s       :     0.549650  s :     0.549650
      pz      :     0.024649  p :     0.049185
      px      :     0.012797
      py      :     0.011739
 23 H s       :     0.561712  s :     0.561712
      pz      :     0.010587  p :     0.051133
      px      :     0.016168
      py      :     0.024378


                     *******************************
                     * LOEWDIN POPULATION ANALYSIS *
                     *******************************

----------------------
LOEWDIN ATOMIC CHARGES
----------------------
   0 O :   -0.323645
   1 H :    0.158381
   2 H :    0.154469
   3 O :   -0.323902
   4 H :    0.161079
   5 H :    0.153665
   6 O :   -0.304383
   7 H :    0.168278
   8 H :    0.155785
   9 O :   -0.353441
  10 H :    0.151465
  11 H :    0.141507
  12 O :   -0.300756
  13 H :    0.158308
  14 H :    0.170877
  15 O :   -0.340375
  16 H :    0.157340
  17 H :    0.149136
  18 O :   -0.285224
  19 H :    0.167646
  20 H :    0.162367
  21 O :   -0.293250
  22 H :    0.160436
  23 H :    0.154237

-------------------------------
LOEWDIN REDUCED ORBITAL CHARGES
-------------------------------
  0 O s       :     3.450835  s :     3.450835
      pz      :     1.673049  p :     4.810747
      px      :     1.400975
      py      :     1.736724
      dz2     :     0.010518  d :     0.057331
      dxz     :     0.012436
      dyz     :     0.010979
      dx2y2   :     0.009371
      dxy     :     0.014026
      f0      :     0.000472  f :     0.004732
      f+1     :     0.000843
      f-1     :     0.000642
      f+2     :     0.000411
      f-2     :     0.001018
      f+3     :     0.000475
      f-3     :     0.000871
  1 H s       :     0.672995  s :     0.672995
      pz      :     0.067462  p :     0.168624
      px      :     0.047305
      py      :     0.053857
  2 H s       :     0.643509  s :     0.643509
      pz      :     0.034045  p :     0.202023
      px      :     0.119502
      py      :     0.048476
  3 O s       :     3.450357  s :     3.450357
      pz      :     1.672351  p :     4.811671
      px      :     1.399725
      py      :     1.739595
      dz2     :     0.010415  d :     0.057143
      dxz     :     0.012226
      dyz     :     0.010896
      dx2y2   :     0.009386
      dxy     :     0.014221
      f0      :     0.000469  f :     0.004730
      f+1     :     0.000842
      f-1     :     0.000644
      f+2     :     0.000411
      f-2     :     0.001013
      f+3     :     0.000475
      f-3     :     0.000878
  4 H s       :     0.670326  s :     0.670326
      pz      :     0.067329  p :     0.168595
      px      :     0.047274
      py      :     0.053992
  5 H s       :     0.644969  s :     0.644969
      pz      :     0.034037  p :     0.201366
      px      :     0.118731
      py      :     0.048598
  6 O s       :     3.451178  s :     3.451178
      pz      :     1.522718  p :     4.789636
      px      :     1.780969
      py      :     1.485950
      dz2     :     0.020567  d :     0.058783
      dxz     :     0.006938
      dyz     :     0.009538
      dx2y2   :     0.010372
      dxy     :     0.011368
      f0      :     0.000803  f :     0.004786
      f+1     :     0.000588
      f-1     :     0.001168
      f+2     :     0.000414
      f-2     :     0.000422
      f+3     :     0.000942
      f-3     :     0.000449
  7 H s       :     0.668671  s :     0.668671
      pz      :     0.081076  p :     0.163051
      px      :     0.044025
      py      :     0.037950
  8 H s       :     0.653100  s :     0.653100
      pz      :     0.029647  p :     0.191115
      px      :     0.053431
      py      :     0.108037
  9 O s       :     3.453288  s :     3.453288
      pz      :     1.542865  p :     4.837960
      px      :     1.469253
      py      :     1.825843
      dz2     :     0.019521  d :     0.057471
      dxz     :     0.009253
      dyz     :     0.007107
      dx2y2   :     0.009628
      dxy     :     0.011961
      f0      :     0.000777  f :     0.004722
      f+1     :     0.001130
      f-1     :     0.000571
      f+2     :     0.000414
      f-2     :     0.000416
      f+3     :     0.000444
      f-3     :     0.000971
 10 H s       :     0.672431  s :     0.672431
      pz      :     0.094514  p :     0.176103
      px      :     0.037858
      py      :     0.043731
 11 H s       :     0.669797  s :     0.669797
      pz      :     0.031634  p :     0.188697
      px      :     0.103402
      py      :     0.053660
 12 O s       :     3.458257  s :     3.458257
      pz      :     1.568895  p :     4.778022
      px      :     1.443782
      py      :     1.765346
      dz2     :     0.020156  d :     0.059689
      dxz     :     0.009129
      dyz     :     0.006867
      dx2y2   :     0.011251
      dxy     :     0.012286
      f0      :     0.000736  f :     0.004788
      f+1     :     0.001148
      f-1     :     0.000594
      f+2     :     0.000410
      f-2     :     0.000415
      f+3     :     0.000452
      f-3     :     0.001033
 13 H s       :     0.665251  s :     0.665251
      pz      :     0.096727  p :     0.176441
      px      :     0.036694
      py      :     0.043020
 14 H s       :     0.671711  s :     0.671711
      pz      :     0.031468  p :     0.157412
      px      :     0.075845
      py      :     0.050099
 15 O s       :     3.464034  s :     3.464034
      pz      :     1.532645  p :     4.811499
      px      :     1.504259
      py      :     1.774595
      dz2     :     0.020921  d :     0.059941
      dxz     :     0.007099
      dyz     :     0.007709
      dx2y2   :     0.007963
      dxy     :     0.016249
      f0      :     0.000843  f :     0.004900
      f+1     :     0.000987
      f-1     :     0.000716
      f+2     :     0.000388
      f-2     :     0.000416
      f+3     :     0.000374
      f-3     :     0.001176
 16 H s       :     0.668270  s :     0.668270
      pz      :     0.095925  p :     0.174390
      px      :     0.036130
      py      :     0.042336
 17 H s       :     0.690407  s :     0.690407
      pz      :     0.032590  p :     0.160457
      px      :     0.071832
      py      :     0.056034
 18 O s       :     3.447062  s :     3.447062
      pz      :     1.505793  p :     4.773832
      px      :     1.717079
      py      :     1.550960
      dz2     :     0.022032  d :     0.059463
      dxz     :     0.007331
      dyz     :     0.007493
      dx2y2   :     0.008961
      dxy     :     0.013646
      f0      :     0.000892  f :     0.004867
      f+1     :     0.000725
      f-1     :     0.000992
      f+2     :     0.000389
      f-2     :     0.000427
      f+3     :     0.001035
      f-3     :     0.000408
 19 H s       :     0.669866  s :     0.669866
      pz      :     0.082145  p :     0.162488
      px      :     0.042735
      py      :     0.037608
 20 H s       :     0.658919  s :     0.658919
      pz      :     0.029974  p :     0.178713
      px      :     0.058866
      py      :     0.089873
 21 O s       :     3.441945  s :     3.441945
      pz      :     1.532275  p :     4.788008
      px      :     1.713065
      py      :     1.542668
      dz2     :     0.020780  d :     0.058491
      dxz     :     0.007266
      dyz     :     0.007272
      dx2y2   :     0.009106
      dxy     :     0.014067
      f0      :     0.000843  f :     0.004808
      f+1     :     0.000720
      f-1     :     0.000965
      f+2     :     0.000389
      f-2     :     0.000425
      f+3     :     0.001059
      f-3     :     0.000407
 22 H s       :     0.664725  s :     0.664725
      pz      :     0.094775  p :     0.174839
      px      :     0.042271
      py      :     0.037794
 23 H s       :     0.667368  s :     0.667368
      pz      :     0.031809  p :     0.178395
      px      :     0.058785
      py      :     0.087801


                      *****************************
                      * MAYER POPULATION ANALYSIS *
[...]
      f+2     :     0.000414
      f-2     :     0.000422
      f+3     :     0.000781
      f-3     :     0.000423
 19 H s       :     0.600881  s :     0.600881
      pz      :     0.018546  p :     0.046032
      px      :     0.014496
      py      :     0.012990
 20 H s       :     0.563080  s :     0.563080
      pz      :     0.010507  p :     0.050879
      px      :     0.016006
      py      :     0.024366
 21 O s       :     3.784410  s :     3.784410
      pz      :     1.559382  p :     4.883737
      px      :     1.748897
      py      :     1.575459
      dz2     :     0.015927  d :     0.050025
      dxz     :     0.007852
      dyz     :     0.006732
      dx2y2   :     0.008031
      dxy     :     0.011483
      f0      :     0.000598  f :     0.003882
      f+1     :     0.000518
      f-1     :     0.000728
      f+2     :     0.000415
      f-2     :     0.000422
      f+3     :     0.000778
      f-3     :     0.000422
 22 H s       :     0.561802  s :     0.561802
      pz      :     0.023821  p :     0.049549
      px      :     0.013552
      py      :     0.012177
 23 H s       :     0.578862  s :     0.578862
      pz      :     0.011235  p :     0.051626
      px      :     0.016539
      py      :     0.023852


                     *******************************
                     * LOEWDIN POPULATION ANALYSIS *
                     *******************************

----------------------
LOEWDIN ATOMIC CHARGES
----------------------
   0 O :   -0.316033
   1 H :    0.160218
   2 H :    0.146210
   3 O :   -0.316445
   4 H :    0.162912
   5 H :    0.145529
   6 O :   -0.296814
   7 H :    0.169620
   8 H :    0.148167
   9 O :   -0.350030
  10 H :    0.147065
  11 H :    0.134827
  12 O :   -0.293408
  13 H :    0.153700
  14 H :    0.171731
  15 O :   -0.342153
  16 H :    0.153319
  17 H :    0.151043
  18 O :   -0.278027
  19 H :    0.169133
  20 H :    0.156776
  21 O :   -0.284312
  22 H :    0.157414
  23 H :    0.149558

-------------------------------
LOEWDIN REDUCED ORBITAL CHARGES
-------------------------------
  0 O s       :     3.452313  s :     3.452313
      pz      :     1.668119  p :     4.801973
      px      :     1.404848
      py      :     1.729006
      dz2     :     0.010624  d :     0.056974
      dxz     :     0.012113
      dyz     :     0.010950
      dx2y2   :     0.009430
      dxy     :     0.013856
      f0      :     0.000475  f :     0.004773
      f+1     :     0.000855
      f-1     :     0.000644
      f+2     :     0.000412
      f-2     :     0.001020
      f+3     :     0.000480
      f-3     :     0.000887
  1 H s       :     0.671274  s :     0.671274
      pz      :     0.067440  p :     0.168509
      px      :     0.046922
      py      :     0.054147
  2 H s       :     0.651607  s :     0.651607
      pz      :     0.034591  p :     0.202183
      px      :     0.118787
      py      :     0.048805
  3 O s       :     3.451736  s :     3.451736
      pz      :     1.667039  p :     4.803180
      px      :     1.403706
      py      :     1.732435
      dz2     :     0.010502  d :     0.056759
      dxz     :     0.011910
      dyz     :     0.010861
      dx2y2   :     0.009445
      dxy     :     0.014041
      f0      :     0.000472  f :     0.004770
      f+1     :     0.000853
      f-1     :     0.000646
      f+2     :     0.000412
      f-2     :     0.001015
      f+3     :     0.000480
      f-3     :     0.000894
  4 H s       :     0.668674  s :     0.668674
      pz      :     0.067188  p :     0.168414
      px      :     0.046878
      py      :     0.054349
  5 H s       :     0.652795  s :     0.652795
      pz      :     0.034544  p :     0.201676
      px      :     0.118129
      py      :     0.049003
  6 O s       :     3.452483  s :     3.452483
      pz      :     1.522033  p :     4.781205
      px      :     1.770610
      py      :     1.488561
      dz2     :     0.020157  d :     0.058306
      dxz     :     0.007014
      dyz     :     0.009326
      dx2y2   :     0.010444
      dxy     :     0.011365
      f0      :     0.000804  f :     0.004821
      f+1     :     0.000590
      f-1     :     0.001180
      f+2     :     0.000416
      f-2     :     0.000421
      f+3     :     0.000957
      f-3     :     0.000453
  7 H s       :     0.667244  s :     0.667244
      pz      :     0.080295  p :     0.163135
      px      :     0.044784
      py      :     0.038057
  8 H s       :     0.660098  s :     0.660098
      pz      :     0.029965  p :     0.191736
      px      :     0.053949
      py      :     0.107822
  9 O s       :     3.454111  s :     3.454111
      pz      :     1.540775  p :     4.834268
      px      :     1.471106
      py      :     1.822387
      dz2     :     0.019244  d :     0.056893
      dxz     :     0.009085
      dyz     :     0.007174
      dx2y2   :     0.009559
      dxy     :     0.011831
      f0      :     0.000782  f :     0.004759
      f+1     :     0.001143
      f-1     :     0.000572
      f+2     :     0.000416
      f-2     :     0.000415
      f+3     :     0.000447
      f-3     :     0.000984
 10 H s       :     0.676448  s :     0.676448
      pz      :     0.093907  p :     0.176487
      px      :     0.038012
      py      :     0.044568
 11 H s       :     0.675544  s :     0.675544
      pz      :     0.032150  p :     0.189629
      px      :     0.103088
      py      :     0.054391
 12 O s       :     3.459217  s :     3.459217
      pz      :     1.569972  p :     4.770629
      px      :     1.446803
      py      :     1.753854
      dz2     :     0.019704  d :     0.058757
      dxz     :     0.008947
      dyz     :     0.006946
      dx2y2   :     0.011091
      dxy     :     0.012068
      f0      :     0.000736  f :     0.004805
      f+1     :     0.001156
      f-1     :     0.000595
      f+2     :     0.000412
      f-2     :     0.000413
      f+3     :     0.000454
      f-3     :     0.001039
 13 H s       :     0.669664  s :     0.669664
      pz      :     0.096263  p :     0.176637
      px      :     0.036728
      py      :     0.043645
 14 H s       :     0.670672  s :     0.670672
      pz      :     0.032101  p :     0.157597
      px      :     0.074897
      py      :     0.050599
 15 O s       :     3.465463  s :     3.465463
      pz      :     1.533855  p :     4.813045
      px      :     1.506090
      py      :     1.773099
      dz2     :     0.020326  d :     0.058726
      dxz     :     0.006980
      dyz     :     0.007737
      dx2y2   :     0.007882
      dxy     :     0.015802
      f0      :     0.000848  f :     0.004919
      f+1     :     0.000995
      f-1     :     0.000714
      f+2     :     0.000390
      f-2     :     0.000416
      f+3     :     0.000375
      f-3     :     0.001182
 16 H s       :     0.672076  s :     0.672076
      pz      :     0.095044  p :     0.174605
      px      :     0.036390
      py      :     0.043170
 17 H s       :     0.687814  s :     0.687814
      pz      :     0.033113  p :     0.161143
      px      :     0.071309
      py      :     0.056722
 18 O s       :     3.447752  s :     3.447752
      pz      :     1.508077  p :     4.766714
      px      :     1.705791
      py      :     1.552846
      dz2     :     0.021369  d :     0.058674
      dxz     :     0.007363
      dyz     :     0.007366
      dx2y2   :     0.009051
      dxy     :     0.013525
      f0      :     0.000890  f :     0.004887
      f+1     :     0.000725
      f-1     :     0.000999
      f+2     :     0.000391
      f-2     :     0.000427
      f+3     :     0.001045
      f-3     :     0.000409
 19 H s       :     0.668312  s :     0.668312
      pz      :     0.081335  p :     0.162556
      px      :     0.043301
      py      :     0.037919
 20 H s       :     0.664207  s :     0.664207
      pz      :     0.030309  p :     0.179017
      px      :     0.059138
      py      :     0.089570
 21 O s       :     3.442142  s :     3.442142
      pz      :     1.533827  p :     4.779445
      px      :     1.701754
      py      :     1.543864
      dz2     :     0.020313  d :     0.057893
      dxz     :     0.007308
      dyz     :     0.007179
      dx2y2   :     0.009186
      dxy     :     0.013908
      f0      :     0.000846  f :     0.004832
      f+1     :     0.000722
      f-1     :     0.000972
      f+2     :     0.000390
      f-2     :     0.000426
      f+3     :     0.001068
      f-3     :     0.000409
 22 H s       :     0.667657  s :     0.667657
      pz      :     0.093937  p :     0.174930
      px      :     0.042761
      py      :     0.038231
 23 H s       :     0.671526  s :     0.671526
      pz      :     0.032314  p :     0.178916
      px      :     0.059088
      py      :     0.087514


                      *****************************
                      * MAYER POPULATION ANALYSIS *
                      *****************************

  NA   - Mulliken gross atomic population
  ZA   - Total nuclear charge
  QA   - Mulliken gross atomic charge
  VA   - Mayer's total valence
  BVA  - Mayer's bonded valence
  FA   - Mayer's free valence

  ATOM       NA         ZA         QA         VA         BVA        FA
  0 O      8.7599     8.0000    -0.7599     2.0326     1.6414     0.3912
  1 H      0.6472     1.0000     0.3528     0.8970     0.8509     0.0461
  2 H      0.6147     1.0000     0.3853     0.9054     0.8610     0.0444
  3 O      8.7627     8.0000    -0.7627     2.0322     1.6412     0.3910
  4 H      0.6414     1.0000     0.3586     0.8929     0.8474     0.0455
  5 H      0.6178     1.0000     0.3822     0.9087     0.8640     0.0446
  6 O      8.7378     8.0000    -0.7378     2.0493     1.6609     0.3884
  7 H      0.6436     1.0000     0.3564     0.8958     0.8494     0.0465
  8 H      0.6224     1.0000     0.3776     0.9132     0.8689     0.0443
  9 O      8.7487     8.0000    -0.7487     2.0284     1.6381     0.3903
 10 H      0.6311     1.0000     0.3689     0.9080     0.8638     0.0442
 11 H      0.6614     1.0000     0.3386     0.9455     0.8976     0.0480
 12 O      8.6975     8.0000    -0.6975     2.1083     1.7232     0.3852
 13 H      0.6166     1.0000     0.3834     0.8956     0.8527     0.0429
 14 H      0.6544     1.0000     0.3456     0.9087     0.8604     0.0482
 15 O      8.6937     8.0000    -0.6937     2.0720     1.6897     0.3822
 16 H      0.6241     1.0000     0.3759     0.9002     0.8569     0.0433
 17 H      0.6942     1.0000     0.3058     0.9285     0.8779     0.0506
 18 O      8.7058     8.0000    -0.7058     2.0907     1.7073     0.3834
 19 H      0.6469     1.0000     0.3531     0.8962     0.8496     0.0467
 20 H      0.6140     1.0000     0.3860     0.9034     0.8608     0.0426
 21 O      8.7221     8.0000    -0.7221     2.0903     1.7050     0.3853
 22 H      0.6114     1.0000     0.3886     0.8832     0.8401     0.0431
 23 H      0.6305     1.0000     0.3695     0.9127     0.8684     0.0443

  Mayer bond orders larger than 0.100000
B(  0-O ,  1-H ) :   0.8390 B(  0-O ,  2-H ) :   0.7265 B(  2-H , 21-O ) :   0.1222 
B(  3-O ,  4-H ) :   0.8360 B(  3-O ,  5-H ) :   0.7316 B(  5-H , 18-O ) :   0.1156 
B(  6-O ,  7-H ) :   0.8361 B(  6-O ,  8-H ) :   0.7514 B(  8-H , 12-O ) :   0.1064 
B(  9-O , 10-H ) :   0.8128 B(  9-O , 11-H ) :   0.7901 B( 12-O , 13-H ) :   0.7951 
B( 12-O , 14-H ) :   0.8381 B( 15-O , 16-H ) :   0.8105 B( 15-O , 17-H ) :   0.8701 
B( 18-O , 19-H ) :   0.8388 B( 18-O , 20-H ) :   0.7797 B( 21-O , 22-H ) :   0.8029 
B( 21-O , 23-H ) :   0.7998 


----------------------------------
MP2 DERIVATIVE INTEGRAL GENERATION
----------------------------------


Input Wavefunction Amplitudes       ... 12h2o.su.etal.mol0,1,4,6,7,8,9,11-orca.engrad-mp2.def2tzvp.frozencore.mp2tsaa.tmp
Input Correlated Electron Density   ... 12h2o.su.etal.mol0,1,4,6,7,8,9,11-orca.engrad-mp2.def2tzvp.frozencore.pmp2re
Input Energy Weighted Density       ... 12h2o.su.etal.mol0,1,4,6,7,8,9,11-orca.engrad-mp2.def2tzvp.frozencore.wmp2.tmp
Input SCF Electron Density          ... 12h2o.su.etal.mol0,1,4,6,7,8,9,11-orca.engrad-mp2.def2tzvp.frozencore.scfp

One-Electron Terms    ...
                        ... One-Electron Terms done
Prescreening matrices              ... done

Batch handling in the gradient evaluation:
Memory available                      ... 8000.0 MB
Memory per occupied orbital in Q2     ...   28.9 MB
Memory per occupied orbital in Q3     ...    0.1 MB
Total memory requirement per |i>      ...   29.0 MB
Max. Number of orbitals possible      ...    275
Number of orbitals treated per batch  ...     32
Number of batches to be done          ...      1
Batch   0: i=    8 ...    39

---------------------------------------
MP2 TOTAL ENERGY:     -610.601432104 Eh
---------------------------------------

The final MP2 gradient
  0:   0.00274624   0.00367735  -0.00196613
  1:  -0.00033374  -0.00094137  -0.00123365
  2:  -0.00279850  -0.00128955  -0.00111210
  3:  -0.00324754  -0.00016793   0.00158227
  4:   0.00069312   0.00076170  -0.00140944
  5:   0.00445224  -0.00053954  -0.00282764
  6:   0.00325892  -0.00269006   0.01049058
  7:   0.00130445  -0.00060369  -0.00928564
  8:   0.00156011   0.00291086   0.00194414
  9:   0.00499341  -0.00314839  -0.00140903
 10:   0.00177447   0.00155152   0.00299462
 11:  -0.00946785   0.00389124  -0.00195752
 12:  -0.01711608   0.00306088  -0.00082586
 13:  -0.00133999   0.00066843  -0.00274971
 14:   0.01655795  -0.00586927   0.00339064
 15:   0.00999486  -0.00805739   0.00147461
 16:   0.00128654   0.00316544  -0.00064708
 17:  -0.01151222   0.00636361  -0.00028397
 18:   0.00280051   0.00303533   0.01040324
 19:  -0.00332251  -0.00064436  -0.00809203
 20:  -0.00410662  -0.00479847   0.00060610
 21:  -0.00089627   0.00165320   0.00187392
 22:   0.00073031  -0.00142390  -0.00064587
 23:   0.00198820  -0.00056564  -0.00031445

-----------------------------------
NORM OF THE MP2 GRADIENT:  0.041416
-----------------------------------

-------------------------   --------------------
FINAL SINGLE POINT ENERGY      -610.601432104071
-------------------------   --------------------


                            ***************************************
                            *     ORCA property calculations      *
                            ***************************************

                                    ---------------------
                                    Active property flags
                                    ---------------------
   (+) Dipole Moment


------------------------------------------------------------------------------
                       ORCA ELECTRIC PROPERTIES CALCULATION
------------------------------------------------------------------------------

Dipole Moment Calculation                       ... on
Quadrupole Moment Calculation                   ... off
Polarizability Calculation                      ... off
GBWName                                         ... 12h2o.su.etal.mol0,1,4,6,7,8,9,11-orca.engrad-mp2.def2tzvp.frozencore.gbw
Electron density file                           ... 12h2o.su.etal.mol0,1,4,6,7,8,9,11-orca.engrad-mp2.def2tzvp.frozencore.scfp
The origin for moment calculation is the CENTER OF MASS  = ( 0.190274,  0.587433  2.001037)

-------------
DIPOLE MOMENT
-------------
                                X             Y             Z
Electronic contribution:     -0.14965      -0.19484       0.26100
Nuclear contribution   :     -0.90891       0.11126       1.35336
                        -----------------------------------------
Total Dipole Moment    :     -1.05856      -0.08358       1.61436
                        -----------------------------------------
Magnitude (a.u.)       :      1.93227
Magnitude (Debye)      :      4.91145



--------------------
Rotational spectrum 
--------------------
 
Rotational constants in cm-1:     0.035567     0.020566     0.018415 
Rotational constants in MHz :  1066.264165   616.567467   552.070565 

 Dipole components along the rotational axes: 
x,y,z [a.u.] :     1.846482    -0.286430     0.492080 
x,y,z [Debye]:     4.693385    -0.728047     1.250768 

 

                         *** MP2 UNRELAXED DENSITY ***

------------------------------------------------------------------------------
                       ORCA ELECTRIC PROPERTIES CALCULATION
------------------------------------------------------------------------------

Dipole Moment Calculation                       ... on
Quadrupole Moment Calculation                   ... off
Polarizability Calculation                      ... off
GBWName                                         ... 12h2o.su.etal.mol0,1,4,6,7,8,9,11-orca.engrad-mp2.def2tzvp.frozencore.gbw
Electron density file                           ... 12h2o.su.etal.mol0,1,4,6,7,8,9,11-orca.engrad-mp2.def2tzvp.frozencore.pmp2ur
The origin for moment calculation is the CENTER OF MASS  = ( 0.190274,  0.587433  2.001037)

-------------
DIPOLE MOMENT
-------------
                                X             Y             Z
Electronic contribution:     -0.14386      -0.19854       0.25250
Nuclear contribution   :     -0.90891       0.11126       1.35336
                        -----------------------------------------
Total Dipole Moment    :     -1.05278      -0.08728       1.60586
                        -----------------------------------------
Magnitude (a.u.)       :      1.92217
Magnitude (Debye)      :      4.88577



--------------------
Rotational spectrum 
--------------------
 
Rotational constants in cm-1:     0.035567     0.020566     0.018415 
Rotational constants in MHz :  1066.264165   616.567467   552.070565 

 Dipole components along the rotational axes: 
x,y,z [a.u.] :     1.837713    -0.285930     0.485582 
x,y,z [Debye]:     4.671095    -0.726776     1.234251 

 

                           *** MP2 RELAXED DENSITY ***

------------------------------------------------------------------------------
                       ORCA ELECTRIC PROPERTIES CALCULATION
------------------------------------------------------------------------------

Dipole Moment Calculation                       ... on
Quadrupole Moment Calculation                   ... off
Polarizability Calculation                      ... off
GBWName                                         ... 12h2o.su.etal.mol0,1,4,6,7,8,9,11-orca.engrad-mp2.def2tzvp.frozencore.gbw
Electron density file                           ... 12h2o.su.etal.mol0,1,4,6,7,8,9,11-orca.engrad-mp2.def2tzvp.frozencore.pmp2re
The origin for moment calculation is the CENTER OF MASS  = ( 0.190274,  0.587433  2.001037)

-------------
DIPOLE MOMENT
-------------
                                X             Y             Z
Electronic contribution:     -0.15204      -0.21738       0.25199
Nuclear contribution   :     -0.90891       0.11126       1.35336
                        -----------------------------------------
Total Dipole Moment    :     -1.06095      -0.10611       1.60535
                        -----------------------------------------
Magnitude (a.u.)       :      1.92718
Magnitude (Debye)      :      4.89850



--------------------
Rotational spectrum 
--------------------
 
Rotational constants in cm-1:     0.035567     0.020566     0.018415 
Rotational constants in MHz :  1066.264165   616.567467   552.070565 

 Dipole components along the rotational axes: 
x,y,z [a.u.] :     1.844705    -0.298654     0.471051 
x,y,z [Debye]:     4.688868    -0.759118     1.197317 

 

Timings for individual modules:

Sum of individual times         ...      207.696 sec (=   3.462 min)
GTO integral calculation        ...        0.959 sec (=   0.016 min)   0.5 %
SCF iterations                  ...       30.916 sec (=   0.515 min)  14.9 %
MP2 module                      ...      175.822 sec (=   2.930 min)  84.7 %
                             ****ORCA TERMINATED NORMALLY****
TOTAL RUN TIME: 0 days 0 hours 3 minutes 28 seconds 752 msec
