60
Energy:   -253.03111667
    C     -2.46382141     -3.29596789      2.09587197
    H     -3.12042148     -3.84933715      2.73427545
    H     -1.68181544     -2.85905883      2.68108665
    H     -2.03866570     -3.95280472      1.36600411
    C     -3.25621997     -2.18299627      1.38523938
    N     -3.84619672     -1.35433831      0.85614112
    C     -0.41820435     -0.30125808     -0.11075355
    H     -1.30181022      0.03606987     -0.61110412
    H     -0.26100172     -1.33784192     -0.32448316
    H      0.42313484      0.26488402     -0.45211932
    C     -0.58362648     -0.10967337      1.40830235
    N     -0.70679077      0.03297015      2.53930851
    C     -3.35191624      2.14044513      1.27250807
    H     -4.11268005      2.84057847      1.54810183
    H     -2.39185758      2.53824280      1.52734816
    H     -3.50724128      1.22041564      1.79626273
    C     -3.41520002      1.88439949     -0.24473805
    N     -3.46231768      1.69376188     -1.37439676
    C     -3.03325843     -1.50865876     -2.68366348
    H     -3.72520785     -1.04659605     -2.01090480
    H     -3.55950803     -1.87625499     -3.53972040
    H     -2.30416988     -0.78991591     -2.99469032
    C     -2.32930374     -2.67907435     -1.97220363
    N     -1.80517747     -3.55050197     -1.44248943
    C     -0.78411162      2.47527574     -3.15631899
    H     -1.05202884      1.44373805     -3.06118470
    H     -1.21314255      2.87409175     -4.05173919
    H     -1.15250997      3.01883877     -2.31149890
    C      0.74919368      2.60359777     -3.22041502
    N      1.89080918      2.69913935     -3.26813743
    C      1.60820566     -3.84053041     -1.08440616
    H      0.88515106     -3.38039250     -1.72500380
    H      1.66844422     -4.88535502     -1.30714354
    H      2.56428721     -3.38660428     -1.24175361
    C      1.18612177     -3.65233259      0.38461623
    N      0.87186114     -3.51221076      1.47837017
    C      2.77765158      2.89378191     -0.01824148
    H      2.99701689      2.00513520     -0.57239495
    H      3.27201551      2.85403470      0.92987431
    H      3.12053915      3.74804506     -0.56373362
    C      1.25691054      3.00047499      0.19984858
    N      0.12464971      3.07991284      0.36222655
    C     -0.09586023      2.97687244      3.98727734
    H     -0.09739775      3.76970711      4.70582518
    H     -0.62487754      2.13540945      4.38348413
    H     -0.57419646      3.30835408      3.08938344
    C      1.35619128      2.56977437      3.67515947
    N      2.43730963      2.26667135      3.44277353
    C      3.17990310     -0.47466893     -3.10513327
    H      3.67460315     -1.30887281     -2.65316433
    H      3.35813587      0.40451050     -2.52188743
    H      3.55884339     -0.32882707     -4.09509968
    C      1.66598946     -0.74930384     -3.17025720
    N      0.53881193     -0.95378202     -3.21874492
    C      2.81584716     -1.00739429      2.89634088
    H      1.87008838     -0.64703976      3.24359457
    H      3.60282222     -0.47132765      3.38440020
    H      2.90355717     -2.05038388      3.11855420
    C      2.91814033     -0.79644494      1.37429079
    N      2.99430225     -0.63938357      0.24105531
