60
Energy:   -254.66877685
    C      2.00368746      3.35641171     -2.35859780
    H      1.79013198      3.04795188     -3.36066904
    H      2.71703575      2.68774723     -1.92394723
    H      2.40462180      4.34840546     -2.36855499
    C      0.70731136      3.33501080     -1.52760380
    N     -0.25789957      3.31907684     -0.90889100
    C      1.50484988     -2.13657368     -3.74349704
    H      1.33751816     -2.41215668     -4.76376871
    H      2.25150494     -2.77500564     -3.31945698
    H      1.83697110     -1.12042432     -3.69838529
    C      0.19304874     -2.28357114     -2.95029498
    N     -0.78364684     -2.39301743     -2.35972000
    C     -0.44194178     -0.03297137      0.28993179
    H     -1.23642854     -0.41960247     -0.31356417
    H     -0.70700307      0.93987697      0.64799284
    H     -0.27530811     -0.68579487      1.12116809
    C      0.84318970      0.06289200     -0.55318581
    N      1.80002850      0.13426665     -1.18092518
    C     -3.89697169     -2.36318665     -0.55515048
    H     -3.30838190     -1.93491733     -1.33940020
    H     -4.73551697     -1.73028068     -0.35224424
    H     -4.24406230     -3.32937811     -0.85664885
    C     -3.03767009     -2.49989261      0.71548411
    N     -2.39788099     -2.60167642      1.66152931
    C      4.43330771     -0.62742541      0.89182569
    H      4.17821720     -0.91594519     -0.10646553
    H      5.20556907     -1.26880900      1.26214794
    H      4.77942808      0.38504596      0.89305188
    C      3.19081147     -0.74626181      1.79386837
    N      2.26571654     -0.83474091      2.46548014
    C     -0.77554051     -1.35630732      4.31721113
    H     -1.63294122     -1.99575737      4.34667007
    H     -0.35889833     -1.27290138      5.29922530
    H     -0.04492943     -1.76969078      3.65371988
    C     -1.19271227      0.03894621      3.81637650
    N     -1.50331561      1.07777587      3.44348234
    C     -2.13916465      0.97472610     -3.00276332
    H     -2.24313995      0.01258949     -2.54627405
    H     -2.96948476      1.15217471     -3.65390047
    H     -2.11351023      1.72864414     -2.24391647
    C     -0.83139852      1.01901194     -3.81478950
    N      0.14229281      1.05198476     -4.41937990
    C      1.26902481      2.68944743      2.38727218
    H      0.39303072      2.85287487      1.79496651
    H      1.32591820      3.43459738      3.15304877
    H      1.22006431      1.71949470      2.83637536
    C      2.51838628      2.77778220      1.49122927
    N      3.44859268      2.84355145      0.82408459
    C      0.66852898     -3.67921162      0.74775052
    H      0.62735451     -4.66258128      1.16749920
    H     -0.17715911     -3.52797338      0.10991219
    H      0.65568031     -2.95458168      1.53492613
    C      1.96344291     -3.52448959     -0.07130931
    N      2.92756519     -3.40929201     -0.68113659
    C     -3.07633765      3.14148892      1.32161014
    H     -3.60844722      3.98977138      0.94454722
    H     -2.02421364      3.30356281      1.21359985
    H     -3.31165035      3.00391700      2.35630865
    C     -3.48609604      1.88532952      0.53055918
    N     -3.79117980      0.95006175     -0.05841422
