60
Energy:   -254.66507076
    C      2.56388868      3.04737289     -2.23545197
    H      2.60948800      3.79921780     -2.99541915
    H      2.57913272      2.07901649     -2.69037238
    H      3.40592513      3.14821549     -1.58299165
    C      1.26441434      3.21384994     -1.42597569
    N      0.29689663      3.33779967     -0.82328380
    C      1.33561026     -2.28506897     -3.72168738
    H      1.17330016     -2.50878047     -4.75537436
    H      1.95237097     -3.04277352     -3.28535136
    H      1.82131134     -1.33567778     -3.63422355
    C     -0.01750782     -2.23897703     -2.98782976
    N     -1.02496574     -2.20465948     -2.44143941
    C     -0.45038823      0.03069529      0.27623008
    H     -1.26759547     -0.21898885     -0.36776553
    H     -0.57984339      1.02592812      0.64724498
    H     -0.42082401     -0.65495307      1.09715113
    C      0.86954990     -0.05551658     -0.51239584
    N      1.85230384     -0.11970523     -1.09956367
    C     -4.17626244     -1.72720470     -0.77467849
    H     -3.49411129     -1.37665615     -1.52079222
    H     -4.91906815     -0.97929408     -0.59091649
    H     -4.64972212     -2.62354471     -1.11718340
    C     -3.40753584     -2.01810573      0.52764099
    N     -2.83518395     -2.23469476      1.49727703
    C      4.24460687     -1.29882141      1.06294010
    H      3.99473973     -1.54006177      0.05087800
    H      4.90258153     -2.04567148      1.45560205
    H      4.72898956     -0.34521719      1.09313093
    C      2.96008582     -1.24918696      1.91096257
    N      2.00370152     -1.21223185      2.54235384
    C     -1.16557864     -1.30248622      4.25174627
    H     -2.10686752     -1.81050734      4.22363975
    H     -0.79226818     -1.29843690      5.25450346
    H     -0.46937046     -1.80595798      3.61400851
    C     -1.35013397      0.14748199      3.76684265
    N     -1.48754381      1.22704923      3.40580987
    C     -1.81461687      1.34064155     -3.06987275
    H     -2.08645127      0.39915807     -2.64020416
    H     -2.57633797      1.65428413     -3.75274051
    H     -1.70911595      2.06970007     -2.29383001
    C     -0.47890963      1.19496358     -3.82237798
    N      0.51558511      1.08649972     -4.38265233
    C      1.54200570      2.42249696      2.51216238
    H      0.72893080      2.73473570      1.89061885
    H      1.67642009      3.12840534      3.30495820
    H      1.32587151      1.45931942      2.92504750
    C      2.82984346      2.34338172      1.67143967
    N      3.78869722      2.28447683      1.04548340
    C      0.07344899     -3.74977116      0.69416088
    H     -0.13451506     -4.72254688      1.08831636
    H     -0.71030119     -3.46085144      0.02546054
    H      0.13498662     -3.04525698      1.49713783
    C      1.41221032     -3.77950356     -0.06638766
    N      2.40897899     -3.80164069     -0.63265061
    C     -2.62286089      3.55011138      1.27055170
    H     -3.00622916      4.47663955      0.89708885
    H     -1.55447619      3.55674323      1.21216286
    H     -2.92358823      3.42458727      2.28972090
    C     -3.17595088      2.38771734      0.42525202
    N     -3.58775152      1.52226214     -0.20411202
