60
Energy:   -252.00256670
    C     -3.64931337      0.62986592      1.36533491
    H     -3.05221301      0.77964863      0.49015694
    H     -3.72230768      1.54865227      1.90884440
    H     -4.62807134      0.30653969      1.07829469
    C     -2.99495332     -0.44272859      2.25581453
    N     -2.50775252     -1.24132396      2.91881708
    C      1.63705577      3.05185787      0.93729138
    H      1.78422170      2.77949702     -0.08694586
    H      2.24099810      3.90388561      1.17010353
    H      0.60650317      3.29041425      1.09838539
    C      2.03924744      1.87422594      1.84449857
    N      2.33869743      0.99742543      2.51995556
    C      1.61324481     -4.41218891     -2.32900227
    H      1.12122498     -3.84311895     -3.08990703
    H      1.89473606     -5.36632894     -2.72305628
    H      2.48761556     -3.88937418     -2.00183314
    C      0.65780661     -4.61043860     -1.13760187
    N     -0.05356056     -4.75804450     -0.25055011
    C      0.72294901     -2.02198551      2.06412286
    H      0.23954287     -1.06748603      2.05189877
    H      1.19091418     -2.17263980      3.01449698
    H     -0.00204394     -2.79111685      1.89762576
    C      1.78862228     -2.07194758      0.95351749
    N      2.58206446     -2.10914661      0.12662131
    C      5.26694773     -0.28479006      0.84079736
    H      4.66228814     -0.35391880      1.72085883
    H      6.25221444      0.03475818      1.10919542
    H      5.31927351     -1.24315207      0.36782448
    C      4.64384686      0.73411977     -0.13140018
    N      4.17991993      1.49274445     -0.85524544
    C     -2.14210684      3.59149190     -0.33363583
    H     -3.11384453      3.30912100     -0.68133212
    H     -2.17189013      4.59720086      0.03045417
    H     -1.84115630      2.93508612      0.45595858
    C     -1.13380730      3.49515926     -1.49365826
    N     -0.38308246      3.42343524     -2.35734770
    C     -0.27164916      0.79207500      4.76727866
    H     -0.73598486      0.90286935      5.72488879
    H      0.78391635      0.93833054      4.86366269
    H     -0.46255072     -0.19079968      4.38990213
    C     -0.84782357      1.83672197      3.79345335
    N     -1.27681162      2.61450912      3.06839613
    C     -1.96971623      0.92784124     -4.31915818
    H     -1.02934757      1.36644622     -4.05794442
    H     -2.44195379      1.52022652     -5.07478405
    H     -1.81029937     -0.06292613     -4.69046044
    C     -2.87291781      0.86995024     -3.07317441
    N     -3.54539244      0.82684776     -2.14548286
    C     -2.48037615     -2.40799254     -0.72006246
    H     -3.34002219     -1.77149861     -0.74806868
    H     -1.84861052     -2.11852066      0.09355742
    H     -2.79214014     -3.42274905     -0.58600452
    C     -1.70369024     -2.28020010     -2.04370444
    N     -1.12541228     -2.18505281     -3.02921606
    C      1.32590065      0.26299486     -2.22490697
    H      1.61537263      1.25066468     -2.51750649
    H      0.86954212     -0.23541938     -3.05449676
    H      2.19054413     -0.28407330     -1.91184600
    C      0.32165047      0.34620192     -1.06036493
    N     -0.42605944      0.40815335     -0.19331044
