60
Energy:   -253.26894081
    C      1.47589094      1.75413106     -3.70225223
    H      1.81252566      2.07565658     -4.66568287
    H      0.44087006      1.48826092     -3.75651027
    H      2.04652206      0.90444085     -3.39031353
    C      1.65976303      2.89694971     -2.68649803
    N      1.79666415      3.74783013     -1.93022285
    C      2.30555832     -3.37138088     -2.06205901
    H      2.52592908     -2.37696889     -2.38990304
    H      1.33200272     -3.65265029     -2.40553553
    H      3.03323106     -4.04754593     -2.45979296
    C      2.34227671     -3.42460096     -0.52341695
    N      2.36961522     -3.46422573      0.62217200
    C      0.10830152     -0.40336634      0.17349077
    H     -0.53244846     -0.68525082     -0.63575627
    H     -0.28526426      0.46844316      0.65302521
    H      0.16384837     -1.20479485      0.88026229
    C      1.51699958     -0.09895884     -0.36919315
    N      2.56583932      0.12768638     -0.77324600
    C     -4.70427061      0.76589195     -0.34341760
    H     -4.36123021      0.95508594     -1.33912292
    H     -4.66930885      1.67229315      0.22413295
    H     -5.71064229      0.40384698     -0.37564474
    C     -3.79988663     -0.28987393      0.31918940
    N     -3.12653165     -1.07593961      0.81253043
    C      3.37251105     -0.94877862      2.73898266
    H      3.30783161     -0.17339989      2.00447290
    H      3.83645076     -1.81102433      2.30748367
    H      3.95627124     -0.60694931      3.56800368
    C      1.95769392     -1.31573443      3.22399391
    N      0.90429825     -1.58894970      3.58510683
    C     -1.53816634      0.65105212      3.60150760
    H     -1.96015211      0.55685291      4.58025921
    H     -0.52006439      0.97043296      3.68127842
    H     -1.57713866     -0.29529500      3.10370505
    C     -2.34003846      1.68899317      2.79448872
    N     -2.93706870      2.46178746      2.19362647
    C     -2.43430683     -1.45349201     -2.96489346
    H     -2.93386411     -2.14967361     -3.60573189
    H     -2.88178475     -0.48727647     -3.07020314
    H     -2.52127839     -1.77802502     -1.94901287
    C     -0.94610742     -1.37505396     -3.35310727
    N      0.16192469     -1.31665327     -3.64215010
    C      3.50609995      3.19908189      0.85226685
    H      3.27523818      4.17347730      0.47523025
    H      3.75979865      2.55256554      0.03829347
    H      4.33390996      3.26465367      1.52704831
    C      2.28180204      2.63280576      1.59525136
    N      1.37025660      2.21118744      2.14843710
    C     -1.04388123     -3.80786051      1.79807816
    H     -0.03537162     -3.90588435      2.14188024
    H     -1.62787236     -4.62443215      2.16830000
    H     -1.45399022     -2.88586297      2.15392960
    C     -1.06462016     -3.81851395      0.25825466
    N     -1.08006124     -3.82644593     -0.88821392
    C     -1.12499684      3.84893516     -0.17944704
    H     -2.03238732      4.29380275      0.17217140
    H     -0.56406495      4.57271041     -0.73298467
    H     -0.54648050      3.51150305      0.65503335
    C     -1.45898710      2.65261095     -1.08986391
    N     -1.70765803      1.76189320     -1.76771066
