19
Energy:   -432.03965014
O    1.55582437   2.52614378  -1.20307783
H    2.38569704   2.91441728  -0.92597338
H    1.20477031   3.14311460  -1.84521481
O   -3.05731425  -0.72440050   1.61639038
H   -3.81500620  -0.23450362   1.29680345
H   -3.41466656  -1.31124187   2.28283496
O    0.33669885  -2.06653414   2.23456117
H    0.60612236  -1.99245569   3.15006934
H    0.75713822  -2.86873483   1.92482476
O    1.60880968  -0.11074922  -2.08674673
H    1.67019930   0.81679510  -1.85843841
H    2.33834241  -0.25856459  -2.68854774
O   -0.16611099   1.54127602   0.75699282
H    0.42577317   1.88289603   0.08676842
H   -0.36025851   2.29591134   1.31292818
O   -0.52939335  -1.54120046  -1.25008678
H    0.22692619  -1.10679375  -1.64442598
H   -0.86370312  -2.11428069  -1.94004901
Na  -0.87141451  -0.66109189   0.83838026
