19
Energy:   -429.98061573
O   -0.16304438   2.89003190  -0.51268393
H    0.63499092   3.40023807  -0.37462171
H   -0.86148980   3.54328875  -0.55344332
O    1.45749294  -2.04574943   2.23258650
H    1.88586969  -2.11221202   3.08599609
H    1.26236833  -2.95113339   1.99084670
O   -0.49286379  -0.21070496   1.63702366
H    0.12067971  -0.86492227   1.97138266
H   -0.90528896   0.15386420   2.42011155
O   -0.29088601  -0.17228134  -2.83591039
H   -1.00847425  -0.64284217  -3.26002295
H    0.39161652  -0.12172867  -3.50513873
O   -2.54703883  -0.14066558  -0.53530583
H   -3.40569437  -0.00454844  -0.93582378
H   -2.69539708  -0.81575459   0.12686976
O    1.97452479  -0.05562149  -0.26719538
H    2.05117894  -0.55730030   0.54439218
H    2.87759926   0.06639096  -0.56011399
Na  -0.28469750   0.56055377  -0.58119784
