19
Energy:   -434.46685450
O   -2.06754450  -0.02826748   1.04624832
H   -2.28833107   0.26030137   1.93180642
H   -2.86340594  -0.45363602   0.72703362
O    0.70905043   1.81239811   1.32352311
H    0.13686850   1.92607202   2.08241568
H    1.40776336   2.45399511   1.45152847
O    1.21152655  -1.86465575  -0.32879789
H    1.65790611  -2.58799661   0.11137836
H    1.33958216  -2.03583041  -1.26182139
O    1.41943492  -1.94863453  -3.10105800
H    2.29459982  -1.75181328  -3.43509339
H    1.16653884  -2.75478509  -3.55094320
O   -0.22697348   0.18575845  -2.34872194
H   -0.58376513   0.70776065  -3.06736321
H    0.28825660  -0.49595144  -2.78004715
O   -1.04439478   1.98308568   3.42160535
H   -0.80979204   1.82114403   4.33537135
H   -1.77252884   2.60275836   3.46697507
Na   0.02775847   0.10380028  -0.03500063
