19
Energy:   -434.86225358
O    4.06916598   0.05379637  -0.66498109
H    4.79118435  -0.56612229  -0.76804498
H    4.48957089   0.91373182  -0.66337248
O   -2.06349670  -1.54070026  -0.22082772
H   -2.77908040  -1.05072287   0.18425742
H   -2.43246659  -2.40728060  -0.39150745
O   -1.26917455   1.41788848   0.79033789
H   -2.12618423   1.14966724   1.12173436
H   -1.13752652   2.29585664   1.14821014
O    1.87803980  -0.73995981   0.81054425
H    2.19021093  -1.16885893   1.60730430
H    2.67572959  -0.49251545   0.34289680
O   -3.72386681   0.16831146   1.29065208
H   -3.96522147  -0.10791253   2.17477882
H   -4.52849208   0.53734173   0.92647261
O    1.09487902   0.45469106  -2.18732610
H    0.87552179   0.94294938  -2.98087387
H    2.05154194   0.46391212  -2.15661959
Na  -0.09299620  -0.25100644  -0.29832567
