19
Energy:   -437.21313414
O    1.13241319   1.60660501  -1.62840617
H    0.95669767   2.45842475  -2.02810486
H    2.07161514   1.61721518  -1.44396386
O    0.80207273   0.51813762   2.95501816
H    1.35004935   1.22393312   3.29824722
H    0.55673835   0.00783070   3.72678868
O   -0.83153519  -0.53733954  -3.06391465
H   -1.57456343  -1.04586112  -3.38879414
H   -0.39109794  -0.22436692  -3.85403807
O   -1.11532192   1.03929337   0.98586413
H   -1.72950699   1.73343273   1.22498562
H   -0.54527978   0.94965266   1.74957111
O    1.54067123  -0.76448148   0.58121749
H    2.25030225  -1.39695359   0.69362168
H    1.41434430  -0.38821523   1.45224967
O   -1.64336622  -1.93654200  -0.25367217
H   -2.36569299  -1.80699353   0.36089523
H   -1.61416947  -2.88300450  -0.39362979
Na  -0.22733628  -0.14684475  -0.83750784
