19
Energy:   -433.76109050
O   -1.32758583   0.46864696  -1.44392598
H   -1.98207841  -0.16922111  -1.72852331
H   -1.41131971   1.19192566  -2.06528610
O   -2.99167038  -1.72395746  -1.95348458
H   -3.93880165  -1.67022413  -1.82586428
H   -2.88734548  -2.19016709  -2.78294027
O   -1.18397265  -2.31609205   0.10595607
H   -1.29112764  -3.18099184   0.50180706
H   -1.85609736  -2.27867655  -0.57454396
O    2.27555224  -0.17304686   0.25499221
H    2.66275790   0.65019899   0.55259916
H    3.02566551  -0.73928626   0.07351250
O    0.00334479   1.32843874   2.05631606
H    0.88035457   1.68872434   2.18776938
H   -0.54157770   1.78288919   2.69878483
O    3.25344781   2.28062050   1.16399719
H    3.48256656   2.93480168   0.50385824
H    3.84932106   2.45575686   1.89234750
Na  -0.04211179  -0.30051168   0.31836376
