19
Energy:   -434.34690138
O    1.49275418   0.90054771  -1.39724071
H    1.23128304   0.78858884  -2.31120455
H    2.35954237   1.30401843  -1.44329992
O   -0.52698137   0.48653277   3.91905435
H   -1.10827977  -0.02939752   4.47774922
H   -0.02871843   1.03071218   4.52883682
O    0.54702952   0.35208136  -3.91839615
H    0.05723519   0.99800989  -4.42742434
H    0.96136447  -0.20719689  -4.57548537
O   -1.53836685   0.84330202   1.16616487
H   -2.34858178   1.32162176   0.99011420
H   -1.44105650   0.87812608   2.11776869
O   -0.77202383  -1.55916753  -1.79849926
H   -0.72182364  -1.14383609  -2.65943571
H   -1.29497319  -2.34782526  -1.94263388
O    0.92081249  -1.04668392   2.03965270
H    1.53178320  -1.67279988   2.42814394
H    0.51590992  -0.60994044   2.78901302
Na   0.10806699  -0.30898783   0.01270102
