19
Energy:   -438.04141413
O   -2.73751373  -2.99476291   0.57460246
H   -2.94900985  -3.72236392  -0.01028900
H   -2.99826801  -3.30137616   1.44306511
O    3.08174443   2.41892351  -0.55905594
H    3.29977011   3.34624507  -0.46540036
H    3.89015193   2.01270389  -0.87161757
O    1.41862775   1.19909689   1.36461531
H    1.64604803   1.33962656   2.28372535
H    2.09731227   1.66438547   0.87561050
O   -0.10543175  -2.02345997   0.25309941
H   -0.94021412  -2.47115402   0.39072316
H    0.54220487  -2.72760026   0.22171283
O   -2.56428979   0.08253393   0.08759879
H   -3.31839213   0.66254244  -0.01800253
H   -2.94560464  -0.77501811   0.27584155
O    0.73483248   1.43636872  -1.73083414
H    1.56128106   1.86136236  -1.50149813
H    0.57777668   1.69179489  -2.63985713
Na  -0.22231571   0.26545964   0.03542725
