19
Energy:   -435.03914704
O   -0.28907318   0.01400515  -3.98188520
H   -1.04170603  -0.23023174  -4.52051679
H    0.38666508   0.26291467  -4.61248309
O   -0.14564046   0.25654949   3.86958373
H   -0.56092239   0.96118074   4.36684379
H    0.16870754  -0.35446759   4.53597349
O   -0.54622388   1.41935128  -1.65541217
H   -1.02613992   2.23845724  -1.77779627
H   -0.47759647   1.04771509  -2.53484873
O    1.41793969   0.97593116   1.65907463
H    2.19167002   1.48944738   1.89118302
H    1.00709098   0.76829574   2.49831400
O    0.87482489  -1.82893211  -1.47958998
H    1.49821886  -2.55258570  -1.41684208
H    0.52692616  -1.88834264  -2.36934765
O   -1.23400634  -0.79047497   1.54119672
H   -0.98497021  -0.50741445   2.42102034
H   -2.06227834  -1.25433878   1.66378427
Na   0.28653664  -0.05912316  -0.08185928
