37
Energy:   -674.19960120
O    0.17012749   1.46220663  -3.04275768
H   -0.10585385   0.54857940  -2.96960412
H    0.26921761   1.60838017  -3.98352667
O    1.65726554  -1.71447733   2.95491007
H    2.19699736  -1.42588490   2.21895095
H    2.28315916  -1.88785935   3.65806560
O   -1.71851177   2.52211405  -1.30697258
H   -1.12658846   2.28661128  -2.02139339
H   -2.27822318   3.20606089  -1.67462962
O   -2.56406987  -1.55339401   1.95650306
H   -3.43638775  -1.72930760   2.30913288
H   -2.72679148  -1.14694764   1.10529517
O    0.18633494   2.44912945   0.68602609
H    0.96762023   2.36393267   0.13961356
H   -0.51736758   2.64979029   0.06896059
O    2.00854239  -0.53266508   0.41120520
H    2.22456311   0.22998399  -0.12538895
H    1.84694962  -1.23294274  -0.22103751
O   -0.21640852   2.18922027   3.44926832
H   -0.22320262   2.82909086   4.16113299
H   -0.02821571   2.70472178   2.66500210
O    2.15644657   1.76199852  -1.13157594
H    1.56257474   1.68816848  -1.87863499
H    2.90555315   2.25370138  -1.46817582
O   -1.92744245  -0.05806740  -0.31660361
H   -2.06049317   0.84370097  -0.60873913
H   -1.59685362  -0.51464851  -1.09021628
O   -0.71314034  -1.10690748  -2.57543307
H   -0.05094716  -1.67377057  -2.17996085
H   -1.17812363  -1.67401075  -3.19058855
O   -0.21189375  -2.84757649   1.19068428
H    0.35237947  -2.85304761   1.96385803
H   -1.09897513  -2.76871482   1.54153940
O    1.09009975  -2.60632255  -1.17960844
H    1.57519485  -3.39755224  -1.41385227
H    0.59671389  -2.85032566  -0.39649623
K   -0.25393560  -0.00450909   1.91396310
