37
Energy:   -674.36268418
O    1.27206760   1.70741695  -2.51664347
H    1.59847875   2.25488452  -3.23076312
H    0.77154644   1.01768765  -2.95251490
O    0.76530857  -1.32178465   3.56778014
H    1.12855371  -1.85094175   4.27790518
H   -0.12968897  -1.64424897   3.46181778
O    0.19226476   2.34796060  -0.04890430
H    0.52335620   2.29400102  -0.94539672
H   -0.75945835   2.37979694  -0.14607131
O   -0.50272565  -1.34300150   0.32439234
H   -0.99570330  -1.66778738   1.07786365
H   -1.17189748  -1.02050554  -0.27929405
O    3.77905719   0.82314966   1.69155337
H    4.69934782   1.01505330   1.87174768
H    3.76329131   0.56782181   0.76917006
O    2.55610986   0.05100133  -0.69624141
H    2.29596052  -0.79139127  -1.06897306
H    2.27267001   0.69734312  -1.34287575
O   -1.60850817   1.05713699   2.45607206
H   -1.99650638   1.37638210   1.64135015
H   -1.86089514   1.70635393   3.11261606
O   -2.53396214   1.87784147  -0.02100973
H   -3.24772044   2.43966548  -0.32289500
H   -2.53442932   1.14043884  -0.63131210
O   -2.22873411  -0.36108275  -1.60012320
H   -1.57823972  -0.35126748  -2.30225749
H   -2.95977700  -0.86531137  -1.95728092
O   -0.12624608  -0.51678212  -3.38305817
H    0.38179427  -1.16927937  -2.90100611
H   -0.13096913  -0.83526396  -4.28570919
O   -1.84681266  -1.67624309   2.72304628
H   -2.65765850  -2.00235699   3.11344428
H   -1.94141777  -0.72378996   2.73375917
O    1.20878168  -2.18083179  -1.64563127
H    1.48649417  -3.09585494  -1.60273306
H    0.62605391  -2.07141254  -0.89417428
K    1.11022630   0.54302807   1.67794632
