37
Energy:   -673.37150137
O    2.25278718   0.78796311  -1.85036916
H    2.97813378   1.08697689  -2.39872572
H    1.60884613   0.44522283  -2.47012789
O    0.11330018  -2.87058897   2.04021416
H    0.50675541  -3.21349045   1.23781563
H    0.01155844  -3.63724269   2.60423768
O   -0.63198323   3.31934339   2.13962568
H   -0.17087121   3.04549224   1.34677444
H   -0.73038598   4.26674774   2.04489580
O   -1.75704035  -0.43879948  -0.01424672
H   -2.22520876  -0.06910429   0.73433571
H   -1.77286393   0.25490692  -0.67360467
O    0.93803973   1.66652713   3.72186320
H    0.46280796   2.42497717   3.38254015
H    1.43831477   2.00859171   4.46277383
O    2.25026925  -0.98647678   0.25217287
H    2.10033215  -1.87134277  -0.08063772
H    2.41290352  -0.46003871  -0.53054349
O   -2.15373743   0.99281911   2.35201379
H   -2.82725067   1.00207013   3.03210656
H   -1.81974830   1.88965466   2.33280127
O    0.47206990   1.94050445   0.02234454
H    1.26237576   1.73189385  -0.47578206
H   -0.23165237   1.92455050  -0.62630967
O   -1.44165198   1.50832683  -1.91724238
H   -2.01647449   2.05989646  -2.44788526
H   -0.93650379   1.00442668  -2.55531901
O    0.14174870  -0.25013673  -3.33829465
H   -0.18514026  -1.03762076  -2.90327240
H    0.15759008  -0.47844500  -4.26773332
O   -0.92699862  -2.32030354  -1.83715413
H   -1.66179331  -2.86670458  -2.11599907
H   -1.28514184  -1.77618205  -1.13580038
O    1.17182473  -3.45048848  -0.45869879
H    1.51078830  -4.23624145  -0.88756686
H    0.44968868  -3.16435740  -1.01805591
K    0.33869085  -0.20079314   1.90578652
