37
Energy:   -674.12352665
O    2.29668696   0.66091533  -2.01384958
H    3.02282426   1.06237053  -2.49112329
H    1.74066613   0.28382928  -2.69566979
O    2.41086084  -2.30149524   2.35224801
H    3.07020097  -2.82379139   2.80909499
H    2.70079464  -2.29355848   1.44004888
O   -0.50309772   3.35344411   1.53461023
H   -0.17210725   2.82733382   0.80667814
H   -0.31965684   4.25774580   1.28001301
O   -2.20593300  -0.76220128   2.29382868
H   -2.49504409   0.14599126   2.20532477
H   -2.77047872  -1.12852126   2.97451189
O    0.74881308   1.59243613   3.24825910
H    0.34564248   2.34042725   2.80758395
H    1.05514917   1.94314318   4.08455726
O    2.14123398  -1.53127489  -0.33145459
H    2.40040468  -0.80122078  -0.89366753
H    1.65575362  -2.11921891  -0.91012763
O   -2.79837478   1.85640834   1.91111878
H   -2.07525915   2.47707144   1.82104693
H   -3.56354108   2.40350009   2.08844057
O    0.29456030   1.43350500  -0.25889991
H    1.07254064   1.34355029  -0.80925125
H   -0.43637338   1.22485848  -0.84065109
O   -1.57130075   0.46014296  -2.03635628
H   -2.31034632   0.83023410  -2.51913577
H   -0.97353703   0.14735482  -2.71538056
O    0.42875813  -0.64684955  -3.59496671
H    0.42337032  -1.49778029  -3.15665211
H    0.45882121  -0.85776751  -4.52815569
O   -1.32957043  -1.57928819  -0.20500889
H   -1.92845139  -1.47858760   0.53487815
H   -1.58467603  -0.88806876  -0.81604791
O    0.34183111  -2.86250817  -1.96062749
H    0.20179464  -3.80147671  -2.08293743
H   -0.34073182  -2.59630703  -1.34461073
K    0.48371144  -0.55939494   1.69160428
