19
Energy:   -515.12360804
O    1.85141699  -0.36819484  -2.75331347
H    1.56300879  -0.13645891  -3.63612207
H    2.49390465  -1.06522007  -2.88596821
O   -1.93873758  -0.08015139   2.30652496
H   -2.61520893  -0.22356973   2.96837808
H   -2.09339908  -0.76267066   1.65347129
O    0.05361933  -0.37019224  -0.52482615
H    0.42510775  -0.66842665  -1.35505770
H   -0.67564687  -0.96782010  -0.35976979
O    0.06900180   1.70404700   2.02407855
H   -0.67162465   1.13856202   2.24301012
H    0.11344897   2.33142115   2.74564489
O    2.29010217   1.61872547  -0.83772129
H    2.31423656   1.03222298  -1.59380608
H    3.01442286   2.22741405  -0.98294385
O   -2.11852963  -1.94297143   0.22342916
H   -2.93596594  -1.93058534  -0.27444262
H   -2.00507007  -2.85932106   0.47574272
Li   0.84933385   1.14685655   0.36595281
