19
Energy:   -531.46656307
O    0.52403224   0.88305192   4.08450231
H   -0.19748952   0.99621268   4.70323718
H    1.30917812   0.86682222   4.63178139
O    0.93259412   0.38605101  -1.74469368
H    0.41378883   0.07813613  -2.48783656
H    1.71374503   0.77213749  -2.14089102
O    0.51660083   1.27406037   1.38000978
H    0.76299567   2.19510637   1.29518242
H    0.45244453   1.12875057   2.32393821
O    0.79663601  -1.84557903   0.50744566
H    1.36039716  -2.08422939   1.24327935
H    0.41396055  -2.67440836   0.21963794
O   -1.77109563  -0.12733939  -0.53554130
H   -2.04619026  -0.03688933  -1.44788640
H   -2.58745373  -0.11125832  -0.03600881
O   -0.82423832  -0.46492182  -3.64380448
H   -0.90786081   0.09085093  -4.41863077
H   -1.08369355  -1.33597007  -3.94412062
Li   0.14251875  -0.05425378  -0.01778528
