19
Energy:   -527.84570740
O   -2.67911860   0.43099009  -1.24420590
H   -3.51834491   0.73100163  -0.89502957
H   -2.81257205   0.39434615  -2.19134858
O   -1.34307389  -2.04840735   0.24778154
H   -1.99038147  -1.57074423  -0.27093099
H   -1.77086891  -2.87778651   0.46074511
O    2.00567779  -1.70613210  -0.46443756
H    2.71238963  -2.35155883  -0.47908550
H    2.19080444  -1.13067081  -1.20659945
O    1.33279966   3.01854930  -0.54385952
H    2.26532627   3.22390210  -0.47710475
H    0.91421862   3.85990536  -0.72590824
O   -0.08171939   0.65006219  -0.20273888
H   -0.97032018   0.78450174  -0.53220283
H    0.35777381   1.48772020  -0.34904890
O    0.91887421  -0.70182725   2.39497016
H    1.43012394  -1.12394015   3.08538760
H    0.58861089   0.10122774   2.79778609
Li   0.41286663  -1.10130485   0.55660431
