19
Energy:   -509.67154432
O   -1.47356866   2.64003775  -0.42994015
H   -1.51731453   2.62521914  -1.38602516
H   -1.94070315   3.43745604  -0.18065862
O   -0.06673890  -0.14205978  -0.64926374
H    0.33800079  -1.00735270  -0.58855296
H   -0.33602760  -0.06677164  -1.56471289
O    1.40420657  -1.19561374   2.35853136
H    2.02314695  -1.64573296   2.93345513
H    1.39567928  -1.71986445   1.55770659
O    1.18258917  -2.55312299  -0.09160695
H    2.00690252  -2.79227222  -0.51533683
H    0.67321497  -3.36349103  -0.08303855
O   -0.15321449   1.02974674   2.44221995
H   -0.16273309   1.48881242   3.28210086
H    0.39516051   0.26031408   2.59548469
O   -1.01183074   0.62175703  -3.11006666
H   -1.77744523   0.21652131  -3.51731390
H   -0.43375123   0.83315032  -3.84312110
Li  -0.54238621   1.25709648   0.57106277
