40
Energy:  -1231.96655376
O   -0.79403463  -0.94084728   2.41456989
H   -0.78843393  -0.56112381   1.53592858
H    0.11595689  -1.19167838   2.57341274
O   -1.93340033   1.80455391  -1.48294092
H   -1.16402738   2.22327004  -1.86891232
H   -1.57515066   1.13808660  -0.89667276
O   -0.91922730  -0.12987496  -3.17605680
H   -0.27626020  -0.39539699  -2.51854390
H   -1.52535090   0.43994067  -2.70260545
O    1.85181215  -1.57029280   2.56873384
H    2.00178452  -0.65580124   2.32905630
H    1.70343940  -2.01577024   1.73460721
O   -1.50201840  -3.22466516   1.06551425
H   -1.74888674  -2.86315788   0.21427964
H   -1.32477787  -2.45747406   1.60978941
O   -0.46574025   1.67014085   3.17305090
H   -0.58595073   2.14371692   2.34994277
H   -0.65131151   0.75703655   2.95388045
O    2.78198100   0.48896337  -2.58297821
H    2.27148798   0.03196544  -1.91456096
H    2.27896609   1.28187867  -2.76870158
O    0.54639928   2.15421146  -2.66704665
H    0.16833018   1.38987132  -3.10187967
H    0.73407074   1.85567166  -1.77716730
O    2.03200738   1.13284652   2.09597772
H    1.25165093   1.38555333   2.58934870
H    1.73051030   1.06089574   1.19035394
O   -0.68003158   2.93375091   0.76397249
H   -0.03532164   2.29519155   0.45930399
H   -1.46034459   2.75624534   0.23877229
O    1.12695733  -2.93820535   0.28754437
H    0.23482591  -3.15986711   0.55437659
H    1.03403918  -2.12467850  -0.20820973
O   -2.08684683  -1.87823178  -1.25617300
H   -1.80131358  -1.73190597  -2.15799968
H   -1.61610952  -1.21953448  -0.74553017
C    0.45429785  -0.03574374  -0.15850832
O    0.74982960  -0.77146265  -1.27579837
O   -0.90407617   0.00415684   0.01563744
O    0.93323986   1.23898420  -0.31168607
