40
Energy:  -1232.20702695
O   -2.66325565   1.33029305   0.77077876
H   -2.92696908   0.42884497   0.58617531
H   -1.74517852   1.37137159   0.50304980
O    2.04054283   2.43968345   0.76813591
H    1.20542328   2.00913125   0.58529172
H    2.60282447   1.74074848   1.10214354
O    3.41665552   0.05085891   1.06186889
H    2.51119619  -0.15928694   1.29037267
H    3.39922825   0.18938595   0.11490617
O    1.16260231   1.15706083  -3.70467878
H    0.39606112   0.63057436  -3.47783424
H    1.75063148   1.05995928  -2.95566287
O    0.46190497  -2.86003765   1.62448840
H    0.13899591  -3.14601196   0.76998253
H    0.67782412  -1.93554464   1.50232687
O   -0.57562166  -3.05252028  -0.87998760
H   -1.44362790  -2.74162306  -0.62281078
H   -0.03161407  -2.26499012  -0.88914358
O   -0.45632641   2.71270049  -2.08305188
H   -0.33408141   2.22856573  -1.26641148
H    0.19473234   2.34427040  -2.68022323
O   -1.16518003   0.69124022   2.97494902
H   -1.81235213   1.04861890   2.36693536
H   -0.40716191   0.48847743   2.42674502
O    2.53542389   0.84965758  -1.39914766
H    2.40458299   1.62099822  -0.84765321
H    1.83565760   0.24929305  -1.14200682
O   -1.06203490   0.05108891  -2.61413546
H   -0.50792161  -0.24735682  -1.89294169
H   -1.25110259   0.96662606  -2.40852175
O   -2.56996152  -1.43169260   0.27601970
H   -1.78047969  -0.96158404   0.00778805
H   -2.40799411  -1.67178407   1.18835434
O   -1.80107076  -1.95910637   2.84231101
H   -1.59684053  -1.03185525   2.96366677
H   -0.99996696  -2.33561358   2.47802146
C    0.02636489  -0.10019801   0.30664084
O    0.83408859  -0.22843979   1.40577452
O    0.60728058  -0.72965607  -0.76266655
O   -0.14371056   1.22851295   0.01788190
