12
Energy:    -19.48774069
C   -1.36587349  -1.35286818  -1.41034532
H   -2.43260754  -1.30193435  -1.34413062
H   -0.98122407  -1.88665856  -0.56653743
H   -1.08822248  -1.86058173  -2.31036530
C   -0.78379037   0.07281481  -1.42474163
N   -0.35040303   1.13430060  -1.43546033
C    1.26906086   1.38038936   1.37540237
H    0.35099582   1.92927287   1.40339629
H    1.77213240   1.57368163   0.45103437
H    1.89158764   1.68475703   2.19070588
C    0.97036751  -0.12585358   1.49208361
N    0.74797674  -1.24731991   1.57895810
