12
Energy:    -19.36444600
C    0.89723957   1.14025494  -1.99219043
H   -0.07893129   1.50005666  -2.24225714
H    0.97472672   0.10625766  -2.25628219
H    1.63276654   1.70169058  -2.52948848
C    1.13206373   1.30254523  -0.47887636
N    1.30690099   1.42337772   0.64785475
C   -0.96558977  -1.07618745   1.98741565
H   -1.96598513  -0.97576946   2.35351063
H   -0.44067270  -0.15421993   2.12647338
H   -0.46596734  -1.85551073   2.52400837
C   -1.00033935  -1.42601599   0.48807831
N   -1.02621199  -1.68647924  -0.62824649
