12
Energy:    -19.61988302
C    2.35467911  -0.97796069  -0.24144131
H    2.16355912  -1.91262311  -0.72598180
H    3.35209941  -0.97440761   0.14590764
H    2.24315920  -0.18116216  -0.94683091
C    1.35471291  -0.78465319   0.91367766
N    0.61019262  -0.64072697   1.77371623
C   -2.36895387   1.03798171   0.21320659
H   -2.18517943   0.46806661   1.09995566
H   -3.35047616   0.82080849  -0.15332972
H   -2.29501884   2.08145331   0.43815040
C   -1.32720262   0.66898079  -0.85926376
N   -0.55157145   0.39424283  -1.65776668
