12
Energy:    -19.52042070
C    1.07850863  -2.06760396   0.29384856
H    0.13926135  -2.57274092   0.20694981
H    1.81735970  -2.74903639   0.66079273
H    1.37665680  -1.70130234  -0.66627116
C    0.93781862  -0.88702944   1.27264892
N    0.83306852  -0.00803805   2.00141027
C   -1.21285192   2.03741800  -0.30529584
H   -2.23427076   1.83086337  -0.06252246
H   -1.14655019   2.99021128  -0.78767343
H   -0.62871803   2.05005403   0.59110084
C   -0.67891246   0.94520378  -1.25058773
N   -0.28137026   0.13200065  -1.95440051
