
                                 *****************
                                 * O   R   C   A *
                                 *****************

           --- An Ab Initio, DFT and Semiempirical electronic structure package ---

                  #######################################################
                  #                        -***-                        #
                  #          Department of theory and spectroscopy      #
                  #               Directorship: Frank Neese             #
                  #        Max Planck Institute fuer Kohlenforschung    #
                  #                Kaiser Wilhelm Platz 1               #
                  #                 D-45470 Muelheim/Ruhr               #
                  #                      Germany                        #
                  #                                                     #
                  #                  All rights reserved                #
                  #                        -***-                        #
                  #######################################################


                         Program Version 4.2.0 -  RELEASE  -


 With contributions from (in alphabetic order):
   Daniel Aravena         : Magnetic Suceptibility
   Michael Atanasov       : Ab Initio Ligand Field Theory (pilot matlab implementation)
   Alexander A. Auer      : GIAO ZORA, VPT2
   Ute Becker             : Parallelization
   Giovanni Bistoni       : ED, misc. LED, open-shell LED, HFLED
   Martin Brehm           : Molecular dynamics
   Dmytro Bykov           : SCF Hessian
   Vijay G. Chilkuri      : MRCI spin determinant printing, contributions to CSF-ICE
   Dipayan Datta          : RHF DLPNO-CCSD density
   Achintya Kumar Dutta   : EOM-CC, STEOM-CC
   Dmitry Ganyushin       : Spin-Orbit,Spin-Spin,Magnetic field MRCI
   Miquel Garcia          : C-PCM Hessian, Gaussian charge scheme
   Yang Guo               : DLPNO-NEVPT2, CIM, IAO-localization
   Andreas Hansen         : Spin unrestricted coupled pair/coupled cluster methods
   Benjamin Helmich-Paris : CASSCF linear response (MC-RPA)
   Lee Huntington         : MR-EOM, pCC
   Robert Izsak           : Overlap fitted RIJCOSX, COSX-SCS-MP3, EOM
   Christian Kollmar      : KDIIS, OOCD, Brueckner-CCSD(T), CCSD density
   Simone Kossmann        : Meta GGA functionals, TD-DFT gradient, OOMP2, MP2 Hessian
   Martin Krupicka        : AUTO-CI
   Lucas Lang             : DCDCAS
   Dagmar Lenk            : GEPOL surface, SMD
   Dimitrios Liakos       : Extrapolation schemes; Compound Job, initial MDCI parallelization
   Dimitrios Manganas     : Further ROCIS development; embedding schemes
   Dimitrios Pantazis     : SARC Basis sets
   Taras Petrenko         : DFT Hessian,TD-DFT gradient, ASA, ECA, R-Raman, ABS, FL, XAS/XES, NRVS
   Peter Pinski           : DLPNO-MP2, DLPNO-MP2 Gradient
   Christoph Reimann      : Effective Core Potentials
   Marius Retegan         : Local ZFS, SOC
   Christoph Riplinger    : Optimizer, TS searches, QM/MM, DLPNO-CCSD(T), (RO)-DLPNO pert. Triples
   Tobias Risthaus        : Range-separated hybrids, TD-DFT gradient, RPA, STAB
   Michael Roemelt        : Original ROCIS implementation
   Masaaki Saitow         : Open-shell DLPNO-CCSD energy and density
   Barbara Sandhoefer     : DKH picture change effects
   Avijit Sen             : IP-ROCIS
   Kantharuban Sivalingam : CASSCF convergence, NEVPT2, FIC-MRCI
   Bernardo de Souza      : ESD, SOC TD-DFT
   Georgi Stoychev        : AutoAux, RI-MP2 NMR
   Willem Van den Heuvel  : Paramagnetic NMR
   Boris Wezisla          : Elementary symmetry handling
   Frank Wennmohs         : Technical directorship


 We gratefully acknowledge several colleagues who have allowed us to
 interface, adapt or use parts of their codes:
   Stefan Grimme, W. Hujo, H. Kruse,             : VdW corrections, initial TS optimization,
                  C. Bannwarth                     DFT functionals, gCP, sTDA/sTD-DF
   Ed Valeev, F. Pavosevic, A. Kumar             : LibInt (2-el integral package), F12 methods
   Garnet Chan, S. Sharma, J. Yang, R. Olivares  : DMRG
   Ulf Ekstrom                                   : XCFun DFT Library
   Mihaly Kallay                                 : mrcc  (arbitrary order and MRCC methods)
   Andreas Klamt, Michael Diedenhofen            : otool_cosmo (COSMO solvation model)
   Jiri Pittner, Ondrej Demel                    : Mk-CCSD
   Frank Weinhold                                : gennbo (NPA and NBO analysis)
   Christopher J. Cramer and Donald G. Truhlar   : smd solvation model
   Lars Goerigk                                  : TD-DFT with DH, B97 family of functionals
   V. Asgeirsson, H. Jonsson                     : NEB implementation
   FAccTs GmbH                                   : IRC, NEB, NEB-TS, Multilevel, MM, QM/MM, CI optimization
   S Lehtola, MJT Oliveira, MAL Marques          : LibXC Library


 Your calculation uses the libint2 library for the computation of 2-el integrals
 For citations please refer to: http://libint.valeyev.net

 Your ORCA version has been built with support for libXC version: 4.2.3
 For citations please refer to: https://tddft.org/programs/libxc/

 This ORCA versions uses:
   CBLAS   interface :  Fast vector & matrix operations
   LAPACKE interface :  Fast linear algebra routines
   SCALAPACK package :  Parallel linear algebra routines


----- Orbital basis set information -----
Your calculation utilizes the basis: def2-TZVP
   F. Weigend and R. Ahlrichs, Phys. Chem. Chem. Phys. 7, 3297 (2005).

================================================================================
                                        WARNINGS
                       Please study these warnings very carefully!
================================================================================


WARNING: The frozen-core approximation for MP2-gradient calculations is turned on by default.

INFO   : the flag for use of LIBINT has been found!

================================================================================
                                       INPUT FILE
================================================================================
NAME = 12h2o.su.etal.mol0,2,3,4,5,6,11-orca.engrad-mp2.def2tzvp.frozencore.inp
|  1> # 12h2o.su.etal.mol0,2,3,4,5,6,11
|  2> ! MP2 def2-TZVP EnGrad TightSCF
|  3> 
|  4> %pal
|  5>     nprocs 6
|  6> end
|  7> 
|  8> %maxcore 8000
|  9> 
| 10> %scf
| 11>     ConvForced true
| 12> end
| 13> 
| 14> *xyz 0 1
| 15> O   1.794470000   0.923410000   2.768350000
| 16> H   2.338250000   1.359750000   3.430940000
| 17> H   0.879480000   1.303000000   2.865760000
| 18> O   0.923410000  -1.794470000  -2.768350000
| 19> H   1.359750000  -2.338250000  -3.430940000
| 20> H   1.303000000  -0.879480000  -2.865760000
| 21> O  -1.752130000  -0.741530000  -2.896280000
| 22> H  -2.036450000  -0.920500000  -1.984040000
| 23> H  -0.921210000  -1.242140000  -2.984230000
| 24> O  -0.885520000   1.737840000   0.052730000
| 25> H  -1.032320000   2.090180000  -0.841890000
| 26> H  -1.284090000   0.839590000   0.017130000
| 27> O   0.885520000  -1.737840000   0.052730000
| 28> H   1.284090000  -0.839590000   0.017130000
| 29> H   1.032320000  -2.090180000  -0.841890000
| 30> O   1.737840000   0.885520000  -0.052730000
| 31> H   2.090180000   1.032320000   0.841890000
| 32> H   0.839590000   1.284090000  -0.017130000
| 33> O  -0.741530000   1.752130000   2.896280000
| 34> H  -0.920500000   2.036450000   1.984040000
| 35> H  -1.242140000   0.921210000   2.984230000
| 36> *
| 37> 
| 38>                          ****END OF INPUT****
================================================================================

                     *******************************
                     * Energy+Gradient Calculation *
                     *******************************

---------------------------------
CARTESIAN COORDINATES (ANGSTROEM)
---------------------------------
  O      1.794470    0.923410    2.768350
  H      2.338250    1.359750    3.430940
  H      0.879480    1.303000    2.865760
  O      0.923410   -1.794470   -2.768350
  H      1.359750   -2.338250   -3.430940
  H      1.303000   -0.879480   -2.865760
  O     -1.752130   -0.741530   -2.896280
  H     -2.036450   -0.920500   -1.984040
  H     -0.921210   -1.242140   -2.984230
  O     -0.885520    1.737840    0.052730
  H     -1.032320    2.090180   -0.841890
  H     -1.284090    0.839590    0.017130
  O      0.885520   -1.737840    0.052730
  H      1.284090   -0.839590    0.017130
  H      1.032320   -2.090180   -0.841890
  O      1.737840    0.885520   -0.052730
  H      2.090180    1.032320    0.841890
  H      0.839590    1.284090   -0.017130
  O     -0.741530    1.752130    2.896280
  H     -0.920500    2.036450    1.984040
  H     -1.242140    0.921210    2.984230

----------------------------
CARTESIAN COORDINATES (A.U.)
----------------------------
  NO LB      ZA    FRAG     MASS         X           Y           Z
   0 O     8.0000    0    15.999    3.391057    1.744992    5.231423
   1 H     1.0000    0     1.008    4.418652    2.569555    6.483537
   2 H     1.0000    0     1.008    1.661976    2.462313    5.415502
   3 O     8.0000    0    15.999    1.744992   -3.391057   -5.231423
   4 H     1.0000    0     1.008    2.569555   -4.418652   -6.483537
   5 H     1.0000    0     1.008    2.462313   -1.661976   -5.415502
   6 O     8.0000    0    15.999   -3.311046   -1.401289   -5.473176
   7 H     1.0000    0     1.008   -3.848333   -1.739493   -3.749292
   8 H     1.0000    0     1.008   -1.740835   -2.347304   -5.639377
   9 O     8.0000    0    15.999   -1.673390    3.284042    0.099645
  10 H     1.0000    0     1.008   -1.950802    3.949868   -1.590942
  11 H     1.0000    0     1.008   -2.426578    1.586595    0.032371
  12 O     8.0000    0    15.999    1.673390   -3.284042    0.099645
  13 H     1.0000    0     1.008    2.426578   -1.586595    0.032371
  14 H     1.0000    0     1.008    1.950802   -3.949868   -1.590942
  15 O     8.0000    0    15.999    3.284042    1.673390   -0.099645
  16 H     1.0000    0     1.008    3.949868    1.950802    1.590942
  17 H     1.0000    0     1.008    1.586595    2.426578   -0.032371
  18 O     8.0000    0    15.999   -1.401289    3.311046    5.473176
  19 H     1.0000    0     1.008   -1.739493    3.848333    3.749292
  20 H     1.0000    0     1.008   -2.347304    1.740835    5.639377

--------------------------------
INTERNAL COORDINATES (ANGSTROEM)
--------------------------------
 O      0   0   0     0.000000000000     0.00000000     0.00000000
 H      1   0   0     0.961828878803     0.00000000     0.00000000
 H      1   2   0     0.995381322057   106.21731035     0.00000000
 O      1   2   3     6.229017908788   152.78811022   148.20682389
 H      4   1   2     0.961828878803   142.70840549    32.77530239
 H      4   1   2     0.995381322057    68.44287781   304.10042923
 O      4   1   2     2.878117964938    90.56600904   213.46992033
 H      7   4   1     0.972136791249    99.37069922   316.39996436
 H      7   4   1     0.974050112161    12.30570018   203.88443535
 O      3   1   2     3.349245975813   116.85538783   143.82107740
 H     10   3   1     0.972645187106   154.03893681   304.15813038
 H     10   3   1     0.983350632989    97.20424340    87.67157074
 O      4   1   2     2.821902722526    26.43043848   121.43990250
 H     13   4   1     0.983350632989    88.66470709   356.04997417
 H     13   4   1     0.972645187106    21.75017499   221.89319655
 O     14  13   4     1.785153773264   170.81379649    89.95043540
 H     16  14  13     0.972645187106   101.65007623   109.44492584
 H     16  14  13     0.983350632989    99.09581498     3.33484705
 O      3   1   2     1.682356278379   171.61043709   195.73896161
 H     19   3   1     0.972136791249   103.79460456   289.35412162
 H     19   3   1     0.974050112161   105.61118924    38.30604821

---------------------------
INTERNAL COORDINATES (A.U.)
---------------------------
 O      0   0   0     0.000000000000     0.00000000     0.00000000
 H      1   0   0     1.817593168635     0.00000000     0.00000000
 H      1   2   0     1.880998097508   106.21731035     0.00000000
 O      1   2   3    11.771137930900   152.78811022   148.20682389
 H      4   1   2     1.817593168635   142.70840549    32.77530239
 H      4   1   2     1.880998097508    68.44287781   304.10042923
 O      4   1   2     5.438854734852    90.56600904   213.46992033
 H      7   4   1     1.837072300170    99.37069922   316.39996436
 H      7   4   1     1.840687952699    12.30570018   203.88443535
 O      3   1   2     6.329157649425   116.85538783   143.82107740
 H     10   3   1     1.838033029106   154.03893681   304.15813038
 H     10   3   1     1.858263389967    97.20424340    87.67157074
 O      4   1   2     5.332623322141    26.43043848   121.43990250
 H     13   4   1     1.858263389967    88.66470709   356.04997417
 H     13   4   1     1.838033029106    21.75017499   221.89319655
 O     14  13   4     3.373451738406   170.81379649    89.95043540
 H     16  14  13     1.838033029106   101.65007623   109.44492584
 H     16  14  13     1.858263389967    99.09581498     3.33484705
 O      3   1   2     3.179192625819   171.61043709   195.73896161
 H     19   3   1     1.837072300170   103.79460456   289.35412162
 H     19   3   1     1.840687952699   105.61118924    38.30604821

---------------------
BASIS SET INFORMATION
---------------------
There are 2 groups of distinct atoms

 Group   1 Type O   : 11s6p2d1f contracted to 5s3p2d1f pattern {62111/411/11/1}
 Group   2 Type H   : 5s1p contracted to 3s1p pattern {311/1}

Atom   0O    basis set group =>   1
Atom   1H    basis set group =>   2
Atom   2H    basis set group =>   2
Atom   3O    basis set group =>   1
Atom   4H    basis set group =>   2
Atom   5H    basis set group =>   2
Atom   6O    basis set group =>   1
Atom   7H    basis set group =>   2
Atom   8H    basis set group =>   2
Atom   9O    basis set group =>   1
Atom  10H    basis set group =>   2
Atom  11H    basis set group =>   2
Atom  12O    basis set group =>   1
Atom  13H    basis set group =>   2
Atom  14H    basis set group =>   2
Atom  15O    basis set group =>   1
Atom  16H    basis set group =>   2
Atom  17H    basis set group =>   2
Atom  18O    basis set group =>   1
Atom  19H    basis set group =>   2
Atom  20H    basis set group =>   2


           ************************************************************
           *        Program running with 6 parallel MPI-processes     *
           *              working on a common directory               *
           ************************************************************
------------------------------------------------------------------------------
                           ORCA GTO INTEGRAL CALCULATION
------------------------------------------------------------------------------

                         BASIS SET STATISTICS AND STARTUP INFO

 # of primitive gaussian shells          ...  224
 # of primitive gaussian functions       ...  434
 # of contracted shells                  ...  133
 # of contracted basis functions         ...  301
 Highest angular momentum                ...    3
 Maximum contraction depth               ...    6
 Integral package used                   ... LIBINT
 Integral threshhold            Thresh   ...  2.500e-11
 Primitive cut-off              TCut     ...  2.500e-12


------------------------------ INTEGRAL EVALUATION ----------------------------


 * One electron integrals 
 Pre-screening matrix                    ... done
 Shell pair data                         ... done (   0.002 sec)



           ************************************************************
           *        Program running with 6 parallel MPI-processes     *
           *              working on a common directory               *
           ************************************************************
-------------------------------------------------------------------------------
                                 ORCA SCF
-------------------------------------------------------------------------------

------------
SCF SETTINGS
------------
Hamiltonian:
 Ab initio Hamiltonian  Method          .... Hartree-Fock(GTOs)


General Settings:
 Integral files         IntName         .... 12h2o.su.etal.mol0,2,3,4,5,6,11-orca.engrad-mp2.def2tzvp.frozencore
 Hartree-Fock type      HFTyp           .... RHF
 Total Charge           Charge          ....    0
 Multiplicity           Mult            ....    1
 Number of Electrons    NEL             ....   70
 Basis Dimension        Dim             ....  301
 Nuclear Repulsion      ENuc            ....    357.0958647968 Eh

Convergence Acceleration:
 DIIS                   CNVDIIS         .... on
   Start iteration      DIISMaxIt       ....    12
   Startup error        DIISStart       ....  0.200000
   # of expansion vecs  DIISMaxEq       ....     5
   Bias factor          DIISBfac        ....   1.050
   Max. coefficient     DIISMaxC        ....  10.000
 Newton-Raphson         CNVNR           .... off
 SOSCF                  CNVSOSCF        .... on
   Start iteration      SOSCFMaxIt      ....   150
   Startup grad/error   SOSCFStart      ....  0.003300
 Level Shifting         CNVShift        .... on
   Level shift para.    LevelShift      ....    0.2500
   Turn off err/grad.   ShiftErr        ....    0.0010
 Zerner damping         CNVZerner       .... off
 Static damping         CNVDamp         .... on
   Fraction old density DampFac         ....    0.7000
   Max. Damping (<1)    DampMax         ....    0.9800
   Min. Damping (>=0)   DampMin         ....    0.0000
   Turn off err/grad.   DampErr         ....    0.1000
 Fernandez-Rico         CNVRico         .... off

SCF Procedure:
 Maximum # iterations   MaxIter         ....   125
 SCF integral mode      SCFMode         .... Direct
   Integral package                     .... LIBINT
 Reset frequency        DirectResetFreq ....    20
 Integral Threshold     Thresh          ....  2.500e-11 Eh
 Primitive CutOff       TCut            ....  2.500e-12 Eh

Convergence Tolerance:
 Convergence Check Mode ConvCheckMode   .... Total+1el-Energy
 Convergence forced     ConvForced      .... 1
 Energy Change          TolE            ....  1.000e-08 Eh
 1-El. energy change                    ....  1.000e-05 Eh
 Orbital Gradient       TolG            ....  1.000e-05
 Orbital Rotation angle TolX            ....  1.000e-05
 DIIS Error             TolErr          ....  5.000e-07


Diagonalization of the overlap matrix:
Smallest eigenvalue                        ... 3.773e-03
Time for diagonalization                   ...    0.014 sec
Threshold for overlap eigenvalues          ... 1.000e-08
Number of eigenvalues below threshold      ... 0
Time for construction of square roots      ...    0.008 sec
Total time needed                          ...    0.022 sec

-------------------
DFT GRID GENERATION
-------------------

General Integration Accuracy     IntAcc      ...  4.340
Radial Grid Type                 RadialGrid  ... Gauss-Chebyshev
Angular Grid (max. acc.)         AngularGrid ... Lebedev-110
Angular grid pruning method      GridPruning ... 3 (G Style)
Weight generation scheme         WeightScheme... Becke
Basis function cutoff            BFCut       ...    1.0000e-11
Integration weight cutoff        WCut        ...    1.0000e-14
Grids for H and He will be reduced by one unit

# of grid points (after initial pruning)     ...  23128 (   0.0 sec)
# of grid points (after weights+screening)   ...  21683 (   0.0 sec)
nearest neighbour list constructed           ...    0.0 sec
Grid point re-assignment to atoms done       ...    0.0 sec
Grid point division into batches done        ...    0.0 sec
Reduced shell lists constructed in    0.0 sec

Total number of grid points                  ...    21683
Total number of batches                      ...      350
Average number of points per batch           ...       61
Average number of grid points per atom       ...     1033
Average number of shells per batch           ...    63.47 (47.72%)
Average number of basis functions per batch  ...   130.17 (43.24%)
Average number of large shells per batch     ...    43.68 (68.83%)
Average number of large basis fcns per batch ...    88.28 (67.82%)
Maximum spatial batch extension              ...  12.83, 20.15, 12.41 au
Average spatial batch extension              ...   0.51,  0.65,  0.56 au

Time for grid setup =    0.078 sec

------------------------------
INITIAL GUESS: MODEL POTENTIAL
------------------------------
Loading Hartree-Fock densities                     ... done
Calculating cut-offs                               ... done
Setting up the integral package                    ... done
Initializing the effective Hamiltonian             ... done
Starting the Coulomb interaction                   ... done (   0.0 sec)
Reading the grid                                   ... done
Mapping shells                                     ... done
Starting the XC term evaluation                    ... done (   0.0 sec)
Transforming the Hamiltonian                       ... done (   0.0 sec)
Diagonalizing the Hamiltonian                      ... done (   0.0 sec)
Back transforming the eigenvectors                 ... done (   0.0 sec)
Now organizing SCF variables                       ... done
                      ------------------
                      INITIAL GUESS DONE (   0.2 sec)
                      ------------------
--------------
SCF ITERATIONS
--------------
ITER       Energy         Delta-E        Max-DP      RMS-DP      [F,P]     Damp
               ***  Starting incremental Fock matrix formation  ***
  0   -531.8220365639   0.000000000000 0.04470235  0.00089502  0.3481965 0.7000
  1   -532.0618329051  -0.239796341142 0.02962531  0.00062222  0.2169271 0.7000
                               ***Turning on DIIS***
  2   -532.1892567318  -0.127423826695 0.01656230  0.00034993  0.1635932 0.7000
  3   -533.3474077889  -1.158151057160 0.00762939  0.00016315  0.1218071 0.7000
  4   -533.1146331408   0.232774648168 0.01732799  0.00038021  0.0861911 0.0000
  5   -532.4819826056   0.632650535136 0.00229192  0.00006105  0.0056511 0.0000
                      *** Initiating the SOSCF procedure ***
                           *** Shutting down DIIS ***
                      *** Re-Reading the Fockian *** 
                      *** Removing any level shift *** 
ITER      Energy       Delta-E        Grad      Rot      Max-DP    RMS-DP
  6   -532.44670300   0.0352796013  0.000922  0.000922  0.001436  0.000038
               *** Restarting incremental Fock matrix formation ***
  7   -532.43605225   0.0106507551  0.000342  0.000466  0.000688  0.000016
  8   -532.43606284  -0.0000105897  0.000126  0.000361  0.000507  0.000013
  9   -532.43606536  -0.0000025208  0.000069  0.000042  0.000105  0.000002
 10   -532.43606557  -0.0000002054  0.000011  0.000008  0.000020  0.000000
 11   -532.43606557  -0.0000000059  0.000003  0.000003  0.000006  0.000000
                  ***Gradient check signals convergence***
              ***Rediagonalizing the Fockian in SOSCF/NRSCF***

               *****************************************************
               *                     SUCCESS                       *
               *           SCF CONVERGED AFTER  12 CYCLES          *
               *****************************************************


----------------
TOTAL SCF ENERGY
----------------

Total Energy       :         -532.43606557 Eh          -14488.32192 eV

Components:
Nuclear Repulsion  :          357.09586480 Eh            9717.07249 eV
Electronic Energy  :         -889.53193037 Eh          -24205.39440 eV
One Electron Energy:        -1447.00550847 Eh          -39375.02167 eV
Two Electron Energy:          557.47357811 Eh           15169.62727 eV

Virial components:
Potential Energy   :        -1064.18989114 Eh          -28958.07914 eV
Kinetic Energy     :          531.75382557 Eh           14469.75722 eV
Virial Ratio       :            2.00128300


---------------
SCF CONVERGENCE
---------------

  Last Energy change         ...    2.3908e-10  Tolerance :   1.0000e-08
  Last MAX-Density change    ...    1.9733e-06  Tolerance :   1.0000e-07
  Last RMS-Density change    ...    3.8706e-08  Tolerance :   5.0000e-09
  Last Orbital Gradient      ...    8.6906e-07  Tolerance :   1.0000e-05
  Last Orbital Rotation      ...    9.8516e-07  Tolerance :   1.0000e-05

             **** THE GBW FILE WAS UPDATED (12h2o.su.etal.mol0,2,3,4,5,6,11-orca.engrad-mp2.def2tzvp.frozencore.gbw) ****
             **** DENSITY FILE WAS UPDATED (12h2o.su.etal.mol0,2,3,4,5,6,11-orca.engrad-mp2.def2tzvp.frozencore.scfp) ****
             **** ENERGY FILE WAS UPDATED (12h2o.su.etal.mol0,2,3,4,5,6,11-orca.engrad-mp2.def2tzvp.frozencore.en.tmp) ****
             **** THE GBW FILE WAS UPDATED (12h2o.su.etal.mol0,2,3,4,5,6,11-orca.engrad-mp2.def2tzvp.frozencore.gbw) ****
             **** DENSITY FILE WAS UPDATED (12h2o.su.etal.mol0,2,3,4,5,6,11-orca.engrad-mp2.def2tzvp.frozencore.scfp) ****
----------------
ORBITAL ENERGIES
----------------

  NO   OCC          E(Eh)            E(eV) 
   0   2.0000     -20.623898      -561.2048 
   1   2.0000     -20.604915      -560.6883 
   2   2.0000     -20.584969      -560.1455 
   3   2.0000     -20.550774      -559.2150 
   4   2.0000     -20.536595      -558.8292 
   5   2.0000     -20.532006      -558.7043 
   6   2.0000     -20.498102      -557.7817 
   7   2.0000      -1.407314       -38.2950 
   8   2.0000      -1.385207       -37.6934 
   9   2.0000      -1.373081       -37.3634 
  10   2.0000      -1.332721       -36.2652 
  11   2.0000      -1.326961       -36.1085 
  12   2.0000      -1.315347       -35.7924 
  13   2.0000      -1.281730       -34.8777 
  14   2.0000      -0.766454       -20.8563 
  15   2.0000      -0.750938       -20.4341 
  16   2.0000      -0.734951       -19.9990 
  17   2.0000      -0.705855       -19.2073 
  18   2.0000      -0.702074       -19.1044 
  19   2.0000      -0.699460       -19.0333 
  20   2.0000      -0.666939       -18.1483 
  21   2.0000      -0.651863       -17.7381 
  22   2.0000      -0.621539       -16.9129 
  23   2.0000      -0.606371       -16.5002 
  24   2.0000      -0.596319       -16.2267 
  25   2.0000      -0.578984       -15.7550 
  26   2.0000      -0.559783       -15.2325 
  27   2.0000      -0.553522       -15.0621 
  28   2.0000      -0.539496       -14.6804 
  29   2.0000      -0.519384       -14.1332 
  30   2.0000      -0.515580       -14.0296 
  31   2.0000      -0.497958       -13.5501 
  32   2.0000      -0.485109       -13.2005 
  33   2.0000      -0.473896       -12.8954 
  34   2.0000      -0.449029       -12.2187 
  35   0.0000       0.083499         2.2721 
  36   0.0000       0.114007         3.1023 
  37   0.0000       0.139817         3.8046 
  38   0.0000       0.152460         4.1487 
  39   0.0000       0.168609         4.5881 
  40   0.0000       0.186841         5.0842 
  41   0.0000       0.226158         6.1541 
  42   0.0000       0.241749         6.5783 
  43   0.0000       0.246159         6.6983 
  44   0.0000       0.272261         7.4086 
  45   0.0000       0.292729         7.9656 
  46   0.0000       0.323504         8.8030 
  47   0.0000       0.334748         9.1089 
  48   0.0000       0.357561         9.7297 
  49   0.0000       0.430374        11.7111 
  50   0.0000       0.453785        12.3481 
  51   0.0000       0.486578        13.2405 
  52   0.0000       0.497980        13.5507 
  53   0.0000       0.514199        13.9921 
  54   0.0000       0.515268        14.0212 
  55   0.0000       0.527428        14.3520 
  56   0.0000       0.545218        14.8361 
  57   0.0000       0.554308        15.0835 
  58   0.0000       0.562477        15.3058 
  59   0.0000       0.582521        15.8512 
  60   0.0000       0.593314        16.1449 
  61   0.0000       0.599246        16.3063 
  62   0.0000       0.609604        16.5882 
  63   0.0000       0.616221        16.7682 
  64   0.0000       0.621114        16.9014 
  65   0.0000       0.627806        17.0835 
  66   0.0000       0.653878        17.7929 
  67   0.0000       0.664796        18.0900 
  68   0.0000       0.673804        18.3351 
  69   0.0000       0.696184        18.9441 
  70   0.0000       0.719229        19.5712 
  71   0.0000       0.722320        19.6553 
  72   0.0000       0.732770        19.9397 
  73   0.0000       0.739819        20.1315 
  74   0.0000       0.758681        20.6448 
  75   0.0000       0.770316        20.9614 
  76   0.0000       0.782325        21.2881 
  77   0.0000       0.786019        21.3887 
  78   0.0000       0.807338        21.9688 
  79   0.0000       0.827694        22.5227 
  80   0.0000       0.842057        22.9135 
  81   0.0000       0.865900        23.5623 
  82   0.0000       0.884727        24.0746 
  83   0.0000       0.904306        24.6074 
  84   0.0000       0.942133        25.6367 
  85   0.0000       0.965138        26.2627 
  86   0.0000       0.999057        27.1857 
  87   0.0000       1.023702        27.8563 
  88   0.0000       1.041131        28.3306 
  89   0.0000       1.086725        29.5713 
  90   0.0000       1.142878        31.0993 
  91   0.0000       1.346476        36.6395 
  92   0.0000       1.350435        36.7472 
  93   0.0000       1.366595        37.1869 
  94   0.0000       1.395017        37.9603 
  95   0.0000       1.407987        38.3133 
  96   0.0000       1.415235        38.5105 
  97   0.0000       1.422480        38.7076 
  98   0.0000       1.434944        39.0468 
  99   0.0000       1.459003        39.7015 
 100   0.0000       1.469383        39.9839 
 101   0.0000       1.482151        40.3314 
 102   0.0000       1.499588        40.8059 
 103   0.0000       1.524570        41.4857 
 104   0.0000       1.529941        41.6318 
 105   0.0000       1.558285        42.4031 
 106   0.0000       1.577352        42.9219 
 107   0.0000       1.587848        43.2075 
 108   0.0000       1.607822        43.7511 
 109   0.0000       1.619121        44.0585 
 110   0.0000       1.642771        44.7021 
 111   0.0000       1.686357        45.8881 
 112   0.0000       1.792131        48.7664 
 113   0.0000       1.805491        49.1299 
 114   0.0000       1.817028        49.4439 
 115   0.0000       1.824730        49.6534 
 116   0.0000       1.843778        50.1717 
 117   0.0000       1.868500        50.8445 
 118   0.0000       1.889588        51.4183 
 119   0.0000       1.927372        52.4465 
 120   0.0000       1.947960        53.0067 
 121   0.0000       1.957888        53.2768 
 122   0.0000       1.969752        53.5997 
 123   0.0000       1.987438        54.0809 
 124   0.0000       2.018857        54.9359 
 125   0.0000       2.036491        55.4157 
 126   0.0000       2.042130        55.5692 
 127   0.0000       2.078669        56.5635 
 128   0.0000       2.094076        56.9827 
 129   0.0000       2.136799        58.1453 
 130   0.0000       2.152278        58.5665 
 131   0.0000       2.164632        58.9026 
 132   0.0000       2.208602        60.0991 
 133   0.0000       2.238092        60.9016 
 134   0.0000       2.272400        61.8351 
 135   0.0000       2.279044        62.0160 
 136   0.0000       2.300969        62.6125 
 137   0.0000       2.302238        62.6471 
 138   0.0000       2.317050        63.0501 
 139   0.0000       2.324467        63.2520 
 140   0.0000       2.338332        63.6293 
 141   0.0000       2.364638        64.3451 
 142   0.0000       2.380605        64.7796 
 143   0.0000       2.387042        64.9547 
 144   0.0000       2.402221        65.3677 
 145   0.0000       2.414416        65.6996 
 146   0.0000       2.426802        66.0366 
 147   0.0000       2.466646        67.1209 
 148   0.0000       2.480577        67.4999 
 149   0.0000       2.496794        67.9412 
 150   0.0000       2.518240        68.5248 
 151   0.0000       2.542327        69.1802 
 152   0.0000       2.554635        69.5152 
 153   0.0000       2.564089        69.7724 
 154   0.0000       2.598675        70.7136 
 155   0.0000       2.602388        70.8146 
 156   0.0000       2.614078        71.1327 
 157   0.0000       2.635496        71.7155 
 158   0.0000       2.654544        72.2338 
 159   0.0000       2.659634        72.3723 
 160   0.0000       2.667487        72.5860 
 161   0.0000       2.682769        73.0019 
 162   0.0000       2.698897        73.4407 
 163   0.0000       2.714739        73.8718 
 164   0.0000       2.728325        74.2415 
 165   0.0000       2.771761        75.4234 
 166   0.0000       2.782308        75.7104 
 167   0.0000       2.811530        76.5056 
 168   0.0000       2.882450        78.4354 
 169   0.0000       2.900394        78.9237 
 170   0.0000       2.915300        79.3294 
 171   0.0000       2.946326        80.1736 
 172   0.0000       2.949483        80.2595 
 173   0.0000       2.962928        80.6254 
 174   0.0000       2.976021        80.9817 
 175   0.0000       2.983551        81.1865 
 176   0.0000       2.985066        81.2278 
 177   0.0000       3.028133        82.3997 
 178   0.0000       3.035295        82.5946 
 179   0.0000       3.062362        83.3311 
 180   0.0000       3.079873        83.8076 
 181   0.0000       3.098986        84.3277 
 182   0.0000       3.131188        85.2039 
 183   0.0000       3.147985        85.6610 
 184   0.0000       3.154036        85.8257 
 185   0.0000       3.182055        86.5881 
 186   0.0000       3.231518        87.9341 
 187   0.0000       3.238505        88.1242 
 188   0.0000       3.260735        88.7291 
 189   0.0000       3.307464        90.0007 
 190   0.0000       3.318932        90.3127 
 191   0.0000       3.343921        90.9927 
 192   0.0000       3.361396        91.4682 
 193   0.0000       3.427120        93.2567 
 194   0.0000       3.497343        95.1675 
 195   0.0000       3.525903        95.9447 
 196   0.0000       3.981772       108.3495 
 197   0.0000       4.000235       108.8519 
 198   0.0000       4.043090       110.0181 
 199   0.0000       4.050804       110.2280 
 200   0.0000       4.113807       111.9424 
 201   0.0000       4.150558       112.9424 
 202   0.0000       4.168109       113.4200 
 203   0.0000       4.247507       115.5805 
 204   0.0000       4.277001       116.3831 
 205   0.0000       4.295722       116.8925 
 206   0.0000       4.328086       117.7732 
 207   0.0000       4.365017       118.7782 
 208   0.0000       4.392385       119.5229 
 209   0.0000       4.412303       120.0649 
 210   0.0000       5.484065       149.2290 
 211   0.0000       5.509522       149.9217 
 212   0.0000       5.520882       150.2308 
 213   0.0000       5.555933       151.1846 
 214   0.0000       5.564965       151.4304 
 215   0.0000       5.572576       151.6375 
 216   0.0000       5.603119       152.4686 
 217   0.0000       5.605456       152.5322 
 218   0.0000       5.611891       152.7073 
 219   0.0000       5.654228       153.8594 
 220   0.0000       5.662229       154.0771 
 221   0.0000       5.670439       154.3005 
 222   0.0000       5.702976       155.1859 
 223   0.0000       5.713044       155.4598 
 224   0.0000       5.762545       156.8068 
 225   0.0000       5.772092       157.0666 
 226   0.0000       5.786840       157.4679 
 227   0.0000       5.805734       157.9821 
 228   0.0000       5.812650       158.1703 
 229   0.0000       5.824939       158.5046 
 230   0.0000       5.830952       158.6683 
 231   0.0000       5.835484       158.7916 
 232   0.0000       5.847647       159.1226 
 233   0.0000       5.856530       159.3643 
 234   0.0000       5.871873       159.7818 
 235   0.0000       5.874232       159.8460 
 236   0.0000       5.876404       159.9051 
 237   0.0000       5.885626       160.1560 
 238   0.0000       5.885988       160.1659 
 239   0.0000       5.897735       160.4855 
 240   0.0000       5.906124       160.7138 
 241   0.0000       5.927445       161.2940 
 242   0.0000       5.929065       161.3381 
 243   0.0000       5.951070       161.9369 
 244   0.0000       5.959862       162.1761 
 245   0.0000       6.390071       173.8827 
 246   0.0000       6.410219       174.4309 
 247   0.0000       6.461818       175.8350 
 248   0.0000       6.485292       176.4738 
 249   0.0000       6.493595       176.6997 
 250   0.0000       6.494920       176.7358 
 251   0.0000       6.533326       177.7808 
 252   0.0000       6.649637       180.9458 
 253   0.0000       6.665450       181.3761 
 254   0.0000       6.687193       181.9678 
 255   0.0000       6.709397       182.5720 
 256   0.0000       6.731551       183.1748 
 257   0.0000       6.755755       183.8334 
 258   0.0000       6.773152       184.3068 
 259   0.0000       6.832412       185.9194 
 260   0.0000       6.833190       185.9406 
 261   0.0000       6.839624       186.1156 
 262   0.0000       6.853707       186.4989 
 263   0.0000       6.860628       186.6872 
 264   0.0000       6.871445       186.9815 
 265   0.0000       6.886996       187.4047 
 266   0.0000       6.892711       187.5602 
 267   0.0000       6.904040       187.8685 
 268   0.0000       6.909174       188.0082 
 269   0.0000       6.921505       188.3437 
 270   0.0000       6.937582       188.7812 
 271   0.0000       6.953626       189.2178 
 272   0.0000       6.959829       189.3866 
 273   0.0000       6.969228       189.6423 
 274   0.0000       6.983196       190.0224 
 275   0.0000       6.994317       190.3250 
 276   0.0000       7.008740       190.7175 
 277   0.0000       7.038227       191.5199 
 278   0.0000       7.071242       192.4183 
 279   0.0000       7.086293       192.8278 
 280   0.0000       7.335745       199.6158 
 281   0.0000       7.350233       200.0100 
 282   0.0000       7.406582       201.5433 
 283   0.0000       7.415230       201.7787 
 284   0.0000       7.443876       202.5582 
 285   0.0000       7.470476       203.2820 
 286   0.0000       7.488332       203.7679 
 287   0.0000       7.493222       203.9009 
 288   0.0000       7.522335       204.6931 
 289   0.0000       7.538217       205.1253 
 290   0.0000       7.556549       205.6241 
 291   0.0000       7.572654       206.0624 
 292   0.0000       7.630311       207.6313 
 293   0.0000       7.651276       208.2018 
 294   0.0000      44.895409      1221.6662 
 295   0.0000      44.923279      1222.4246 
 296   0.0000      44.931962      1222.6608 
 297   0.0000      44.981010      1223.9955 
 298   0.0000      44.998831      1224.4804 
 299   0.0000      45.073723      1226.5183 
 300   0.0000      45.111719      1227.5523 

                    ********************************
                    * MULLIKEN POPULATION ANALYSIS *
                    ********************************

-----------------------
MULLIKEN ATOMIC CHARGES
-----------------------
   0 O :   -0.762324
   1 H :    0.342350
   2 H :    0.397188
   3 O :   -0.741939
   4 H :    0.370615
   5 H :    0.385401
   6 O :   -0.727457
   7 H :    0.333126
   8 H :    0.383739
   9 O :   -0.749519
  10 H :    0.389739
  11 H :    0.377424
  12 O :   -0.774847
  13 H :    0.379611
  14 H :    0.365104
  15 O :   -0.775347
  16 H :    0.401250
  17 H :    0.369531
  18 O :   -0.725033
  19 H :    0.399874
  20 H :    0.361513
Sum of atomic charges:   -0.0000000

--------------------------------
MULLIKEN REDUCED ORBITAL CHARGES
--------------------------------
  0 O s       :     3.808544  s :     3.808544
      pz      :     1.706379  p :     4.929263
      px      :     1.413039
      py      :     1.809845
      dz2     :     0.003604  d :     0.023085
      dxz     :     0.004185
      dyz     :     0.005501
      dx2y2   :     0.002261
      dxy     :     0.007534
      f0      :     0.000079  f :     0.001432
      f+1     :     0.000310
      f-1     :     0.000178
      f+2     :     0.000070
      f-2     :     0.000348
      f+3     :     0.000089
      f-3     :     0.000357
  1 H s       :     0.611721  s :     0.611721
      pz      :     0.016874  p :     0.045929
      px      :     0.013958
      py      :     0.015097
  2 H s       :     0.546212  s :     0.546212
      pz      :     0.010329  p :     0.056600
      px      :     0.032119
      py      :     0.014153
  3 O s       :     3.807915  s :     3.807915
      pz      :     1.734229  p :     4.908413
      px      :     1.790271
      py      :     1.383913
      dz2     :     0.004197  d :     0.024132
      dxz     :     0.005456
      dyz     :     0.004666
      dx2y2   :     0.002553
      dxy     :     0.007260
      f0      :     0.000086  f :     0.001478
      f+1     :     0.000181
      f-1     :     0.000336
      f+2     :     0.000062
      f-2     :     0.000349
      f+3     :     0.000371
      f-3     :     0.000093
  4 H s       :     0.584366  s :     0.584366
      pz      :     0.017050  p :     0.045019
      px      :     0.014667
      py      :     0.013302
  5 H s       :     0.574064  s :     0.574064
      pz      :     0.010422  p :     0.040535
      px      :     0.012122
      py      :     0.017991
  6 O s       :     3.809119  s :     3.809119
      pz      :     1.490367  p :     4.891515
      px      :     1.577767
      py      :     1.823381
      dz2     :     0.012032  d :     0.025337
      dxz     :     0.001283
      dyz     :     0.002933
      dx2y2   :     0.002019
      dxy     :     0.007070
      f0      :     0.000272  f :     0.001486
      f+1     :     0.000381
      f-1     :     0.000169
      f+2     :     0.000056
      f-2     :     0.000056
      f+3     :     0.000064
      f-3     :     0.000488
  7 H s       :     0.621849  s :     0.621849
      pz      :     0.018601  p :     0.045025
      px      :     0.012406
      py      :     0.014018
  8 H s       :     0.566267  s :     0.566267
      pz      :     0.009808  p :     0.049994
      px      :     0.023879
      py      :     0.016307
  9 O s       :     3.804216  s :     3.804216
      pz      :     1.578456  p :     4.919587
      px      :     1.857787
      py      :     1.483344
      dz2     :     0.010915  d :     0.024275
      dxz     :     0.002119
      dyz     :     0.002575
      dx2y2   :     0.003475
      dxy     :     0.005191
      f0      :     0.000189  f :     0.001440
      f+1     :     0.000118
      f-1     :     0.000453
      f+2     :     0.000070
      f-2     :     0.000038
      f+3     :     0.000460
      f-3     :     0.000112
 10 H s       :     0.566758  s :     0.566758
      pz      :     0.019315  p :     0.043503
      px      :     0.012880
      py      :     0.011309
 11 H s       :     0.581091  s :     0.581091
      pz      :     0.009007  p :     0.041485
      px      :     0.013624
      py      :     0.018854
 12 O s       :     3.807452  s :     3.807452
      pz      :     1.567618  p :     4.941810
      px      :     1.873915
      py      :     1.500276
      dz2     :     0.011070  d :     0.024198
      dxz     :     0.002476
      dyz     :     0.002914
      dx2y2   :     0.002945
      dxy     :     0.004793
      f0      :     0.000168  f :     0.001387
      f+1     :     0.000118
      f-1     :     0.000439
      f+2     :     0.000075
      f-2     :     0.000039
      f+3     :     0.000436
      f-3     :     0.000112
 13 H s       :     0.566106  s :     0.566106
      pz      :     0.009758  p :     0.054282
      px      :     0.015607
      py      :     0.028918
 14 H s       :     0.585932  s :     0.585932
      pz      :     0.023621  p :     0.048964
      px      :     0.013738
      py      :     0.011605
 15 O s       :     3.795955  s :     3.795955
      pz      :     1.611290  p :     4.954453
      px      :     1.500576
      py      :     1.842587
      dz2     :     0.010867  d :     0.023611
      dxz     :     0.002667
      dyz     :     0.002056
      dx2y2   :     0.003303
      dxy     :     0.004718
      f0      :     0.000150  f :     0.001329
      f+1     :     0.000447
      f-1     :     0.000109
      f+2     :     0.000068
      f-2     :     0.000040
      f+3     :     0.000100
      f-3     :     0.000416
 16 H s       :     0.550361  s :     0.550361
      pz      :     0.025182  p :     0.048389
      px      :     0.010865
      py      :     0.012342
 17 H s       :     0.577248  s :     0.577248
      pz      :     0.009855  p :     0.053222
      px      :     0.028119
      py      :     0.015247
 18 O s       :     3.797879  s :     3.797879
      pz      :     1.568381  p :     4.900469
      px      :     1.786231
      py      :     1.545857
      dz2     :     0.012023  d :     0.025277
      dxz     :     0.002433
      dyz     :     0.001220
      dx2y2   :     0.002484
      dxy     :     0.007117
      f0      :     0.000231  f :     0.001408
      f+1     :     0.000157
      f-1     :     0.000383
      f+2     :     0.000050
      f-2     :     0.000055
      f+3     :     0.000478
      f-3     :     0.000053
 19 H s       :     0.552337  s :     0.552337
      pz      :     0.024526  p :     0.047789
      px      :     0.012061
      py      :     0.011202
 20 H s       :     0.594717  s :     0.594717
      pz      :     0.010531  p :     0.043770
      px      :     0.014847
      py      :     0.018393


                     *******************************
                     * LOEWDIN POPULATION ANALYSIS *
                     *******************************

----------------------
LOEWDIN ATOMIC CHARGES
----------------------
   0 O :   -0.343966
   1 H :    0.151909
   2 H :    0.153776
   3 O :   -0.296944
   4 H :    0.166077
   5 H :    0.194133
   6 O :   -0.346702
   7 H :    0.155970
   8 H :    0.155800
   9 O :   -0.288901
  10 H :    0.182521
  11 H :    0.182694
  12 O :   -0.377562
  13 H :    0.145927
  14 H :    0.144029
  15 O :   -0.333407
  16 H :    0.158701
  17 H :    0.144014
  18 O :   -0.284015
  19 H :    0.162640
  20 H :    0.173307

-------------------------------
LOEWDIN REDUCED ORBITAL CHARGES
-------------------------------
  0 O s       :     3.461335  s :     3.461335
      pz      :     1.675719  p :     4.851043
      px      :     1.394230
      py      :     1.781093
      dz2     :     0.004602  d :     0.029595
      dxz     :     0.006795
      dyz     :     0.005750
      dx2y2   :     0.003224
      dxy     :     0.009223
      f0      :     0.000082  f :     0.001993
      f+1     :     0.000428
      f-1     :     0.000263
      f+2     :     0.000034
      f-2     :     0.000620
      f+3     :     0.000084
      f-3     :     0.000481
  1 H s       :     0.683350  s :     0.683350
      pz      :     0.065697  p :     0.164740
      px      :     0.045663
      py      :     0.053380
  2 H s       :     0.650978  s :     0.650978
      pz      :     0.033474  p :     0.195247
      px      :     0.114167
      py      :     0.047606
  3 O s       :     3.462893  s :     3.462893
      pz      :     1.688693  p :     4.800308
      px      :     1.746482
      py      :     1.365133
      dz2     :     0.005600  d :     0.031673
      dxz     :     0.005375
      dyz     :     0.006869
      dx2y2   :     0.004233
      dxy     :     0.009597
      f0      :     0.000095  f :     0.002070
      f+1     :     0.000270
      f-1     :     0.000449
      f+2     :     0.000033
      f-2     :     0.000602
      f+3     :     0.000529
      f-3     :     0.000091
  4 H s       :     0.669753  s :     0.669753
      pz      :     0.066879  p :     0.164170
      px      :     0.052717
      py      :     0.044574
  5 H s       :     0.656729  s :     0.656729
      pz      :     0.033324  p :     0.149138
      px      :     0.043394
      py      :     0.072421
  6 O s       :     3.466455  s :     3.466455
      pz      :     1.502633  p :     4.846434
      px      :     1.549505
      py      :     1.794296
      dz2     :     0.016424  d :     0.031685
      dxz     :     0.002235
      dyz     :     0.002404
      dx2y2   :     0.002036
      dxy     :     0.008585
      f0      :     0.000508  f :     0.002128
      f+1     :     0.000584
      f-1     :     0.000314
      f+2     :     0.000025
      f-2     :     0.000050
      f+3     :     0.000002
      f-3     :     0.000645
  7 H s       :     0.685719  s :     0.685719
      pz      :     0.079171  p :     0.158311
      px      :     0.036409
      py      :     0.042730
  8 H s       :     0.671322  s :     0.671322
      pz      :     0.029431  p :     0.172878
      px      :     0.085704
      py      :     0.057743
  9 O s       :     3.460209  s :     3.460209
      pz      :     1.542448  p :     4.794848
      px      :     1.791752
      py      :     1.460648
      dz2     :     0.014957  d :     0.031769
      dxz     :     0.001340
      dyz     :     0.003802
      dx2y2   :     0.005145
      dxy     :     0.006525
      f0      :     0.000366  f :     0.002075
      f+1     :     0.000205
      f-1     :     0.000733
      f+2     :     0.000040
      f-2     :     0.000043
      f+3     :     0.000616
      f-3     :     0.000072
 10 H s       :     0.658310  s :     0.658310
      pz      :     0.081376  p :     0.159168
      px      :     0.042442
      py      :     0.035350
 11 H s       :     0.662696  s :     0.662696
      pz      :     0.029207  p :     0.154610
      px      :     0.049293
      py      :     0.076110
 12 O s       :     3.465245  s :     3.465245
      pz      :     1.560305  p :     4.880999
      px      :     1.837113
      py      :     1.483581
      dz2     :     0.013999  d :     0.029365
      dxz     :     0.001583
      dyz     :     0.004152
      dx2y2   :     0.003825
      dxy     :     0.005805
      f0      :     0.000362  f :     0.001954
      f+1     :     0.000188
      f-1     :     0.000709
      f+2     :     0.000044
      f-2     :     0.000044
      f+3     :     0.000542
      f-3     :     0.000066
 13 H s       :     0.667382  s :     0.667382
      pz      :     0.030248  p :     0.186691
      px      :     0.052752
      py      :     0.103691
 14 H s       :     0.684548  s :     0.684548
      pz      :     0.090125  p :     0.171423
      px      :     0.043677
      py      :     0.037621
 15 O s       :     3.455536  s :     3.455536
      pz      :     1.581682  p :     4.847132
      px      :     1.479549
      py      :     1.785901
      dz2     :     0.013156  d :     0.028818
      dxz     :     0.003476
      dyz     :     0.001207
      dx2y2   :     0.004956
      dxy     :     0.006022
      f0      :     0.000319  f :     0.001921
      f+1     :     0.000694
      f-1     :     0.000196
      f+2     :     0.000036
      f-2     :     0.000043
      f+3     :     0.000069
      f-3     :     0.000564
 16 H s       :     0.666215  s :     0.666215
      pz      :     0.095356  p :     0.175084
      px      :     0.037170
      py      :     0.042558
 17 H s       :     0.672086  s :     0.672086
      pz      :     0.031081  p :     0.183900
      px      :     0.100032
      py      :     0.052787
 18 O s       :     3.453845  s :     3.453845
      pz      :     1.540342  p :     4.795744
      px      :     1.726449
      py      :     1.528953
      dz2     :     0.015638  d :     0.032298
      dxz     :     0.001861
      dyz     :     0.001786
      dx2y2   :     0.003714
      dxy     :     0.009300
      f0      :     0.000415  f :     0.002128
      f+1     :     0.000335
      f-1     :     0.000563
      f+2     :     0.000021
      f-2     :     0.000046
      f+3     :     0.000721
      f-3     :     0.000027
 19 H s       :     0.666467  s :     0.666467
      pz      :     0.093293  p :     0.170894
      px      :     0.041598
      py      :     0.036003
 20 H s       :     0.668559  s :     0.668559
      pz      :     0.031053  p :     0.158134
      px      :     0.054796
      py      :     0.072285


                      *****************************
                      * MAYER POPULATION ANALYSIS *
                      *****************************

  NA   - Mulliken gross atomic population
  ZA   - Total nuclear charge
  QA   - Mulliken gross atomic charge
  VA   - Mayer's total valence
  BVA  - Mayer's bonded valence
  FA   - Mayer's free valence

  ATOM       NA         ZA         QA         VA         BVA        FA
  0 O      8.7623     8.0000    -0.7623     1.6997     1.6997    -0.0000
  1 H      0.6577     1.0000     0.3423     0.8990     0.8990     0.0000
  2 H      0.6028     1.0000     0.3972     0.8779     0.8779     0.0000
  3 O      8.7419     8.0000    -0.7419     1.7574     1.7574     0.0000
  4 H      0.6294     1.0000     0.3706     0.8783     0.8783    -0.0000
  5 H      0.6146     1.0000     0.3854     0.8669     0.8669    -0.0000
  6 O      8.7275     8.0000    -0.7275     1.7493     1.7493    -0.0000
  7 H      0.6669     1.0000     0.3331     0.9048     0.9048    -0.0000
  8 H      0.6163     1.0000     0.3837     0.8838     0.8838    -0.0000
  9 O      8.7495     8.0000    -0.7495     1.7488     1.7488    -0.0000
 10 H      0.6103     1.0000     0.3897     0.8657     0.8657    -0.0000
 11 H      0.6226     1.0000     0.3774     0.8810     0.8810    -0.0000
 12 O      8.7748     8.0000    -0.7748     1.6951     1.6951     0.0000
 13 H      0.6204     1.0000     0.3796     0.8966     0.8966     0.0000
 14 H      0.6349     1.0000     0.3651     0.8907     0.8907     0.0000
 15 O      8.7753     8.0000    -0.7753     1.7012     1.7012    -0.0000
 16 H      0.5987     1.0000     0.4013     0.8734     0.8734    -0.0000
 17 H      0.6305     1.0000     0.3695     0.8977     0.8977    -0.0000
 18 O      8.7250     8.0000    -0.7250     1.7602     1.7602     0.0000
 19 H      0.6001     1.0000     0.3999     0.8625     0.8625    -0.0000
 20 H      0.6385     1.0000     0.3615     0.8834     0.8834     0.0000

  Mayer bond orders larger than 0.100000
B(  0-O ,  1-H ) :   0.8905 B(  0-O ,  2-H ) :   0.8023 B(  3-O ,  4-H ) :   0.8687 
B(  3-O ,  5-H ) :   0.8537 B(  6-O ,  7-H ) :   0.8978 B(  6-O ,  8-H ) :   0.8476 
B(  9-O , 10-H ) :   0.8557 B(  9-O , 11-H ) :   0.8563 B( 12-O , 13-H ) :   0.8277 
B( 12-O , 14-H ) :   0.8728 B( 15-O , 16-H ) :   0.8279 B( 15-O , 17-H ) :   0.8477 
B( 18-O , 19-H ) :   0.8395 B( 18-O , 20-H ) :   0.8772 

-------
TIMINGS
-------

Total SCF time: 0 days 0 hours 0 min 18 sec 

Total time                  ....      18.526 sec
Sum of individual times     ....      18.241 sec  ( 98.5%)

Fock matrix formation       ....      17.749 sec  ( 95.8%)
Diagonalization             ....       0.113 sec  (  0.6%)
Density matrix formation    ....       0.013 sec  (  0.1%)
Population analysis         ....       0.023 sec  (  0.1%)
Initial guess               ....       0.167 sec  (  0.9%)
Orbital Transformation      ....       0.000 sec  (  0.0%)
Orbital Orthonormalization  ....       0.000 sec  (  0.0%)
DIIS solution               ....       0.041 sec  (  0.2%)
SOSCF solution              ....       0.056 sec  (  0.3%)


           ************************************************************
           *        Program running with 6 parallel MPI-processes     *
           *              working on a common directory               *
           ************************************************************

------------------------------------------------------------------------------
                                ORCA  MP2 
------------------------------------------------------------------------------

Freezing NCore=14 chemical core electrons
MP2 will be done in the AO integral direct mode
The Q1-step will be done using symmetric double matrices
Dimension of the basis                    ...  301
Memory devoted for MP2                    ... 8000 MB   
Memory needed for all in one shot         ...  523 MB
Number of MOs that can be treated together...   75      
MP2 density construction                  ... relaxed
The MP2 gradient is requested => amplitudes will be stored on disk
Total number of MOs              ...   28
Number of MOs treated per batch  ...    5 
Number of batches necessary      ...    1 
OPERATORS   0/  0 PASS   0
-----------------------------------------------
 MP2 CORRELATION ENERGY   :     -1.811312572 Eh
-----------------------------------------------


---------------------
MP2 DENSITY FORMATION
---------------------

Completing the external part of the density      ... done
Storing the unrelaxed density                    ... done

Calculating G(D)                                 ... done
Completing the Lagrangian                        ... done
Solving the Z-vector equations                   ... 

------------------------------------------------------------------------------
                           ORCA CP-SCF CALCULATION
------------------------------------------------------------------------------

Input orbitals are from        ... 12h2o.su.etal.mol0,2,3,4,5,6,11-orca.engrad-mp2.def2tzvp.frozencore.gbw
Input Perturbation             ... 12h2o.su.etal.mol0,2,3,4,5,6,11-orca.engrad-mp2.def2tzvp.frozencore.pin.tmp
Wavefunction output            ... 12h2o.su.etal.mol0,2,3,4,5,6,11-orca.engrad-mp2.def2tzvp.frozencore.pout.tmp
Perturbation mode              ... Real perturbation (singlet)
Solver                         ... POPLE
Max. number of iterations      ... 128
Convergence tolerance          ... 1.000e-08
Integral handling              ... Direct
Number of perturbations        ... 1
Number of operators            ... 1
Orbital ranges used for CP-SCF:
 Operator 0:  Orbitals   0... 34  to  35...300
Variables per vector in CP-SCF ... 9310
Number of vectors sought       ... 1
     CP-SCF ITERATION   0: 
     CP-SCF ITERATION   1:      0.000900506032
     CP-SCF ITERATION   2:      0.000023067325
     CP-SCF ITERATION   3:      0.000000913741
     CP-SCF ITERATION   4:      0.000000100992
     CP-SCF ITERATION   5:      0.000000009185
                                                 ... done
Finalizing the relaxed density                   ... done
Transforming P to the AO basis                   ... done
Storing the relaxed density                      ... done

------------------------------------
ENERGY WEIGHTED DENSITY FINALIZATION
------------------------------------

Gathering the parts of the W-matrix              ...                                                      done
Forming the Z-density                            ... done
Transforming Z to the AO basis                   ... done
Calculating G(Z)                                 ... done
Finalizing the W-matrix                          ...                                                      done
Transforming W to the AO basis and storing       ... done

                *********************************************
                * UNRELAXED MP2 DENSITY POPULATION ANALYSIS *
                *********************************************

------------------------------------------------------------------------------
                           ORCA POPULATION ANALYSIS
------------------------------------------------------------------------------
Input electron density              ... 12h2o.su.etal.mol0,2,3,4,5,6,11-orca.engrad-mp2.def2tzvp.frozencore.pmp2ur
BaseName (.gbw .S,...)              ... 12h2o.su.etal.mol0,2,3,4,5,6,11-orca.engrad-mp2.def2tzvp.frozencore

                    ********************************
                    * MULLIKEN POPULATION ANALYSIS *
                    ********************************

-----------------------
MULLIKEN ATOMIC CHARGES
-----------------------
   0 O :   -0.756271
   1 H :    0.340073
   2 H :    0.392586
   3 O :   -0.736272
   4 H :    0.368341
   5 H :    0.382518
   6 O :   -0.722063
   7 H :    0.330620
   8 H :    0.380507
   9 O :   -0.743314
  10 H :    0.387398
  11 H :    0.374310
  12 O :   -0.768559
  13 H :    0.375127
  14 H :    0.362179
  15 O :   -0.768075
  16 H :    0.397945
  17 H :    0.365302
  18 O :   -0.718439
  19 H :    0.397007
  20 H :    0.359081
Sum of atomic charges:   -0.0000000

--------------------------------
MULLIKEN REDUCED ORBITAL CHARGES
--------------------------------
  0 O s       :     3.803611  s :     3.803611
      pz      :     1.695397  p :     4.898102
      px      :     1.404333
      py      :     1.798372
      dz2     :     0.009251  d :     0.050546
      dxz     :     0.009673
      dyz     :     0.010940
      dx2y2   :     0.007795
      dxy     :     0.012887
      f0      :     0.000451  f :     0.004013
      f+1     :     0.000677
      f-1     :     0.000543
      f+2     :     0.000440
      f-2     :     0.000715
      f+3     :     0.000464
      f-3     :     0.000724
  1 H s       :     0.612324  s :     0.612324
      pz      :     0.017363  p :     0.047603
      px      :     0.014407
      py      :     0.015832
  2 H s       :     0.549160  s :     0.549160
      pz      :     0.011148  p :     0.058254
      px      :     0.032219
      py      :     0.014886
  3 O s       :     3.803056  s :     3.803056
      pz      :     1.723258  p :     4.877788
      px      :     1.778432
      py      :     1.376098
      dz2     :     0.009752  d :     0.051383
      dxz     :     0.010946
      dyz     :     0.010064
      dx2y2   :     0.008032
      dxy     :     0.012588
      f0      :     0.000459  f :     0.004046
      f+1     :     0.000548
      f-1     :     0.000699
      f+2     :     0.000431
      f-2     :     0.000714
      f+3     :     0.000731
      f-3     :     0.000464
  4 H s       :     0.585112  s :     0.585112
      pz      :     0.017522  p :     0.046548
      px      :     0.015346
      py      :     0.013680
  5 H s       :     0.575461  s :     0.575461
      pz      :     0.011242  p :     0.042020
      px      :     0.012851
      py      :     0.017928
  6 O s       :     3.804281  s :     3.804281
      pz      :     1.481527  p :     4.861734
      px      :     1.568395
      py      :     1.811812
      dz2     :     0.017034  d :     0.052002
      dxz     :     0.006672
      dyz     :     0.008376
      dx2y2   :     0.007563
      dxy     :     0.012357
      f0      :     0.000647  f :     0.004046
      f+1     :     0.000746
      f-1     :     0.000539
      f+2     :     0.000414
      f-2     :     0.000421
      f+3     :     0.000434
      f-3     :     0.000846
  7 H s       :     0.622637  s :     0.622637
      pz      :     0.018704  p :     0.046743
      px      :     0.013140
      py      :     0.014899
  8 H s       :     0.567936  s :     0.567936
      pz      :     0.010576  p :     0.051558
      px      :     0.024075
      py      :     0.016907
  9 O s       :     3.799132  s :     3.799132
      pz      :     1.568777  p :     4.888416
      px      :     1.845146
      py      :     1.474493
      dz2     :     0.016243  d :     0.051743
      dxz     :     0.007798
      dyz     :     0.007972
      dx2y2   :     0.009043
      dxy     :     0.010687
      f0      :     0.000573  f :     0.004023
      f+1     :     0.000494
      f-1     :     0.000819
      f+2     :     0.000435
      f-2     :     0.000405
      f+3     :     0.000816
      f-3     :     0.000481
 10 H s       :     0.567631  s :     0.567631
      pz      :     0.019420  p :     0.044971
      px      :     0.013685
      py      :     0.011867
 11 H s       :     0.582712  s :     0.582712
      pz      :     0.009786  p :     0.042978
      px      :     0.014344
      py      :     0.018848
 12 O s       :     3.802470  s :     3.802470
      pz      :     1.557965  p :     4.910719
      px      :     1.861816
      py      :     1.490938
      dz2     :     0.016294  d :     0.051402
      dxz     :     0.008047
      dyz     :     0.008332
      dx2y2   :     0.008480
      dxy     :     0.010250
      f0      :     0.000552  f :     0.003967
      f+1     :     0.000490
      f-1     :     0.000809
      f+2     :     0.000439
      f-2     :     0.000406
      f+3     :     0.000793
      f-3     :     0.000478
 13 H s       :     0.568890  s :     0.568890
      pz      :     0.010601  p :     0.055983
      px      :     0.016323
      py      :     0.029059
 14 H s       :     0.587191  s :     0.587191
      pz      :     0.023755  p :     0.050630
      px      :     0.014621
      py      :     0.012254
 15 O s       :     3.790700  s :     3.790700
      pz      :     1.601213  p :     4.922029
      px      :     1.491205
      py      :     1.829611
      dz2     :     0.016215  d :     0.051410
      dxz     :     0.008155
      dyz     :     0.007766
      dx2y2   :     0.008992
      dxy     :     0.010282
      f0      :     0.000539  f :     0.003936
      f+1     :     0.000818
      f-1     :     0.000486
      f+2     :     0.000436
      f-2     :     0.000409
      f+3     :     0.000472
      f-3     :     0.000776
 16 H s       :     0.552189  s :     0.552189
      pz      :     0.025263  p :     0.049866
      px      :     0.011452
      py      :     0.013151
 17 H s       :     0.579726  s :     0.579726
      pz      :     0.010710  p :     0.054972
      px      :     0.028293
      py      :     0.015969
 18 O s       :     3.792748  s :     3.792748
      pz      :     1.558747  p :     4.869122
      px      :     1.773878
      py      :     1.536497
      dz2     :     0.017230  d :     0.052565
      dxz     :     0.008047
      dyz     :     0.006658
      dx2y2   :     0.008124
      dxy     :     0.012506
      f0      :     0.000615  f :     0.004004
      f+1     :     0.000536
      f-1     :     0.000752
      f+2     :     0.000414
      f-2     :     0.000423
      f+3     :     0.000837
      f-3     :     0.000427
 19 H s       :     0.553720  s :     0.553720
      pz      :     0.024581  p :     0.049272
      px      :     0.012858
      py      :     0.011833
 20 H s       :     0.595575  s :     0.595575
      pz      :     0.011315  p :     0.045344
      px      :     0.015469
      py      :     0.018560


                     *******************************
                     * LOEWDIN POPULATION ANALYSIS *
                     *******************************

----------------------
LOEWDIN ATOMIC CHARGES
----------------------
   0 O :   -0.340595
   1 H :    0.150583
   2 H :    0.151205
   3 O :   -0.292618
   4 H :    0.164881
   5 H :    0.192312
   6 O :   -0.343834
   7 H :    0.154378
   8 H :    0.153722
   9 O :   -0.284215
  10 H :    0.181170
  11 H :    0.180779
  12 O :   -0.374648
  13 H :    0.143293
  14 H :    0.141968
  15 O :   -0.329347
  16 H :    0.156591
  17 H :    0.141376
  18 O :   -0.279683
  19 H :    0.160795
  20 H :    0.171888

-------------------------------
LOEWDIN REDUCED ORBITAL CHARGES
-------------------------------
  0 O s       :     3.457671  s :     3.457671
      pz      :     1.664253  p :     4.819977
      px      :     1.385750
      py      :     1.769974
      dz2     :     0.010337  d :     0.058175
      dxz     :     0.012496
      dyz     :     0.011523
      dx2y2   :     0.008868
      dxy     :     0.014952
      f0      :     0.000466  f :     0.004772
      f+1     :     0.000843
      f-1     :     0.000649
      f+2     :     0.000411
      f-2     :     0.001030
      f+3     :     0.000472
      f-3     :     0.000901
  1 H s       :     0.681422  s :     0.681422
      pz      :     0.066968  p :     0.167995
      px      :     0.046618
      py      :     0.054409
  2 H s       :     0.651094  s :     0.651094
      pz      :     0.034316  p :     0.197701
      px      :     0.114897
      py      :     0.048489
  3 O s       :     3.459128  s :     3.459128
      pz      :     1.677281  p :     4.768636
      px      :     1.734401
      py      :     1.356954
      dz2     :     0.011291  d :     0.060020
      dxz     :     0.011158
      dyz     :     0.012477
      dx2y2   :     0.009813
      dxy     :     0.015281
      f0      :     0.000478  f :     0.004834
      f+1     :     0.000658
      f-1     :     0.000860
      f+2     :     0.000409
      f-2     :     0.001010
      f+3     :     0.000943
      f-3     :     0.000476
  4 H s       :     0.667996  s :     0.667996
      pz      :     0.068074  p :     0.167123
      px      :     0.053675
      py      :     0.045374
  5 H s       :     0.655599  s :     0.655599
      pz      :     0.034159  p :     0.152089
      px      :     0.044343
      py      :     0.073587
  6 O s       :     3.462754  s :     3.462754
      pz      :     1.493378  p :     4.816740
      px      :     1.540155
      py      :     1.783206
      dz2     :     0.022161  d :     0.059459
      dxz     :     0.007560
      dyz     :     0.007788
      dx2y2   :     0.007548
      dxy     :     0.014401
      f0      :     0.000924  f :     0.004882
      f+1     :     0.001004
      f-1     :     0.000707
      f+2     :     0.000389
      f-2     :     0.000422
      f+3     :     0.000377
      f-3     :     0.001060
  7 H s       :     0.683940  s :     0.683940
      pz      :     0.080905  p :     0.161682
      px      :     0.037212
      py      :     0.043566
  8 H s       :     0.670559  s :     0.670559
      pz      :     0.030174  p :     0.175719
      px      :     0.086880
      py      :     0.058665
  9 O s       :     3.456356  s :     3.456356
      pz      :     1.532146  p :     4.762736
      px      :     1.779067
      py      :     1.451523
      dz2     :     0.020896  d :     0.060270
      dxz     :     0.006938
      dyz     :     0.009230
      dx2y2   :     0.010893
      dxy     :     0.012313
      f0      :     0.000782  f :     0.004853
      f+1     :     0.000597
      f-1     :     0.001167
      f+2     :     0.000412
      f-2     :     0.000416
      f+3     :     0.001028
      f-3     :     0.000452
 10 H s       :     0.656839  s :     0.656839
      pz      :     0.082727  p :     0.161991
      px      :     0.043201
      py      :     0.036063
 11 H s       :     0.661633  s :     0.661633
      pz      :     0.030003  p :     0.157588
      px      :     0.050224
      py      :     0.077360
 12 O s       :     3.461605  s :     3.461605
      pz      :     1.550473  p :     4.850563
      px      :     1.825613
      py      :     1.474477
      dz2     :     0.019858  d :     0.057750
      dxz     :     0.007091
      dyz     :     0.009617
      dx2y2   :     0.009569
      dxy     :     0.011616
      f0      :     0.000778  f :     0.004731
      f+1     :     0.000575
      f-1     :     0.001149
      f+2     :     0.000415
      f-2     :     0.000417
      f+3     :     0.000953
      f-3     :     0.000443
 13 H s       :     0.667224  s :     0.667224
      pz      :     0.031085  p :     0.189482
      px      :     0.053600
      py      :     0.104797
 14 H s       :     0.683463  s :     0.683463
      pz      :     0.091625  p :     0.174570
      px      :     0.044482
      py      :     0.038463
 15 O s       :     3.451844  s :     3.451844
      pz      :     1.571711  p :     4.815066
      px      :     1.470290
      py      :     1.773065
      dz2     :     0.019118  d :     0.057709
      dxz     :     0.008999
      dyz     :     0.006835
      dx2y2   :     0.010821
      dxy     :     0.011936
      f0      :     0.000738  f :     0.004728
      f+1     :     0.001136
      f-1     :     0.000589
      f+2     :     0.000411
      f-2     :     0.000418
      f+3     :     0.000453
      f-3     :     0.000983
 16 H s       :     0.665588  s :     0.665588
      pz      :     0.096581  p :     0.177820
      px      :     0.037929
      py      :     0.043310
 17 H s       :     0.671741  s :     0.671741
      pz      :     0.031948  p :     0.186883
      px      :     0.101235
      py      :     0.053701
 18 O s       :     3.450029  s :     3.450029
      pz      :     1.530658  p :     4.764107
      px      :     1.714032
      py      :     1.519417
      dz2     :     0.021516  d :     0.060625
      dxz     :     0.007406
      dyz     :     0.007180
      dx2y2   :     0.009329
      dxy     :     0.015194
      f0      :     0.000841  f :     0.004922
      f+1     :     0.000737
      f-1     :     0.000986
      f+2     :     0.000389
      f-2     :     0.000421
      f+3     :     0.001142
      f-3     :     0.000407
 19 H s       :     0.665523  s :     0.665523
      pz      :     0.094559  p :     0.173682
      px      :     0.042396
      py      :     0.036727
 20 H s       :     0.666874  s :     0.666874
      pz      :     0.031811  p :     0.161239
      px      :     0.055823
      py      :     0.073604


                      *****************************
                      * MAYER POPULATION ANALYSIS *
                      *****************************

  NA   - Mulliken gross atomic population
  ZA   - Total nuclear charge
  QA   - Mulliken gross atomic charge
  VA   - Mayer's total valence
  BVA  - Mayer's bonded valence
  FA   - Mayer's free valence

  ATOM       NA         ZA         QA         VA         BVA        FA
  0 O      8.7563     8.0000    -0.7563     2.0145     1.6210     0.3936
  1 H      0.6599     1.0000     0.3401     0.9049     0.8575     0.0474
  2 H      0.6074     1.0000     0.3926     0.8855     0.8393     0.0461
  3 O      8.7363     8.0000    -0.7363     2.0696     1.6775     0.3921
  4 H      0.6317     1.0000     0.3683     0.8839     0.8389     0.0450
  5 H      0.6175     1.0000     0.3825     0.8729     0.8262     0.0467
  6 O      8.7221     8.0000    -0.7221     2.0574     1.6690     0.3885
  7 H      0.6694     1.0000     0.3306     0.9111     0.8621     0.0490
  8 H      0.6195     1.0000     0.3805     0.8902     0.8455     0.0447
  9 O      8.7433     8.0000    -0.7433     2.0617     1.6700     0.3917
 10 H      0.6126     1.0000     0.3874     0.8710     0.8270     0.0440
 11 H      0.6257     1.0000     0.3743     0.8876     0.8405     0.0472
 12 O      8.7686     8.0000    -0.7686     2.0112     1.6165     0.3947
 13 H      0.6249     1.0000     0.3751     0.9044     0.8572     0.0472
 14 H      0.6378     1.0000     0.3622     0.8970     0.8507     0.0464
 15 O      8.7681     8.0000    -0.7681     2.0176     1.6235     0.3941
 16 H      0.6021     1.0000     0.3979     0.8796     0.8360     0.0437
 17 H      0.6347     1.0000     0.3653     0.9054     0.8573     0.0481
 18 O      8.7184     8.0000    -0.7184     2.0686     1.6810     0.3876
 19 H      0.6030     1.0000     0.3970     0.8683     0.8250     0.0433
 20 H      0.6409     1.0000     0.3591     0.8892     0.8427     0.0465

  Mayer bond orders larger than 0.100000
B(  0-O ,  1-H ) :   0.8496 B(  0-O ,  2-H ) :   0.7658 B(  3-O ,  4-H ) :   0.8300 
B(  3-O ,  5-H ) :   0.8137 B(  6-O ,  7-H ) :   0.8556 B(  6-O ,  8-H ) :   0.8103 
B(  9-O , 10-H ) :   0.8178 B(  9-O , 11-H ) :   0.8168 B( 12-O , 13-H ) :   0.7903 
B( 12-O , 14-H ) :   0.8331 B( 15-O , 16-H ) :   0.7919 B( 15-O , 17-H ) :   0.8087 
B( 18-O , 19-H ) :   0.8027 B( 18-O , 20-H ) :   0.8369 


                *******************************************
                * RELAXED MP2 DENSITY POPULATION ANALYSIS *
                *******************************************

------------------------------------------------------------------------------
                           ORCA POPULATION ANALYSIS
------------------------------------------------------------------------------
Input electron density              ... 12h2o.su.etal.mol0,2,3,4,5,6,11-orca.engrad-mp2.def2tzvp.frozencore.pmp2re
BaseName (.gbw .S,...)              ... 12h2o.su.etal.mol0,2,3,4,5,6,11-orca.engrad-mp2.def2tzvp.frozencore

                    ********************************
                    * MULLIKEN POPULATION ANALYSIS *
                    ********************************

-----------------------
MULLIKEN ATOMIC CHARGES
-----------------------
   0 O :   -0.731356
   1 H :    0.333729
   2 H :    0.369652
   3 O :   -0.714354
   4 H :    0.360947
   5 H :    0.374677
   6 O :   -0.704034
   7 H :    0.324377
   8 H :    0.364133
   9 O :   -0.718145
  10 H :    0.379566
  11 H :    0.364019
  12 O :   -0.743411
  13 H :    0.351632
  14 H :    0.349352
  15 O :   -0.734202
  16 H :    0.380855
  17 H :    0.345807
  18 O :   -0.691551
  19 H :    0.384610
  20 H :    0.353695
Sum of atomic charges:   -0.0000000

--------------------------------
MULLIKEN REDUCED ORBITAL CHARGES
--------------------------------
  0 O s       :     3.805563  s :     3.805563
      pz      :     1.684066  p :     4.873184
      px      :     1.396368
      py      :     1.792750
      dz2     :     0.009094  d :     0.048663
      dxz     :     0.009097
      dyz     :     0.010623
      dx2y2   :     0.007689
      dxy     :     0.012159
      f0      :     0.000449  f :     0.003946
      f+1     :     0.000658
      f-1     :     0.000535
      f+2     :     0.000440
      f-2     :     0.000695
      f+3     :     0.000462
      f-3     :     0.000707
  1 H s       :     0.617873  s :     0.617873
      pz      :     0.017485  p :     0.048397
      px      :     0.014434
      py      :     0.016478
  2 H s       :     0.571883  s :     0.571883
      pz      :     0.011884  p :     0.058465
      px      :     0.031155
      py      :     0.015426
  3 O s       :     3.806936  s :     3.806936
      pz      :     1.714703  p :     4.854193
      px      :     1.766542
      py      :     1.372948
      dz2     :     0.009547  d :     0.049252
      dxz     :     0.010687
      dyz     :     0.009470
      dx2y2   :     0.007773
      dxy     :     0.011775
      f0      :     0.000457  f :     0.003973
      f+1     :     0.000540
      f-1     :     0.000680
      f+2     :     0.000431
      f-2     :     0.000692
      f+3     :     0.000711
      f-3     :     0.000462
  4 H s       :     0.591811  s :     0.591811
      pz      :     0.017678  p :     0.047242
      px      :     0.015968
      py      :     0.013595
  5 H s       :     0.582785  s :     0.582785
      pz      :     0.012065  p :     0.042538
      px      :     0.013503
      py      :     0.016971
  6 O s       :     3.805470  s :     3.805470
      pz      :     1.474686  p :     4.844721
      px      :     1.565701
      py      :     1.804334
      dz2     :     0.015658  d :     0.049869
      dxz     :     0.006614
      dyz     :     0.008346
      dx2y2   :     0.007515
      dxy     :     0.011735
      f0      :     0.000628  f :     0.003973
      f+1     :     0.000724
      f-1     :     0.000529
      f+2     :     0.000415
      f-2     :     0.000420
      f+3     :     0.000435
      f-3     :     0.000823
  7 H s       :     0.628046  s :     0.628046
      pz      :     0.017927  p :     0.047577
      px      :     0.013761
      py      :     0.015889
  8 H s       :     0.583791  s :     0.583791
      pz      :     0.011211  p :     0.052075
      px      :     0.023566
      py      :     0.017298
  9 O s       :     3.802008  s :     3.802008
      pz      :     1.560459  p :     4.862565
      px      :     1.831654
      py      :     1.470451
      dz2     :     0.015081  d :     0.049624
      dxz     :     0.007847
      dyz     :     0.007695
      dx2y2   :     0.008783
      dxy     :     0.010219
      f0      :     0.000560  f :     0.003948
      f+1     :     0.000488
      f-1     :     0.000789
      f+2     :     0.000435
      f-2     :     0.000403
      f+3     :     0.000794
      f-3     :     0.000479
 10 H s       :     0.574919  s :     0.574919
      pz      :     0.018674  p :     0.045515
      px      :     0.014588
      py      :     0.012253
 11 H s       :     0.592395  s :     0.592395
      pz      :     0.010489  p :     0.043586
      px      :     0.015057
      py      :     0.018040
 12 O s       :     3.799214  s :     3.799214
      pz      :     1.553348  p :     4.890764
      px      :     1.853622
      py      :     1.483793
      dz2     :     0.015239  d :     0.049531
      dxz     :     0.008085
      dyz     :     0.008095
      dx2y2   :     0.008263
      dxy     :     0.009850
      f0      :     0.000541  f :     0.003901
      f+1     :     0.000484
      f-1     :     0.000782
      f+2     :     0.000439
      f-2     :     0.000405
      f+3     :     0.000774
      f-3     :     0.000477
 13 H s       :     0.592026  s :     0.592026
      pz      :     0.011324  p :     0.056342
      px      :     0.016896
      py      :     0.028122
 14 H s       :     0.599397  s :     0.599397
      pz      :     0.023053  p :     0.051251
      px      :     0.015558
      py      :     0.012640
 15 O s       :     3.787181  s :     3.787181
      pz      :     1.597214  p :     4.893429
      px      :     1.485878
      py      :     1.810336
      dz2     :     0.015251  d :     0.049724
      dxz     :     0.007957
      dyz     :     0.007809
      dx2y2   :     0.008800
      dxy     :     0.009906
      f0      :     0.000527  f :     0.003868
      f+1     :     0.000792
      f-1     :     0.000480
      f+2     :     0.000435
      f-2     :     0.000407
      f+3     :     0.000470
      f-3     :     0.000757
 16 H s       :     0.568744  s :     0.568744
      pz      :     0.024634  p :     0.050400
      px      :     0.011767
      py      :     0.013999
 17 H s       :     0.598724  s :     0.598724
      pz      :     0.011455  p :     0.055469
      px      :     0.027412
      py      :     0.016602
 18 O s       :     3.793028  s :     3.793028
      pz      :     1.556231  p :     4.843979
      px      :     1.757945
      py      :     1.529804
      dz2     :     0.016039  d :     0.050613
      dxz     :     0.008043
      dyz     :     0.006629
      dx2y2   :     0.008078
      dxy     :     0.011825
      f0      :     0.000599  f :     0.003930
      f+1     :     0.000527
      f-1     :     0.000730
      f+2     :     0.000414
      f-2     :     0.000421
      f+3     :     0.000812
      f-3     :     0.000427
 19 H s       :     0.565738  s :     0.565738
      pz      :     0.023750  p :     0.049652
      px      :     0.013644
      py      :     0.012258
 20 H s       :     0.600300  s :     0.600300
      pz      :     0.012020  p :     0.046005
      px      :     0.015986
      py      :     0.017998


                     *******************************
                     * LOEWDIN POPULATION ANALYSIS *
                     *******************************

----------------------
LOEWDIN ATOMIC CHARGES
----------------------
   0 O :   -0.337864
   1 H :    0.152609
   2 H :    0.144002
   3 O :   -0.287287
   4 H :    0.166321
   5 H :    0.192943
   6 O :   -0.345074
   7 H :    0.155693
   8 H :    0.149133
   9 O :   -0.277391
  10 H :    0.182217
  11 H :    0.180324
  12 O :   -0.374005
  13 H :    0.136308
  14 H :    0.138647
  15 O :   -0.322408
  16 H :    0.151722
  17 H :    0.135319
  18 O :   -0.273013
  19 H :    0.157808
  20 H :    0.173996

-------------------------------
LOEWDIN REDUCED ORBITAL CHARGES
-------------------------------
  0 O s       :     3.459277  s :     3.459277
      pz      :     1.658719  p :     4.816261
      px      :     1.389107
      py      :     1.768434
      dz2     :     0.010378  d :     0.057517
      dxz     :     0.012141
      dyz     :     0.011455
      dx2y2   :     0.008873
      dxy     :     0.014670
      f0      :     0.000469  f :     0.004810
      f+1     :     0.000855
      f-1     :     0.000650
      f+2     :     0.000412
      f-2     :     0.001031
      f+3     :     0.000476
      f-3     :     0.000916
  1 H s       :     0.679240  s :     0.679240
      pz      :     0.066943  p :     0.168151
      px      :     0.046173
      py      :     0.055036
  2 H s       :     0.658120  s :     0.658120
      pz      :     0.034916  p :     0.197878
      px      :     0.113901
      py      :     0.049062
  3 O s       :     3.461092  s :     3.461092
      pz      :     1.672615  p :     4.762309
      px      :     1.727666
      py      :     1.362029
      dz2     :     0.011265  d :     0.059032
      dxz     :     0.011164
      dyz     :     0.012126
      dx2y2   :     0.009606
      dxy     :     0.014871
      f0      :     0.000482  f :     0.004853
      f+1     :     0.000658
      f-1     :     0.000866
      f+2     :     0.000410
      f-2     :     0.001011
      f+3     :     0.000948
      f-3     :     0.000478
  4 H s       :     0.666770  s :     0.666770
      pz      :     0.068179  p :     0.166909
      px      :     0.054141
      py      :     0.044588
  5 H s       :     0.655111  s :     0.655111
      pz      :     0.034871  p :     0.151946
      px      :     0.044929
      py      :     0.072145
  6 O s       :     3.464216  s :     3.464216
      pz      :     1.495191  p :     4.817664
      px      :     1.541864
      py      :     1.780609
      dz2     :     0.021390  d :     0.058292
      dxz     :     0.007412
      dyz     :     0.007810
      dx2y2   :     0.007516
      dxy     :     0.014163
      f0      :     0.000924  f :     0.004902
      f+1     :     0.001013
      f-1     :     0.000705
      f+2     :     0.000391
      f-2     :     0.000422
      f+3     :     0.000377
      f-3     :     0.001071
  7 H s       :     0.682136  s :     0.682136
      pz      :     0.080226  p :     0.162171
      px      :     0.037475
      py      :     0.044471
  8 H s       :     0.674742  s :     0.674742
      pz      :     0.030526  p :     0.176125
      px      :     0.086447
      py      :     0.059152
  9 O s       :     3.457682  s :     3.457682
      pz      :     1.531139  p :     4.755521
      px      :     1.769703
      py      :     1.454679
      dz2     :     0.020404  d :     0.059316
      dxz     :     0.007016
      dyz     :     0.009011
      dx2y2   :     0.010781
      dxy     :     0.012104
      f0      :     0.000782  f :     0.004872
      f+1     :     0.000598
      f-1     :     0.001174
      f+2     :     0.000414
      f-2     :     0.000415
      f+3     :     0.001034
      f-3     :     0.000454
 10 H s       :     0.656142  s :     0.656142
      pz      :     0.081775  p :     0.161642
      px      :     0.043957
      py      :     0.035910
 11 H s       :     0.662171  s :     0.662171
      pz      :     0.030388  p :     0.157505
      px      :     0.050887
      py      :     0.076230
 12 O s       :     3.462566  s :     3.462566
      pz      :     1.551244  p :     4.849666
      px      :     1.821754
      py      :     1.476668
      dz2     :     0.019419  d :     0.057009
      dxz     :     0.007154
      dyz     :     0.009417
      dx2y2   :     0.009503
      dxy     :     0.011516
      f0      :     0.000779  f :     0.004763
      f+1     :     0.000576
      f-1     :     0.001163
      f+2     :     0.000417
      f-2     :     0.000416
      f+3     :     0.000967
      f-3     :     0.000446
 13 H s       :     0.673429  s :     0.673429
      pz      :     0.031619  p :     0.190263
      px      :     0.054227
      py      :     0.104417
 14 H s       :     0.686168  s :     0.686168
      pz      :     0.091095  p :     0.175185
      px      :     0.045352
      py      :     0.038738
 15 O s       :     3.452469  s :     3.452469
      pz      :     1.573152  p :     4.807975
      px      :     1.472781
      py      :     1.762042
      dz2     :     0.018787  d :     0.057204
      dxz     :     0.008838
      dyz     :     0.006898
      dx2y2   :     0.010824
      dxy     :     0.011857
      f0      :     0.000739  f :     0.004760
      f+1     :     0.001148
      f-1     :     0.000591
      f+2     :     0.000413
      f-2     :     0.000417
      f+3     :     0.000456
      f-3     :     0.000996
 16 H s       :     0.670123  s :     0.670123
      pz      :     0.096088  p :     0.178154
      px      :     0.038129
      py      :     0.043937
 17 H s       :     0.676905  s :     0.676905
      pz      :     0.032577  p :     0.187775
      px      :     0.100872
      py      :     0.054327
 18 O s       :     3.450937  s :     3.450937
      pz      :     1.532137  p :     4.757363
      px      :     1.704390
      py      :     1.520835
      dz2     :     0.020981  d :     0.059773
      dxz     :     0.007456
      dyz     :     0.007072
      dx2y2   :     0.009378
      dxy     :     0.014886
      f0      :     0.000844  f :     0.004941
      f+1     :     0.000738
      f-1     :     0.000992
      f+2     :     0.000391
      f-2     :     0.000421
      f+3     :     0.001148
      f-3     :     0.000408
 19 H s       :     0.668399  s :     0.668399
      pz      :     0.093666  p :     0.173793
      px      :     0.043076
      py      :     0.037051
 20 H s       :     0.664739  s :     0.664739
      pz      :     0.032236  p :     0.161265
      px      :     0.056187
      py      :     0.072842


                      *****************************
                      * MAYER POPULATION ANALYSIS *
                      *****************************

  NA   - Mulliken gross atomic population
  ZA   - Total nuclear charge
  QA   - Mulliken gross atomic charge
  VA   - Mayer's total valence
  BVA  - Mayer's bonded valence
  FA   - Mayer's free valence

  ATOM       NA         ZA         QA         VA         BVA        FA
  0 O      8.7314     8.0000    -0.7314     2.0379     1.6499     0.3880
  1 H      0.6663     1.0000     0.3337     0.9090     0.8615     0.0475
  2 H      0.6303     1.0000     0.3697     0.9131     0.8678     0.0453
  3 O      8.7144     8.0000    -0.7144     2.1080     1.7222     0.3858
  4 H      0.6391     1.0000     0.3609     0.8896     0.8447     0.0449
  5 H      0.6253     1.0000     0.3747     0.8813     0.8348     0.0466
  6 O      8.7040     8.0000    -0.7040     2.0689     1.6857     0.3832
  7 H      0.6756     1.0000     0.3244     0.9161     0.8672     0.0490
  8 H      0.6359     1.0000     0.3641     0.9134     0.8692     0.0442
  9 O      8.7181     8.0000    -0.7181     2.1042     1.7187     0.3855
 10 H      0.6204     1.0000     0.3796     0.8781     0.8342     0.0439
 11 H      0.6360     1.0000     0.3640     0.9013     0.8548     0.0465
 12 O      8.7434     8.0000    -0.7434     2.0286     1.6394     0.3892
 13 H      0.6484     1.0000     0.3516     0.9361     0.8898     0.0462
 14 H      0.6506     1.0000     0.3494     0.9137     0.8676     0.0462
 15 O      8.7342     8.0000    -0.7342     2.0577     1.6698     0.3879
 16 H      0.6191     1.0000     0.3809     0.9031     0.8600     0.0431
 17 H      0.6542     1.0000     0.3458     0.9325     0.8853     0.0472
 18 O      8.6916     8.0000    -0.6916     2.1060     1.7244     0.3816
 19 H      0.6154     1.0000     0.3846     0.8851     0.8420     0.0431
 20 H      0.6463     1.0000     0.3537     0.8931     0.8465     0.0466

  Mayer bond orders larger than 0.100000
B(  0-O ,  1-H ) :   0.8522 B(  0-O ,  2-H ) :   0.7655 B(  3-O ,  4-H ) :   0.8334 
B(  3-O ,  5-H ) :   0.8171 B(  6-O ,  7-H ) :   0.8585 B(  6-O ,  8-H ) :   0.8145 
B(  9-O , 10-H ) :   0.8215 B(  9-O , 11-H ) :   0.8197 B( 12-O , 13-H ) :   0.7909 
B( 12-O , 14-H ) :   0.8383 B( 15-O , 16-H ) :   0.7960 B( 15-O , 17-H ) :   0.8093 
B( 18-O , 19-H ) :   0.8072 B( 18-O , 20-H ) :   0.8397 


----------------------------------
MP2 DERIVATIVE INTEGRAL GENERATION
----------------------------------


Input Wavefunction Amplitudes       ... 12h2o.su.etal.mol0,2,3,4,5,6,11-orca.engrad-mp2.def2tzvp.frozencore.mp2tsaa.tmp
Input Correlated Electron Density   ... 12h2o.su.etal.mol0,2,3,4,5,6,11-orca.engrad-mp2.def2tzvp.frozencore.pmp2re
Input Energy Weighted Density       ... 12h2o.su.etal.mol0,2,3,4,5,6,11-orca.engrad-mp2.def2tzvp.frozencore.wmp2.tmp
Input SCF Electron Density          ... 12h2o.su.etal.mol0,2,3,4,5,6,11-orca.engrad-mp2.def2tzvp.frozencore.scfp

One-Electron Terms    ...
                        ... One-Electron Terms done
Prescreening matrices              ... done

Batch handling in the gradient evaluation:
Memory available                      ... 8000.0 MB
Memory per occupied orbital in Q2     ...   19.4 MB
Memory per occupied orbital in Q3     ...    0.1 MB
Total memory requirement per |i>      ...   19.5 MB
Max. Number of orbitals possible      ...    410
Number of orbitals treated per batch  ...     28
Number of batches to be done          ...      1
Batch   0: i=    7 ...    34

---------------------------------------
MP2 TOTAL ENERGY:     -534.247378143 Eh
---------------------------------------

The final MP2 gradient
  0:   0.00593828  -0.00595992   0.00193524
  1:   0.00108527  -0.00016628  -0.00067254
  2:  -0.01450081   0.00562432  -0.00251265
  3:  -0.00678311  -0.02559522   0.00496725
  4:  -0.00264017  -0.00032141   0.00270445
  5:   0.00703205   0.02573278  -0.00263951
  6:  -0.00017696  -0.00062694  -0.00992591
  7:  -0.00302720   0.00203189   0.01015048
  8:   0.00380199  -0.00090108  -0.00256770
  9:   0.01268386   0.01369235   0.00878014
 10:   0.00099206   0.00011257  -0.00586865
 11:  -0.00758193  -0.01266142   0.00081370
 12:   0.00085452  -0.00205546   0.00568176
 13:   0.00082203   0.00729360  -0.00156091
 14:   0.00214318  -0.00366470  -0.00855166
 15:   0.00663746  -0.00647724   0.00414010
 16:   0.00161795   0.00254901  -0.00292235
 17:  -0.01447397   0.00367931  -0.00141740
 18:   0.01013939   0.00721238   0.00269184
 19:   0.00001372  -0.00139021  -0.00165285
 20:  -0.00457762  -0.00810833  -0.00157284

-----------------------------------
NORM OF THE MP2 GRADIENT:  0.059043
-----------------------------------

-------------------------   --------------------
FINAL SINGLE POINT ENERGY      -534.247378142806
-------------------------   --------------------


                            ***************************************
                            *     ORCA property calculations      *
                            ***************************************

                                    ---------------------
                                    Active property flags
                                    ---------------------
   (+) Dipole Moment


------------------------------------------------------------------------------
                       ORCA ELECTRIC PROPERTIES CALCULATION
------------------------------------------------------------------------------

Dipole Moment Calculation                       ... on
Quadrupole Moment Calculation                   ... off
Polarizability Calculation                      ... off
GBWName                                         ... 12h2o.su.etal.mol0,2,3,4,5,6,11-orca.engrad-mp2.def2tzvp.frozencore.gbw
Electron density file                           ... 12h2o.su.etal.mol0,2,3,4,5,6,11-orca.engrad-mp2.def2tzvp.frozencore.scfp
The origin for moment calculation is the CENTER OF MASS  = ( 0.526142,  0.284374  0.000184)

-------------
DIPOLE MOMENT
-------------
                                X             Y             Z
Electronic contribution:     -0.16401       0.23113       0.01643
Nuclear contribution   :     -0.19491       0.42145      -0.77428
                        -----------------------------------------
Total Dipole Moment    :     -0.35893       0.65258      -0.75785
                        -----------------------------------------
Magnitude (a.u.)       :      1.06255
Magnitude (Debye)      :      2.70080



--------------------
Rotational spectrum 
--------------------
 
Rotational constants in cm-1:     0.053368     0.020790     0.017097 
Rotational constants in MHz :  1599.944119   623.255948   512.550070 

 Dipole components along the rotational axes: 
x,y,z [a.u.] :    -0.391386     0.716212    -0.680353 
x,y,z [Debye]:    -0.994824     1.820465    -1.729321 

 

                         *** MP2 UNRELAXED DENSITY ***

------------------------------------------------------------------------------
                       ORCA ELECTRIC PROPERTIES CALCULATION
------------------------------------------------------------------------------

Dipole Moment Calculation                       ... on
Quadrupole Moment Calculation                   ... off
Polarizability Calculation                      ... off
GBWName                                         ... 12h2o.su.etal.mol0,2,3,4,5,6,11-orca.engrad-mp2.def2tzvp.frozencore.gbw
Electron density file                           ... 12h2o.su.etal.mol0,2,3,4,5,6,11-orca.engrad-mp2.def2tzvp.frozencore.pmp2ur
The origin for moment calculation is the CENTER OF MASS  = ( 0.526142,  0.284374  0.000184)

-------------
DIPOLE MOMENT
-------------
                                X             Y             Z
Electronic contribution:     -0.16351       0.22912       0.02549
Nuclear contribution   :     -0.19491       0.42145      -0.77428
                        -----------------------------------------
Total Dipole Moment    :     -0.35842       0.65057      -0.74879
                        -----------------------------------------
Magnitude (a.u.)       :      1.05470
Magnitude (Debye)      :      2.68083



--------------------
Rotational spectrum 
--------------------
 
Rotational constants in cm-1:     0.053368     0.020790     0.017097 
Rotational constants in MHz :  1599.944119   623.255948   512.550070 

 Dipole components along the rotational axes: 
x,y,z [a.u.] :    -0.384387     0.713638    -0.674802 
x,y,z [Debye]:    -0.977033     1.813923    -1.715211 

 

                           *** MP2 RELAXED DENSITY ***

------------------------------------------------------------------------------
                       ORCA ELECTRIC PROPERTIES CALCULATION
------------------------------------------------------------------------------

Dipole Moment Calculation                       ... on
Quadrupole Moment Calculation                   ... off
Polarizability Calculation                      ... off
GBWName                                         ... 12h2o.su.etal.mol0,2,3,4,5,6,11-orca.engrad-mp2.def2tzvp.frozencore.gbw
Electron density file                           ... 12h2o.su.etal.mol0,2,3,4,5,6,11-orca.engrad-mp2.def2tzvp.frozencore.pmp2re
The origin for moment calculation is the CENTER OF MASS  = ( 0.526142,  0.284374  0.000184)

-------------
DIPOLE MOMENT
-------------
                                X             Y             Z
Electronic contribution:     -0.17141       0.23243       0.05162
Nuclear contribution   :     -0.19491       0.42145      -0.77428
                        -----------------------------------------
Total Dipole Moment    :     -0.36633       0.65388      -0.72266
                        -----------------------------------------
Magnitude (a.u.)       :      1.04114
Magnitude (Debye)      :      2.64638



--------------------
Rotational spectrum 
--------------------
 
Rotational constants in cm-1:     0.053368     0.020790     0.017097 
Rotational constants in MHz :  1599.944119   623.255948   512.550070 

 Dipole components along the rotational axes: 
x,y,z [a.u.] :    -0.360978     0.718617    -0.661261 
x,y,z [Debye]:    -0.917534     1.826579    -1.680793 

 

Timings for individual modules:

Sum of individual times         ...      114.438 sec (=   1.907 min)
GTO integral calculation        ...        1.011 sec (=   0.017 min)   0.9 %
SCF iterations                  ...       19.216 sec (=   0.320 min)  16.8 %
MP2 module                      ...       94.211 sec (=   1.570 min)  82.3 %
                             ****ORCA TERMINATED NORMALLY****
TOTAL RUN TIME: 0 days 0 hours 1 minutes 55 seconds 448 msec
