
                                 *****************
                                 * O   R   C   A *
                                 *****************

           --- An Ab Initio, DFT and Semiempirical electronic structure package ---

                  #######################################################
                  #                        -***-                        #
                  #          Department of theory and spectroscopy      #
                  #               Directorship: Frank Neese             #
                  #        Max Planck Institute fuer Kohlenforschung    #
                  #                Kaiser Wilhelm Platz 1               #
                  #                 D-45470 Muelheim/Ruhr               #
                  #                      Germany                        #
                  #                                                     #
                  #                  All rights reserved                #
                  #                        -***-                        #
                  #######################################################


                         Program Version 4.2.0 -  RELEASE  -


 With contributions from (in alphabetic order):
   Daniel Aravena         : Magnetic Suceptibility
   Michael Atanasov       : Ab Initio Ligand Field Theory (pilot matlab implementation)
   Alexander A. Auer      : GIAO ZORA, VPT2
   Ute Becker             : Parallelization
   Giovanni Bistoni       : ED, misc. LED, open-shell LED, HFLED
   Martin Brehm           : Molecular dynamics
   Dmytro Bykov           : SCF Hessian
   Vijay G. Chilkuri      : MRCI spin determinant printing, contributions to CSF-ICE
   Dipayan Datta          : RHF DLPNO-CCSD density
   Achintya Kumar Dutta   : EOM-CC, STEOM-CC
   Dmitry Ganyushin       : Spin-Orbit,Spin-Spin,Magnetic field MRCI
   Miquel Garcia          : C-PCM Hessian, Gaussian charge scheme
   Yang Guo               : DLPNO-NEVPT2, CIM, IAO-localization
   Andreas Hansen         : Spin unrestricted coupled pair/coupled cluster methods
   Benjamin Helmich-Paris : CASSCF linear response (MC-RPA)
   Lee Huntington         : MR-EOM, pCC
   Robert Izsak           : Overlap fitted RIJCOSX, COSX-SCS-MP3, EOM
   Christian Kollmar      : KDIIS, OOCD, Brueckner-CCSD(T), CCSD density
   Simone Kossmann        : Meta GGA functionals, TD-DFT gradient, OOMP2, MP2 Hessian
   Martin Krupicka        : AUTO-CI
   Lucas Lang             : DCDCAS
   Dagmar Lenk            : GEPOL surface, SMD
   Dimitrios Liakos       : Extrapolation schemes; Compound Job, initial MDCI parallelization
   Dimitrios Manganas     : Further ROCIS development; embedding schemes
   Dimitrios Pantazis     : SARC Basis sets
   Taras Petrenko         : DFT Hessian,TD-DFT gradient, ASA, ECA, R-Raman, ABS, FL, XAS/XES, NRVS
   Peter Pinski           : DLPNO-MP2, DLPNO-MP2 Gradient
   Christoph Reimann      : Effective Core Potentials
   Marius Retegan         : Local ZFS, SOC
   Christoph Riplinger    : Optimizer, TS searches, QM/MM, DLPNO-CCSD(T), (RO)-DLPNO pert. Triples
   Tobias Risthaus        : Range-separated hybrids, TD-DFT gradient, RPA, STAB
   Michael Roemelt        : Original ROCIS implementation
   Masaaki Saitow         : Open-shell DLPNO-CCSD energy and density
   Barbara Sandhoefer     : DKH picture change effects
   Avijit Sen             : IP-ROCIS
   Kantharuban Sivalingam : CASSCF convergence, NEVPT2, FIC-MRCI
   Bernardo de Souza      : ESD, SOC TD-DFT
   Georgi Stoychev        : AutoAux, RI-MP2 NMR
   Willem Van den Heuvel  : Paramagnetic NMR
   Boris Wezisla          : Elementary symmetry handling
   Frank Wennmohs         : Technical directorship


 We gratefully acknowledge several colleagues who have allowed us to
 interface, adapt or use parts of their codes:
   Stefan Grimme, W. Hujo, H. Kruse,             : VdW corrections, initial TS optimization,
                  C. Bannwarth                     DFT functionals, gCP, sTDA/sTD-DF
   Ed Valeev, F. Pavosevic, A. Kumar             : LibInt (2-el integral package), F12 methods
   Garnet Chan, S. Sharma, J. Yang, R. Olivares  : DMRG
   Ulf Ekstrom                                   : XCFun DFT Library
   Mihaly Kallay                                 : mrcc  (arbitrary order and MRCC methods)
   Andreas Klamt, Michael Diedenhofen            : otool_cosmo (COSMO solvation model)
   Jiri Pittner, Ondrej Demel                    : Mk-CCSD
   Frank Weinhold                                : gennbo (NPA and NBO analysis)
   Christopher J. Cramer and Donald G. Truhlar   : smd solvation model
   Lars Goerigk                                  : TD-DFT with DH, B97 family of functionals
   V. Asgeirsson, H. Jonsson                     : NEB implementation
   FAccTs GmbH                                   : IRC, NEB, NEB-TS, Multilevel, MM, QM/MM, CI optimization
   S Lehtola, MJT Oliveira, MAL Marques          : LibXC Library


 Your calculation uses the libint2 library for the computation of 2-el integrals
 For citations please refer to: http://libint.valeyev.net

 Your ORCA version has been built with support for libXC version: 4.2.3
 For citations please refer to: https://tddft.org/programs/libxc/

 This ORCA versions uses:
   CBLAS   interface :  Fast vector & matrix operations
   LAPACKE interface :  Fast linear algebra routines
   SCALAPACK package :  Parallel linear algebra routines


----- Orbital basis set information -----
Your calculation utilizes the basis: def2-TZVP
   F. Weigend and R. Ahlrichs, Phys. Chem. Chem. Phys. 7, 3297 (2005).

================================================================================
                                        WARNINGS
                       Please study these warnings very carefully!
================================================================================


WARNING: The frozen-core approximation for MP2-gradient calculations is turned on by default.

INFO   : the flag for use of LIBINT has been found!

================================================================================
                                       INPUT FILE
================================================================================
NAME = 12h2o.su.etal.mol1,2,6,7-orca.engrad-mp2.def2tzvp.frozencore.inp
|  1> # 12h2o.su.etal.mol1,2,6,7
|  2> ! MP2 def2-TZVP EnGrad TightSCF
|  3> 
|  4> %pal
|  5>     nprocs 6
|  6> end
|  7> 
|  8> %maxcore 8000
|  9> 
| 10> %scf
| 11>     ConvForced true
| 12> end
| 13> 
| 14> *xyz 0 1
| 15> O  -1.794470000  -0.923410000   2.768350000
| 16> H  -2.338250000  -1.359750000   3.430940000
| 17> H  -0.879480000  -1.303000000   2.865760000
| 18> O   0.923410000  -1.794470000  -2.768350000
| 19> H   1.359750000  -2.338250000  -3.430940000
| 20> H   1.303000000  -0.879480000  -2.865760000
| 21> O   1.737840000   0.885520000  -0.052730000
| 22> H   2.090180000   1.032320000   0.841890000
| 23> H   0.839590000   1.284090000  -0.017130000
| 24> O  -1.737840000  -0.885520000  -0.052730000
| 25> H  -2.090180000  -1.032320000   0.841890000
| 26> H  -0.839590000  -1.284090000  -0.017130000
| 27> *
| 28> 
| 29>                          ****END OF INPUT****
================================================================================

                     *******************************
                     * Energy+Gradient Calculation *
                     *******************************

---------------------------------
CARTESIAN COORDINATES (ANGSTROEM)
---------------------------------
  O     -1.794470   -0.923410    2.768350
  H     -2.338250   -1.359750    3.430940
  H     -0.879480   -1.303000    2.865760
  O      0.923410   -1.794470   -2.768350
  H      1.359750   -2.338250   -3.430940
  H      1.303000   -0.879480   -2.865760
  O      1.737840    0.885520   -0.052730
  H      2.090180    1.032320    0.841890
  H      0.839590    1.284090   -0.017130
  O     -1.737840   -0.885520   -0.052730
  H     -2.090180   -1.032320    0.841890
  H     -0.839590   -1.284090   -0.017130

----------------------------
CARTESIAN COORDINATES (A.U.)
----------------------------
  NO LB      ZA    FRAG     MASS         X           Y           Z
   0 O     8.0000    0    15.999   -3.391057   -1.744992    5.231423
   1 H     1.0000    0     1.008   -4.418652   -2.569555    6.483537
   2 H     1.0000    0     1.008   -1.661976   -2.462313    5.415502
   3 O     8.0000    0    15.999    1.744992   -3.391057   -5.231423
   4 H     1.0000    0     1.008    2.569555   -4.418652   -6.483537
   5 H     1.0000    0     1.008    2.462313   -1.661976   -5.415502
   6 O     8.0000    0    15.999    3.284042    1.673390   -0.099645
   7 H     1.0000    0     1.008    3.949868    1.950802    1.590942
   8 H     1.0000    0     1.008    1.586595    2.426578   -0.032371
   9 O     8.0000    0    15.999   -3.284042   -1.673390   -0.099645
  10 H     1.0000    0     1.008   -3.949868   -1.950802    1.590942
  11 H     1.0000    0     1.008   -1.586595   -2.426578   -0.032371

--------------------------------
INTERNAL COORDINATES (ANGSTROEM)
--------------------------------
 O      0   0   0     0.000000000000     0.00000000     0.00000000
 H      1   0   0     0.961828878803     0.00000000     0.00000000
 H      1   2   0     0.995381322057   106.21731035     0.00000000
 O      3   1   2     5.935920367146   102.58474291   140.89009172
 H      4   3   1     0.961828878803   146.97742434   224.01286022
 H      4   3   1     0.995381322057    97.62005672    87.72090689
 O      6   4   3     3.349245975813   116.85538783    13.08934280
 H      7   6   4     0.972645187106   154.03893681    55.84186962
 H      7   6   4     0.983350632989    97.20424340   272.32842926
 O      1   2   3     2.821902722526   134.92023192   114.47749497
 H     10   1   2     0.972645187106    21.75017499    16.91177088
 H     10   1   2     0.983350632989    88.66470709   242.75499327

---------------------------
INTERNAL COORDINATES (A.U.)
---------------------------
 O      0   0   0     0.000000000000     0.00000000     0.00000000
 H      1   0   0     1.817593168635     0.00000000     0.00000000
 H      1   2   0     1.880998097508   106.21731035     0.00000000
 O      3   1   2    11.217263846671   102.58474291   140.89009172
 H      4   3   1     1.817593168635   146.97742434   224.01286022
 H      4   3   1     1.880998097508    97.62005672    87.72090689
 O      6   4   3     6.329157649425   116.85538783    13.08934280
 H      7   6   4     1.838033029106   154.03893681    55.84186962
 H      7   6   4     1.858263389967    97.20424340   272.32842926
 O      1   2   3     5.332623322141   134.92023192   114.47749497
 H     10   1   2     1.838033029106    21.75017499    16.91177088
 H     10   1   2     1.858263389967    88.66470709   242.75499327

---------------------
BASIS SET INFORMATION
---------------------
There are 2 groups of distinct atoms

 Group   1 Type O   : 11s6p2d1f contracted to 5s3p2d1f pattern {62111/411/11/1}
 Group   2 Type H   : 5s1p contracted to 3s1p pattern {311/1}

Atom   0O    basis set group =>   1
Atom   1H    basis set group =>   2
Atom   2H    basis set group =>   2
Atom   3O    basis set group =>   1
Atom   4H    basis set group =>   2
Atom   5H    basis set group =>   2
Atom   6O    basis set group =>   1
Atom   7H    basis set group =>   2
Atom   8H    basis set group =>   2
Atom   9O    basis set group =>   1
Atom  10H    basis set group =>   2
Atom  11H    basis set group =>   2


           ************************************************************
           *        Program running with 6 parallel MPI-processes     *
           *              working on a common directory               *
           ************************************************************
------------------------------------------------------------------------------
                           ORCA GTO INTEGRAL CALCULATION
------------------------------------------------------------------------------

                         BASIS SET STATISTICS AND STARTUP INFO

 # of primitive gaussian shells          ...  128
 # of primitive gaussian functions       ...  248
 # of contracted shells                  ...   76
 # of contracted basis functions         ...  172
 Highest angular momentum                ...    3
 Maximum contraction depth               ...    6
 Integral package used                   ... LIBINT
 Integral threshhold            Thresh   ...  2.500e-11
 Primitive cut-off              TCut     ...  2.500e-12


------------------------------ INTEGRAL EVALUATION ----------------------------


 * One electron integrals 
 Pre-screening matrix                    ... done
 Shell pair data                         ... done (   0.001 sec)



           ************************************************************
           *        Program running with 6 parallel MPI-processes     *
           *              working on a common directory               *
           ************************************************************
-------------------------------------------------------------------------------
                                 ORCA SCF
-------------------------------------------------------------------------------

------------
SCF SETTINGS
------------
Hamiltonian:
 Ab initio Hamiltonian  Method          .... Hartree-Fock(GTOs)


General Settings:
 Integral files         IntName         .... 12h2o.su.etal.mol1,2,6,7-orca.engrad-mp2.def2tzvp.frozencore
 Hartree-Fock type      HFTyp           .... RHF
 Total Charge           Charge          ....    0
 Multiplicity           Mult            ....    1
 Number of Electrons    NEL             ....   40
 Basis Dimension        Dim             ....  172
 Nuclear Repulsion      ENuc            ....    114.2683454258 Eh

Convergence Acceleration:
 DIIS                   CNVDIIS         .... on
   Start iteration      DIISMaxIt       ....    12
   Startup error        DIISStart       ....  0.200000
   # of expansion vecs  DIISMaxEq       ....     5
   Bias factor          DIISBfac        ....   1.050
   Max. coefficient     DIISMaxC        ....  10.000
 Newton-Raphson         CNVNR           .... off
 SOSCF                  CNVSOSCF        .... on
   Start iteration      SOSCFMaxIt      ....   150
   Startup grad/error   SOSCFStart      ....  0.003300
 Level Shifting         CNVShift        .... on
   Level shift para.    LevelShift      ....    0.2500
   Turn off err/grad.   ShiftErr        ....    0.0010
 Zerner damping         CNVZerner       .... off
 Static damping         CNVDamp         .... on
   Fraction old density DampFac         ....    0.7000
   Max. Damping (<1)    DampMax         ....    0.9800
   Min. Damping (>=0)   DampMin         ....    0.0000
   Turn off err/grad.   DampErr         ....    0.1000
 Fernandez-Rico         CNVRico         .... off

SCF Procedure:
 Maximum # iterations   MaxIter         ....   125
 SCF integral mode      SCFMode         .... Direct
   Integral package                     .... LIBINT
 Reset frequency        DirectResetFreq ....    20
 Integral Threshold     Thresh          ....  2.500e-11 Eh
 Primitive CutOff       TCut            ....  2.500e-12 Eh

Convergence Tolerance:
 Convergence Check Mode ConvCheckMode   .... Total+1el-Energy
 Convergence forced     ConvForced      .... 1
 Energy Change          TolE            ....  1.000e-08 Eh
 1-El. energy change                    ....  1.000e-05 Eh
 Orbital Gradient       TolG            ....  1.000e-05
 Orbital Rotation angle TolX            ....  1.000e-05
 DIIS Error             TolErr          ....  5.000e-07


Diagonalization of the overlap matrix:
Smallest eigenvalue                        ... 8.148e-03
Time for diagonalization                   ...    0.111 sec
Threshold for overlap eigenvalues          ... 1.000e-08
Number of eigenvalues below threshold      ... 0
Time for construction of square roots      ...    0.002 sec
Total time needed                          ...    0.112 sec

-------------------
DFT GRID GENERATION
-------------------

General Integration Accuracy     IntAcc      ...  4.340
Radial Grid Type                 RadialGrid  ... Gauss-Chebyshev
Angular Grid (max. acc.)         AngularGrid ... Lebedev-110
Angular grid pruning method      GridPruning ... 3 (G Style)
Weight generation scheme         WeightScheme... Becke
Basis function cutoff            BFCut       ...    1.0000e-11
Integration weight cutoff        WCut        ...    1.0000e-14
Grids for H and He will be reduced by one unit

# of grid points (after initial pruning)     ...  13216 (   0.0 sec)
# of grid points (after weights+screening)   ...  12830 (   0.0 sec)
nearest neighbour list constructed           ...    0.0 sec
Grid point re-assignment to atoms done       ...    0.0 sec
Grid point division into batches done        ...    0.0 sec
Reduced shell lists constructed in    0.0 sec

Total number of grid points                  ...    12830
Total number of batches                      ...      207
Average number of points per batch           ...       61
Average number of grid points per atom       ...     1069
Average number of shells per batch           ...    36.47 (47.99%)
Average number of basis functions per batch  ...    74.47 (43.30%)
Average number of large shells per batch     ...    26.67 (73.12%)
Average number of large basis fcns per batch ...    55.17 (74.08%)
Maximum spatial batch extension              ...  14.53, 21.69, 12.98 au
Average spatial batch extension              ...   0.77,  0.82,  0.65 au

Time for grid setup =    0.044 sec

------------------------------
INITIAL GUESS: MODEL POTENTIAL
------------------------------
Loading Hartree-Fock densities                     ... done
Calculating cut-offs                               ... done
Setting up the integral package                    ... done
Initializing the effective Hamiltonian             ... done
Starting the Coulomb interaction                   ... done (   0.0 sec)
Reading the grid                                   ... done
Mapping shells                                     ... done
Starting the XC term evaluation                    ... done (   0.0 sec)
Transforming the Hamiltonian                       ... done (   0.0 sec)
Diagonalizing the Hamiltonian                      ... done (   0.0 sec)
Back transforming the eigenvectors                 ... done (   0.0 sec)
Now organizing SCF variables                       ... done
                      ------------------
                      INITIAL GUESS DONE (   0.1 sec)
                      ------------------
--------------
SCF ITERATIONS
--------------
ITER       Energy         Delta-E        Max-DP      RMS-DP      [F,P]     Damp
               ***  Starting incremental Fock matrix formation  ***
  0   -303.8421414129   0.000000000000 0.04362883  0.00122012  0.3464113 0.7000
  1   -303.9974252779  -0.155283864981 0.02865393  0.00083842  0.2162466 0.7000
                               ***Turning on DIIS***
  2   -304.0783586163  -0.080933338336 0.01648213  0.00045750  0.1638277 0.7000
  3   -304.7818123000  -0.703453683709 0.00769711  0.00019763  0.1218842 0.7000
  4   -304.6362113618   0.145600938182 0.01724297  0.00045344  0.0862140 0.0000
  5   -304.2659363427   0.370275019104 0.00191856  0.00007444  0.0054071 0.0000
                      *** Initiating the SOSCF procedure ***
                           *** Shutting down DIIS ***
                      *** Re-Reading the Fockian *** 
                      *** Removing any level shift *** 
ITER      Energy       Delta-E        Grad      Rot      Max-DP    RMS-DP
  6   -304.24128621   0.0246501360  0.000883  0.000883  0.001027  0.000044
               *** Restarting incremental Fock matrix formation ***
  7   -304.23312303   0.0081631761  0.000326  0.000465  0.000450  0.000019
  8   -304.23312885  -0.0000058171  0.000158  0.000369  0.000432  0.000016
  9   -304.23313020  -0.0000013526  0.000066  0.000041  0.000078  0.000003
 10   -304.23313032  -0.0000001151  0.000010  0.000008  0.000015  0.000000
                  ***Gradient check signals convergence***
              ***Rediagonalizing the Fockian in SOSCF/NRSCF***

               *****************************************************
               *                     SUCCESS                       *
               *           SCF CONVERGED AFTER  11 CYCLES          *
               *****************************************************


----------------
TOTAL SCF ENERGY
----------------

Total Energy       :         -304.23313032 Eh           -8278.60435 eV

Components:
Nuclear Repulsion  :          114.26834543 Eh            3109.39976 eV
Electronic Energy  :         -418.50147574 Eh          -11388.00411 eV
One Electron Energy:         -647.73959155 Eh          -17625.89037 eV
Two Electron Energy:          229.23811580 Eh            6237.88626 eV

Virial components:
Potential Energy   :         -607.94638705 Eh          -16543.06222 eV
Kinetic Energy     :          303.71325674 Eh            8264.45787 eV
Virial Ratio       :            2.00171173


---------------
SCF CONVERGENCE
---------------

  Last Energy change         ...   -2.4782e-09  Tolerance :   1.0000e-08
  Last MAX-Density change    ...    4.1605e-06  Tolerance :   1.0000e-07
  Last RMS-Density change    ...    1.5491e-07  Tolerance :   5.0000e-09
  Last Orbital Gradient      ...    1.9456e-06  Tolerance :   1.0000e-05
  Last Orbital Rotation      ...    2.5062e-06  Tolerance :   1.0000e-05

             **** THE GBW FILE WAS UPDATED (12h2o.su.etal.mol1,2,6,7-orca.engrad-mp2.def2tzvp.frozencore.gbw) ****
             **** DENSITY FILE WAS UPDATED (12h2o.su.etal.mol1,2,6,7-orca.engrad-mp2.def2tzvp.frozencore.scfp) ****
             **** ENERGY FILE WAS UPDATED (12h2o.su.etal.mol1,2,6,7-orca.engrad-mp2.def2tzvp.frozencore.en.tmp) ****
             **** THE GBW FILE WAS UPDATED (12h2o.su.etal.mol1,2,6,7-orca.engrad-mp2.def2tzvp.frozencore.gbw) ****
             **** DENSITY FILE WAS UPDATED (12h2o.su.etal.mol1,2,6,7-orca.engrad-mp2.def2tzvp.frozencore.scfp) ****
----------------
ORBITAL ENERGIES
----------------

  NO   OCC          E(Eh)            E(eV) 
   0   2.0000     -20.590680      -560.3009 
   1   2.0000     -20.562345      -559.5298 
   2   2.0000     -20.548233      -559.1459 
   3   2.0000     -20.521669      -558.4230 
   4   2.0000      -1.368491       -37.2385 
   5   2.0000      -1.338357       -36.4185 
   6   2.0000      -1.323557       -36.0158 
   7   2.0000      -1.300666       -35.3929 
   8   2.0000      -0.735475       -20.0133 
   9   2.0000      -0.700376       -19.0582 
  10   2.0000      -0.691687       -18.8218 
  11   2.0000      -0.670851       -18.2548 
  12   2.0000      -0.603861       -16.4319 
  13   2.0000      -0.578317       -15.7368 
  14   2.0000      -0.559803       -15.2330 
  15   2.0000      -0.553496       -15.0614 
  16   2.0000      -0.519947       -14.1485 
  17   2.0000      -0.505486       -13.7550 
  18   2.0000      -0.491302       -13.3690 
  19   2.0000      -0.467115       -12.7109 
  20   0.0000       0.098314         2.6753 
  21   0.0000       0.128463         3.4957 
  22   0.0000       0.147738         4.0202 
  23   0.0000       0.178998         4.8708 
  24   0.0000       0.197754         5.3812 
  25   0.0000       0.221042         6.0149 
  26   0.0000       0.226823         6.1722 
  27   0.0000       0.283384         7.7113 
  28   0.0000       0.483041        13.1442 
  29   0.0000       0.503169        13.6919 
  30   0.0000       0.520011        14.1502 
  31   0.0000       0.537103        14.6153 
  32   0.0000       0.546790        14.8789 
  33   0.0000       0.567683        15.4474 
  34   0.0000       0.581828        15.8323 
  35   0.0000       0.589308        16.0359 
  36   0.0000       0.610104        16.6018 
  37   0.0000       0.618228        16.8228 
  38   0.0000       0.628629        17.1059 
  39   0.0000       0.634724        17.2717 
  40   0.0000       0.663626        18.0582 
  41   0.0000       0.706955        19.2372 
  42   0.0000       0.711353        19.3569 
  43   0.0000       0.726654        19.7733 
  44   0.0000       0.760485        20.6938 
  45   0.0000       0.770729        20.9726 
  46   0.0000       0.787740        21.4355 
  47   0.0000       0.795362        21.6429 
  48   0.0000       0.809502        22.0277 
  49   0.0000       0.871432        23.7129 
  50   0.0000       0.883236        24.0341 
  51   0.0000       0.920225        25.0406 
  52   0.0000       1.386568        37.7304 
  53   0.0000       1.406655        38.2770 
  54   0.0000       1.412744        38.4427 
  55   0.0000       1.435338        39.0575 
  56   0.0000       1.440651        39.2021 
  57   0.0000       1.448617        39.4189 
  58   0.0000       1.450864        39.4800 
  59   0.0000       1.489834        40.5404 
  60   0.0000       1.545498        42.0551 
  61   0.0000       1.552820        42.2544 
  62   0.0000       1.569118        42.6979 
  63   0.0000       1.640992        44.6537 
  64   0.0000       1.793132        48.7936 
  65   0.0000       1.806058        49.1453 
  66   0.0000       1.836302        49.9683 
  67   0.0000       1.865208        50.7549 
  68   0.0000       1.896841        51.6157 
  69   0.0000       1.911771        52.0219 
  70   0.0000       1.922566        52.3157 
  71   0.0000       1.974550        53.7302 
  72   0.0000       2.012276        54.7568 
  73   0.0000       2.021558        55.0094 
  74   0.0000       2.024043        55.0770 
  75   0.0000       2.117935        57.6320 
  76   0.0000       2.276910        61.9579 
  77   0.0000       2.303830        62.6904 
  78   0.0000       2.314863        62.9906 
  79   0.0000       2.323862        63.2355 
  80   0.0000       2.339626        63.6645 
  81   0.0000       2.347284        63.8728 
  82   0.0000       2.352290        64.0091 
  83   0.0000       2.376788        64.6757 
  84   0.0000       2.379166        64.7404 
  85   0.0000       2.396628        65.2156 
  86   0.0000       2.404729        65.4360 
  87   0.0000       2.487482        67.6878 
  88   0.0000       2.560938        69.6867 
  89   0.0000       2.587577        70.4115 
  90   0.0000       2.602356        70.8137 
  91   0.0000       2.654517        72.2331 
  92   0.0000       2.680784        72.9478 
  93   0.0000       2.691605        73.2423 
  94   0.0000       2.719003        73.9878 
  95   0.0000       2.739710        74.5513 
  96   0.0000       2.888458        78.5989 
  97   0.0000       2.922341        79.5209 
  98   0.0000       2.934337        79.8474 
  99   0.0000       2.954267        80.3897 
 100   0.0000       2.962227        80.6063 
 101   0.0000       2.990553        81.3771 
 102   0.0000       2.993453        81.4560 
 103   0.0000       3.015741        82.0625 
 104   0.0000       3.031588        82.4937 
 105   0.0000       3.051259        83.0290 
 106   0.0000       3.065348        83.4124 
 107   0.0000       3.139114        85.4196 
 108   0.0000       3.162864        86.0659 
 109   0.0000       3.178988        86.5047 
 110   0.0000       3.222151        87.6792 
 111   0.0000       3.281021        89.2811 
 112   0.0000       3.969920       108.0270 
 113   0.0000       3.998379       108.8014 
 114   0.0000       4.018055       109.3368 
 115   0.0000       4.079458       111.0077 
 116   0.0000       4.283896       116.5707 
 117   0.0000       4.295810       116.8949 
 118   0.0000       4.325191       117.6944 
 119   0.0000       4.344031       118.2071 
 120   0.0000       5.526585       150.3860 
 121   0.0000       5.549191       151.0012 
 122   0.0000       5.565836       151.4541 
 123   0.0000       5.587040       152.0311 
 124   0.0000       5.612462       152.7228 
 125   0.0000       5.653291       153.8339 
 126   0.0000       5.656242       153.9142 
 127   0.0000       5.692880       154.9111 
 128   0.0000       5.786826       157.4675 
 129   0.0000       5.817447       158.3008 
 130   0.0000       5.825199       158.5117 
 131   0.0000       5.828534       158.6025 
 132   0.0000       5.849884       159.1834 
 133   0.0000       5.857150       159.3812 
 134   0.0000       5.864018       159.5680 
 135   0.0000       5.888683       160.2392 
 136   0.0000       5.890210       160.2808 
 137   0.0000       5.902991       160.6285 
 138   0.0000       5.932376       161.4282 
 139   0.0000       5.933405       161.4561 
 140   0.0000       6.403800       174.2563 
 141   0.0000       6.446166       175.4091 
 142   0.0000       6.468983       176.0300 
 143   0.0000       6.505733       177.0300 
 144   0.0000       6.669108       181.4757 
 145   0.0000       6.682431       181.8382 
 146   0.0000       6.713500       182.6836 
 147   0.0000       6.715299       182.7326 
 148   0.0000       6.829509       185.8404 
 149   0.0000       6.836896       186.0414 
 150   0.0000       6.859520       186.6570 
 151   0.0000       6.868138       186.8915 
 152   0.0000       6.885886       187.3745 
 153   0.0000       6.890417       187.4978 
 154   0.0000       6.896254       187.6566 
 155   0.0000       6.904373       187.8775 
 156   0.0000       6.938777       188.8137 
 157   0.0000       6.946471       189.0231 
 158   0.0000       6.947803       189.0593 
 159   0.0000       6.996406       190.3819 
 160   0.0000       7.346151       199.8989 
 161   0.0000       7.355466       200.1524 
 162   0.0000       7.389464       201.0775 
 163   0.0000       7.406692       201.5463 
 164   0.0000       7.466747       203.1805 
 165   0.0000       7.502342       204.1491 
 166   0.0000       7.513852       204.4623 
 167   0.0000       7.594741       206.6634 
 168   0.0000      44.820287      1219.6220 
 169   0.0000      44.836410      1220.0607 
 170   0.0000      44.851628      1220.4748 
 171   0.0000      44.952202      1223.2116 

                    ********************************
                    * MULLIKEN POPULATION ANALYSIS *
                    ********************************

-----------------------
MULLIKEN ATOMIC CHARGES
-----------------------
   0 O :   -0.713186
   1 H :    0.360142
   2 H :    0.358989
   3 O :   -0.701239
   4 H :    0.341055
   5 H :    0.360559
   6 O :   -0.704412
   7 H :    0.342462
   8 H :    0.361542
   9 O :   -0.722907
  10 H :    0.375985
  11 H :    0.341011
Sum of atomic charges:    0.0000000

--------------------------------
MULLIKEN REDUCED ORBITAL CHARGES
--------------------------------
  0 O s       :     3.810611  s :     3.810611
      pz      :     1.719469  p :     4.876143
      px      :     1.354546
      py      :     1.802128
      dz2     :     0.004094  d :     0.024910
      dxz     :     0.004406
      dyz     :     0.005852
      dx2y2   :     0.002519
      dxy     :     0.008040
      f0      :     0.000084  f :     0.001521
      f+1     :     0.000331
      f-1     :     0.000187
      f+2     :     0.000071
      f-2     :     0.000351
      f+3     :     0.000100
      f-3     :     0.000397
  1 H s       :     0.594400  s :     0.594400
      pz      :     0.017002  p :     0.045458
      px      :     0.013524
      py      :     0.014932
  2 H s       :     0.599194  s :     0.599194
      pz      :     0.010902  p :     0.041818
      px      :     0.017743
      py      :     0.013173
  3 O s       :     3.813826  s :     3.813826
      pz      :     1.717291  p :     4.860347
      px      :     1.793548
      py      :     1.349508
      dz2     :     0.004390  d :     0.025513
      dxz     :     0.005950
      dyz     :     0.004832
      dx2y2   :     0.002514
      dxy     :     0.007827
      f0      :     0.000091  f :     0.001552
      f+1     :     0.000194
      f-1     :     0.000344
      f+2     :     0.000071
      f-2     :     0.000360
      f+3     :     0.000393
      f-3     :     0.000099
  4 H s       :     0.612935  s :     0.612935
      pz      :     0.017179  p :     0.046010
      px      :     0.015212
      py      :     0.013619
  5 H s       :     0.597287  s :     0.597287
      pz      :     0.011295  p :     0.042154
      px      :     0.013052
      py      :     0.017807
  6 O s       :     3.817305  s :     3.817305
      pz      :     1.526663  p :     4.859313
      px      :     1.458717
      py      :     1.873933
      dz2     :     0.011806  d :     0.026278
      dxz     :     0.002971
      dyz     :     0.002722
      dx2y2   :     0.003242
      dxy     :     0.005537
      f0      :     0.000186  f :     0.001518
      f+1     :     0.000460
      f-1     :     0.000131
      f+2     :     0.000078
      f-2     :     0.000042
      f+3     :     0.000129
      f-3     :     0.000492
  7 H s       :     0.612646  s :     0.612646
      pz      :     0.018509  p :     0.044892
      px      :     0.012080
      py      :     0.014303
  8 H s       :     0.595117  s :     0.595117
      pz      :     0.009958  p :     0.043341
      px      :     0.018531
      py      :     0.014853
  9 O s       :     3.813459  s :     3.813459
      pz      :     1.575050  p :     4.882462
      px      :     1.436568
      py      :     1.870844
      dz2     :     0.011309  d :     0.025524
      dxz     :     0.002920
      dyz     :     0.002672
      dx2y2   :     0.003208
      dxy     :     0.005415
      f0      :     0.000164  f :     0.001462
      f+1     :     0.000445
      f-1     :     0.000124
      f+2     :     0.000078
      f-2     :     0.000040
      f+3     :     0.000127
      f-3     :     0.000484
 10 H s       :     0.574923  s :     0.574923
      pz      :     0.024271  p :     0.049092
      px      :     0.011317
      py      :     0.013504
 11 H s       :     0.615097  s :     0.615097
      pz      :     0.010455  p :     0.043892
      px      :     0.018172
      py      :     0.015265


                     *******************************
                     * LOEWDIN POPULATION ANALYSIS *
                     *******************************

----------------------
LOEWDIN ATOMIC CHARGES
----------------------
   0 O :   -0.314634
   1 H :    0.162370
   2 H :    0.183707
   3 O :   -0.338252
   4 H :    0.154646
   5 H :    0.183836
   6 O :   -0.339465
   7 H :    0.163248
   8 H :    0.176714
   9 O :   -0.349102
  10 H :    0.151669
  11 H :    0.165263

-------------------------------
LOEWDIN REDUCED ORBITAL CHARGES
-------------------------------
  0 O s       :     3.469586  s :     3.469586
      pz      :     1.682996  p :     4.810335
      px      :     1.352508
      py      :     1.774830
      dz2     :     0.005499  d :     0.032592
      dxz     :     0.006846
      dyz     :     0.005844
      dx2y2   :     0.003948
      dxy     :     0.010456
      f0      :     0.000091  f :     0.002121
      f+1     :     0.000454
      f-1     :     0.000273
      f+2     :     0.000036
      f-2     :     0.000609
      f+3     :     0.000094
      f-3     :     0.000564
  1 H s       :     0.674219  s :     0.674219
      pz      :     0.066507  p :     0.163411
      px      :     0.044113
      py      :     0.052792
  2 H s       :     0.668400  s :     0.668400
      pz      :     0.033531  p :     0.147893
      px      :     0.070722
      py      :     0.043640
  3 O s       :     3.475741  s :     3.475741
      pz      :     1.704924  p :     4.827573
      px      :     1.771756
      py      :     1.350894
      dz2     :     0.004987  d :     0.032795
      dxz     :     0.006093
      dyz     :     0.007378
      dx2y2   :     0.003907
      dxy     :     0.010430
      f0      :     0.000079  f :     0.002143
      f+1     :     0.000281
      f-1     :     0.000464
      f+2     :     0.000036
      f-2     :     0.000630
      f+3     :     0.000560
      f-3     :     0.000093
  4 H s       :     0.682637  s :     0.682637
      pz      :     0.065998  p :     0.162717
      px      :     0.052930
      py      :     0.043789
  5 H s       :     0.668712  s :     0.668712
      pz      :     0.033275  p :     0.147452
      px      :     0.043478
      py      :     0.070699
  6 O s       :     3.479372  s :     3.479372
      pz      :     1.538909  p :     4.824730
      px      :     1.452247
      py      :     1.833574
      dz2     :     0.015650  d :     0.033195
      dxz     :     0.004385
      dyz     :     0.001848
      dx2y2   :     0.004341
      dxy     :     0.006971
      f0      :     0.000391  f :     0.002169
      f+1     :     0.000768
      f-1     :     0.000207
      f+2     :     0.000050
      f-2     :     0.000044
      f+3     :     0.000072
      f-3     :     0.000636
  7 H s       :     0.679355  s :     0.679355
      pz      :     0.079108  p :     0.157397
      px      :     0.035144
      py      :     0.043144
  8 H s       :     0.670256  s :     0.670256
      pz      :     0.028938  p :     0.153030
      px      :     0.074861
      py      :     0.049231
  9 O s       :     3.472973  s :     3.472973
      pz      :     1.566100  p :     4.841981
      px      :     1.443660
      py      :     1.832221
      dz2     :     0.014638  d :     0.032060
      dxz     :     0.004071
      dyz     :     0.001723
      dx2y2   :     0.004530
      dxy     :     0.007098
      f0      :     0.000348  f :     0.002088
      f+1     :     0.000726
      f-1     :     0.000202
      f+2     :     0.000045
      f-2     :     0.000043
      f+3     :     0.000075
      f-3     :     0.000647
 10 H s       :     0.677403  s :     0.677403
      pz      :     0.092235  p :     0.170928
      px      :     0.035675
      py      :     0.043017
 11 H s       :     0.681243  s :     0.681243
      pz      :     0.030509  p :     0.153494
      px      :     0.073597
      py      :     0.049389


                      *****************************
                      * MAYER POPULATION ANALYSIS *
                      *****************************

  NA   - Mulliken gross atomic population
  ZA   - Total nuclear charge
  QA   - Mulliken gross atomic charge
  VA   - Mayer's total valence
  BVA  - Mayer's bonded valence
  FA   - Mayer's free valence

  ATOM       NA         ZA         QA         VA         BVA        FA
  0 O      8.7132     8.0000    -0.7132     1.7718     1.7718     0.0000
  1 H      0.6399     1.0000     0.3601     0.8853     0.8853     0.0000
  2 H      0.6410     1.0000     0.3590     0.8863     0.8863     0.0000
  3 O      8.7012     8.0000    -0.7012     1.7710     1.7710     0.0000
  4 H      0.6589     1.0000     0.3411     0.8981     0.8981     0.0000
  5 H      0.6394     1.0000     0.3606     0.8833     0.8833    -0.0000
  6 O      8.7044     8.0000    -0.7044     1.7723     1.7723    -0.0000
  7 H      0.6575     1.0000     0.3425     0.8968     0.8968    -0.0000
  8 H      0.6385     1.0000     0.3615     0.8859     0.8859    -0.0000
  9 O      8.7229     8.0000    -0.7229     1.7533     1.7533    -0.0000
 10 H      0.6240     1.0000     0.3760     0.8845     0.8845     0.0000
 11 H      0.6590     1.0000     0.3410     0.9007     0.9007     0.0000

  Mayer bond orders larger than 0.100000
B(  0-O ,  1-H ) :   0.8777 B(  0-O ,  2-H ) :   0.8755 B(  3-O ,  4-H ) :   0.8925 
B(  3-O ,  5-H ) :   0.8762 B(  6-O ,  7-H ) :   0.8920 B(  6-O ,  8-H ) :   0.8752 
B(  9-O , 10-H ) :   0.8583 B(  9-O , 11-H ) :   0.8894 

-------
TIMINGS
-------

Total SCF time: 0 days 0 hours 0 min 3 sec 

Total time                  ....       3.782 sec
Sum of individual times     ....       3.455 sec  ( 91.4%)

Fock matrix formation       ....       3.240 sec  ( 85.7%)
Diagonalization             ....       0.030 sec  (  0.8%)
Density matrix formation    ....       0.004 sec  (  0.1%)
Population analysis         ....       0.004 sec  (  0.1%)
Initial guess               ....       0.110 sec  (  2.9%)
Orbital Transformation      ....       0.000 sec  (  0.0%)
Orbital Orthonormalization  ....       0.000 sec  (  0.0%)
DIIS solution               ....       0.010 sec  (  0.3%)
SOSCF solution              ....       0.012 sec  (  0.3%)


           ************************************************************
           *        Program running with 6 parallel MPI-processes     *
           *              working on a common directory               *
           ************************************************************

------------------------------------------------------------------------------
                                ORCA  MP2 
------------------------------------------------------------------------------

Freezing NCore=8 chemical core electrons
MP2 will be done in the AO integral direct mode
The Q1-step will be done using symmetric double matrices
Dimension of the basis                    ...  172
Memory devoted for MP2                    ... 8000 MB   
Memory needed for all in one shot         ...   60 MB
Number of MOs that can be treated together...  408      
MP2 density construction                  ... relaxed
The MP2 gradient is requested => amplitudes will be stored on disk
Total number of MOs              ...   16
Number of MOs treated per batch  ...    3 
Number of batches necessary      ...    1 
OPERATORS   0/  0 PASS   0
-----------------------------------------------
 MP2 CORRELATION ENERGY   :     -1.026138709 Eh
-----------------------------------------------


---------------------
MP2 DENSITY FORMATION
---------------------

Completing the external part of the density      ... done
Storing the unrelaxed density                    ... done

Calculating G(D)                                 ... done
Completing the Lagrangian                        ... done
Solving the Z-vector equations                   ... 

------------------------------------------------------------------------------
                           ORCA CP-SCF CALCULATION
------------------------------------------------------------------------------

Input orbitals are from        ... 12h2o.su.etal.mol1,2,6,7-orca.engrad-mp2.def2tzvp.frozencore.gbw
Input Perturbation             ... 12h2o.su.etal.mol1,2,6,7-orca.engrad-mp2.def2tzvp.frozencore.pin.tmp
Wavefunction output            ... 12h2o.su.etal.mol1,2,6,7-orca.engrad-mp2.def2tzvp.frozencore.pout.tmp
Perturbation mode              ... Real perturbation (singlet)
Solver                         ... POPLE
Max. number of iterations      ... 128
Convergence tolerance          ... 1.000e-08
Integral handling              ... Direct
Number of perturbations        ... 1
Number of operators            ... 1
Orbital ranges used for CP-SCF:
 Operator 0:  Orbitals   0... 19  to  20...171
Variables per vector in CP-SCF ... 3040
Number of vectors sought       ... 1
     CP-SCF ITERATION   0: 
     CP-SCF ITERATION   1:      0.000482760037
     CP-SCF ITERATION   2:      0.000009805933
     CP-SCF ITERATION   3:      0.000000289737
     CP-SCF ITERATION   4:      0.000000021143
     CP-SCF ITERATION   5:      0.000000001811
                                                 ... done
Finalizing the relaxed density                   ... done
Transforming P to the AO basis                   ... done
Storing the relaxed density                      ... done

------------------------------------
ENERGY WEIGHTED DENSITY FINALIZATION
------------------------------------

Gathering the parts of the W-matrix              ...                                                      done
Forming the Z-density                            ... done
Transforming Z to the AO basis                   ... done
Calculating G(Z)                                 ... done
Finalizing the W-matrix                          ...                                                      done
Transforming W to the AO basis and storing       ... done

                *********************************************
                * UNRELAXED MP2 DENSITY POPULATION ANALYSIS *
                *********************************************

------------------------------------------------------------------------------
                           ORCA POPULATION ANALYSIS
------------------------------------------------------------------------------
Input electron density              ... 12h2o.su.etal.mol1,2,6,7-orca.engrad-mp2.def2tzvp.frozencore.pmp2ur
BaseName (.gbw .S,...)              ... 12h2o.su.etal.mol1,2,6,7-orca.engrad-mp2.def2tzvp.frozencore

                    ********************************
                    * MULLIKEN POPULATION ANALYSIS *
                    ********************************

-----------------------
MULLIKEN ATOMIC CHARGES
-----------------------
   0 O :   -0.708072
   1 H :    0.357939
   2 H :    0.356221
   3 O :   -0.696467
   4 H :    0.338918
   5 H :    0.357939
   6 O :   -0.699431
   7 H :    0.340128
   8 H :    0.358860
   9 O :   -0.717426
  10 H :    0.373117
  11 H :    0.338274
Sum of atomic charges:    0.0000000

--------------------------------
MULLIKEN REDUCED ORBITAL CHARGES
--------------------------------
  0 O s       :     3.805767  s :     3.805767
      pz      :     1.708655  p :     4.846574
      px      :     1.347023
      py      :     1.790895
      dz2     :     0.009598  d :     0.051658
      dxz     :     0.009755
      dyz     :     0.011225
      dx2y2   :     0.007854
      dxy     :     0.013227
      f0      :     0.000455  f :     0.004073
      f+1     :     0.000692
      f-1     :     0.000553
      f+2     :     0.000437
      f-2     :     0.000715
      f+3     :     0.000467
      f-3     :     0.000754
  1 H s       :     0.595028  s :     0.595028
      pz      :     0.017479  p :     0.047032
      px      :     0.013908
      py      :     0.015646
  2 H s       :     0.600386  s :     0.600386
      pz      :     0.011743  p :     0.043393
      px      :     0.017696
      py      :     0.013954
  3 O s       :     3.809024  s :     3.809024
      pz      :     1.706881  p :     4.831490
      px      :     1.782437
      py      :     1.342172
      dz2     :     0.009739  d :     0.051864
      dxz     :     0.011224
      dyz     :     0.010069
      dx2y2   :     0.007827
      dxy     :     0.013004
      f0      :     0.000458  f :     0.004089
      f+1     :     0.000556
      f-1     :     0.000703
      f+2     :     0.000436
      f-2     :     0.000721
      f+3     :     0.000750
      f-3     :     0.000466
  4 H s       :     0.613418  s :     0.613418
      pz      :     0.017685  p :     0.047664
      px      :     0.015954
      py      :     0.014025
  5 H s       :     0.598326  s :     0.598326
      pz      :     0.012148  p :     0.043735
      px      :     0.013828
      py      :     0.017759
  6 O s       :     3.812482  s :     3.812482
      pz      :     1.517547  p :     4.830283
      px      :     1.450405
      py      :     1.862332
      dz2     :     0.016784  d :     0.052607
      dxz     :     0.008201
      dyz     :     0.008157
      dx2y2   :     0.008609
      dxy     :     0.010857
      f0      :     0.000564  f :     0.004059
      f+1     :     0.000821
      f-1     :     0.000499
      f+2     :     0.000438
      f-2     :     0.000404
      f+3     :     0.000492
      f-3     :     0.000842
  7 H s       :     0.613318  s :     0.613318
      pz      :     0.018665  p :     0.046554
      px      :     0.012704
      py      :     0.015185
  8 H s       :     0.596208  s :     0.596208
      pz      :     0.010771  p :     0.044932
      px      :     0.018546
      py      :     0.015616
  9 O s       :     3.808624  s :     3.808624
      pz      :     1.565342  p :     4.852638
      px      :     1.428172
      py      :     1.859124
      dz2     :     0.016432  d :     0.052146
      dxz     :     0.008219
      dyz     :     0.008168
      dx2y2   :     0.008581
      dxy     :     0.010746
      f0      :     0.000547  f :     0.004018
      f+1     :     0.000811
      f-1     :     0.000496
      f+2     :     0.000438
      f-2     :     0.000404
      f+3     :     0.000488
      f-3     :     0.000833
 10 H s       :     0.576221  s :     0.576221
      pz      :     0.024381  p :     0.050662
      px      :     0.011917
      py      :     0.014364
 11 H s       :     0.616151  s :     0.616151
      pz      :     0.011318  p :     0.045575
      px      :     0.018207
      py      :     0.016050


                     *******************************
                     * LOEWDIN POPULATION ANALYSIS *
                     *******************************

----------------------
LOEWDIN ATOMIC CHARGES
----------------------
   0 O :   -0.311152
   1 H :    0.161225
   2 H :    0.181943
   3 O :   -0.335448
   4 H :    0.153500
   5 H :    0.182191
   6 O :   -0.336502
   7 H :    0.161893
   8 H :    0.175119
   9 O :   -0.346003
  10 H :    0.149758
  11 H :    0.163476

-------------------------------
LOEWDIN REDUCED ORBITAL CHARGES
-------------------------------
  0 O s       :     3.465810  s :     3.465810
      pz      :     1.671729  p :     4.780054
      px      :     1.344492
      py      :     1.763834
      dz2     :     0.011097  d :     0.060421
      dxz     :     0.012402
      dyz     :     0.011506
      dx2y2   :     0.009405
      dxy     :     0.016011
      f0      :     0.000473  f :     0.004867
      f+1     :     0.000862
      f-1     :     0.000658
      f+2     :     0.000409
      f-2     :     0.001015
      f+3     :     0.000475
      f-3     :     0.000974
  1 H s       :     0.672349  s :     0.672349
      pz      :     0.067720  p :     0.166426
      px      :     0.044928
      py      :     0.053778
  2 H s       :     0.667012  s :     0.667012
      pz      :     0.034377  p :     0.151044
      px      :     0.072025
      py      :     0.044642
  3 O s       :     3.471977  s :     3.471977
      pz      :     1.694515  p :     4.798410
      px      :     1.760861
      py      :     1.343034
      dz2     :     0.010418  d :     0.060189
      dxz     :     0.011652
      dyz     :     0.012831
      dx2y2   :     0.009332
      dxy     :     0.015956
      f0      :     0.000455  f :     0.004872
      f+1     :     0.000662
      f-1     :     0.000869
      f+2     :     0.000408
      f-2     :     0.001035
      f+3     :     0.000969
      f-3     :     0.000473
  4 H s       :     0.680612  s :     0.680612
      pz      :     0.067273  p :     0.165888
      px      :     0.053957
      py      :     0.044657
  5 H s       :     0.667237  s :     0.667237
      pz      :     0.034109  p :     0.150572
      px      :     0.044474
      py      :     0.071990
  6 O s       :     3.475578  s :     3.475578
      pz      :     1.529442  p :     4.795414
      px      :     1.443602
      py      :     1.822369
      dz2     :     0.021278  d :     0.060609
      dxz     :     0.009633
      dyz     :     0.007210
      dx2y2   :     0.009903
      dxy     :     0.012585
      f0      :     0.000799  f :     0.004901
      f+1     :     0.001196
      f-1     :     0.000591
      f+2     :     0.000416
      f-2     :     0.000413
      f+3     :     0.000445
      f-3     :     0.001040
  7 H s       :     0.677481  s :     0.677481
      pz      :     0.080767  p :     0.160626
      px      :     0.035909
      py      :     0.043950
  8 H s       :     0.668764  s :     0.668764
      pz      :     0.029718  p :     0.156118
      px      :     0.076223
      py      :     0.050176
  9 O s       :     3.469216  s :     3.469216
      pz      :     1.556309  p :     4.812135
      px      :     1.434892
      py      :     1.820935
      dz2     :     0.020379  d :     0.059815
      dxz     :     0.009411
      dyz     :     0.007151
      dx2y2   :     0.010126
      dxy     :     0.012748
      f0      :     0.000762  f :     0.004837
      f+1     :     0.001160
      f-1     :     0.000590
      f+2     :     0.000414
      f-2     :     0.000413
      f+3     :     0.000448
      f-3     :     0.001052
 10 H s       :     0.676384  s :     0.676384
      pz      :     0.093619  p :     0.173858
      px      :     0.036429
      py      :     0.043810
 11 H s       :     0.679710  s :     0.679710
      pz      :     0.031344  p :     0.156813
      px      :     0.075102
      py      :     0.050367


                      *****************************
                      * MAYER POPULATION ANALYSIS *
                      *****************************

  NA   - Mulliken gross atomic population
  ZA   - Total nuclear charge
  QA   - Mulliken gross atomic charge
  VA   - Mayer's total valence
  BVA  - Mayer's bonded valence
  FA   - Mayer's free valence

  ATOM       NA         ZA         QA         VA         BVA        FA
  0 O      8.7081     8.0000    -0.7081     2.0789     1.6902     0.3887
  1 H      0.6421     1.0000     0.3579     0.8909     0.8454     0.0455
  2 H      0.6438     1.0000     0.3562     0.8925     0.8440     0.0485
  3 O      8.6965     8.0000    -0.6965     2.0757     1.6889     0.3868
  4 H      0.6611     1.0000     0.3389     0.9040     0.8572     0.0468
  5 H      0.6421     1.0000     0.3579     0.8892     0.8413     0.0479
  6 O      8.6994     8.0000    -0.6994     2.0772     1.6900     0.3872
  7 H      0.6599     1.0000     0.3401     0.9027     0.8550     0.0478
  8 H      0.6411     1.0000     0.3589     0.8920     0.8446     0.0474
  9 O      8.7174     8.0000    -0.7174     2.0616     1.6718     0.3897
 10 H      0.6269     1.0000     0.3731     0.8906     0.8457     0.0449
 11 H      0.6617     1.0000     0.3383     0.9072     0.8577     0.0495

  Mayer bond orders larger than 0.100000
B(  0-O ,  1-H ) :   0.8384 B(  0-O ,  2-H ) :   0.8338 B(  3-O ,  4-H ) :   0.8520 
B(  3-O ,  5-H ) :   0.8347 B(  6-O ,  7-H ) :   0.8506 B(  6-O ,  8-H ) :   0.8345 
B(  9-O , 10-H ) :   0.8201 B(  9-O , 11-H ) :   0.8470 


                *******************************************
                * RELAXED MP2 DENSITY POPULATION ANALYSIS *
                *******************************************

------------------------------------------------------------------------------
                           ORCA POPULATION ANALYSIS
------------------------------------------------------------------------------
Input electron density              ... 12h2o.su.etal.mol1,2,6,7-orca.engrad-mp2.def2tzvp.frozencore.pmp2re
BaseName (.gbw .S,...)              ... 12h2o.su.etal.mol1,2,6,7-orca.engrad-mp2.def2tzvp.frozencore

                    ********************************
                    * MULLIKEN POPULATION ANALYSIS *
                    ********************************

-----------------------
MULLIKEN ATOMIC CHARGES
-----------------------
   0 O :   -0.691691
   1 H :    0.350977
   2 H :    0.349434
   3 O :   -0.683116
   4 H :    0.332819
   5 H :    0.350890
   6 O :   -0.684918
   7 H :    0.333909
   8 H :    0.350561
   9 O :   -0.698945
  10 H :    0.359632
  11 H :    0.330448
Sum of atomic charges:    0.0000000

--------------------------------
MULLIKEN REDUCED ORBITAL CHARGES
--------------------------------
  0 O s       :     3.810162  s :     3.810162
      pz      :     1.699087  p :     4.828124
      px      :     1.343411
      py      :     1.785625
      dz2     :     0.009355  d :     0.049404
      dxz     :     0.009166
      dyz     :     0.010946
      dx2y2   :     0.007604
      dxy     :     0.012333
      f0      :     0.000453  f :     0.004001
      f+1     :     0.000672
      f-1     :     0.000544
      f+2     :     0.000438
      f-2     :     0.000694
      f+3     :     0.000466
      f-3     :     0.000734
  1 H s       :     0.601296  s :     0.601296
      pz      :     0.017630  p :     0.047726
      px      :     0.013822
      py      :     0.016275
  2 H s       :     0.606544  s :     0.606544
      pz      :     0.012613  p :     0.044022
      px      :     0.016722
      py      :     0.014687
  3 O s       :     3.814032  s :     3.814032
      pz      :     1.700655  p :     4.815518
      px      :     1.776298
      py      :     1.338565
      dz2     :     0.009448  d :     0.049549
      dxz     :     0.010927
      dyz     :     0.009472
      dx2y2   :     0.007576
      dxy     :     0.012126
      f0      :     0.000456  f :     0.004017
      f+1     :     0.000548
      f-1     :     0.000684
      f+2     :     0.000436
      f-2     :     0.000701
      f+3     :     0.000729
      f-3     :     0.000464
  4 H s       :     0.618777  s :     0.618777
      pz      :     0.017803  p :     0.048404
      px      :     0.016628
      py      :     0.013973
  5 H s       :     0.604729  s :     0.604729
      pz      :     0.013051  p :     0.044381
      px      :     0.014563
      py      :     0.016767
  6 O s       :     3.817703  s :     3.817703
      pz      :     1.509871  p :     4.812969
      px      :     1.445960
      py      :     1.857138
      dz2     :     0.015515  d :     0.050261
      dxz     :     0.007924
      dyz     :     0.008189
      dx2y2   :     0.008311
      dxy     :     0.010323
      f0      :     0.000549  f :     0.003985
      f+1     :     0.000791
      f-1     :     0.000493
      f+2     :     0.000438
      f-2     :     0.000403
      f+3     :     0.000491
      f-3     :     0.000821
  7 H s       :     0.618787  s :     0.618787
      pz      :     0.017994  p :     0.047304
      px      :     0.013114
      py      :     0.016196
  8 H s       :     0.603808  s :     0.603808
      pz      :     0.011498  p :     0.045631
      px      :     0.017706
      py      :     0.016427
  9 O s       :     3.810463  s :     3.810463
      pz      :     1.560516  p :     4.834581
      px      :     1.420701
      py      :     1.853364
      dz2     :     0.015327  d :     0.049954
      dxz     :     0.007963
      dyz     :     0.008203
      dx2y2   :     0.008261
      dxy     :     0.010200
      f0      :     0.000534  f :     0.003946
      f+1     :     0.000782
      f-1     :     0.000490
      f+2     :     0.000439
      f-2     :     0.000402
      f+3     :     0.000487
      f-3     :     0.000812
 10 H s       :     0.589119  s :     0.589119
      pz      :     0.023697  p :     0.051249
      px      :     0.012274
      py      :     0.015278
 11 H s       :     0.623160  s :     0.623160
      pz      :     0.012131  p :     0.046392
      px      :     0.017356
      py      :     0.016906


                     *******************************
                     * LOEWDIN POPULATION ANALYSIS *
                     *******************************

----------------------
LOEWDIN ATOMIC CHARGES
----------------------
   0 O :   -0.310526
   1 H :    0.162661
   2 H :    0.183220
   3 O :   -0.338558
   4 H :    0.155340
   5 H :    0.183526
   6 O :   -0.339094
   7 H :    0.163784
   8 H :    0.175794
   9 O :   -0.346888
  10 H :    0.146293
  11 H :    0.164449

-------------------------------
LOEWDIN REDUCED ORBITAL CHARGES
-------------------------------
  0 O s       :     3.467918  s :     3.467918
      pz      :     1.666727  p :     4.778520
      px      :     1.349552
      py      :     1.762240
      dz2     :     0.011013  d :     0.059202
      dxz     :     0.012035
      dyz     :     0.011480
      dx2y2   :     0.009168
      dxy     :     0.015506
      f0      :     0.000477  f :     0.004887
      f+1     :     0.000869
      f-1     :     0.000658
      f+2     :     0.000410
      f-2     :     0.001015
      f+3     :     0.000478
      f-3     :     0.000980
  1 H s       :     0.671009  s :     0.671009
      pz      :     0.067812  p :     0.166331
      px      :     0.044098
      py      :     0.054420
  2 H s       :     0.665607  s :     0.665607
      pz      :     0.035100  p :     0.151173
      px      :     0.070652
      py      :     0.045421
  3 O s       :     3.474150  s :     3.474150
      pz      :     1.693707  p :     4.800713
      px      :     1.759023
      py      :     1.347983
      dz2     :     0.010236  d :     0.058803
      dxz     :     0.011584
      dyz     :     0.012420
      dx2y2   :     0.009103
      dxy     :     0.015460
      f0      :     0.000457  f :     0.004892
      f+1     :     0.000662
      f-1     :     0.000877
      f+2     :     0.000409
      f-2     :     0.001035
      f+3     :     0.000976
      f-3     :     0.000476
  4 H s       :     0.678665  s :     0.678665
      pz      :     0.067435  p :     0.165995
      px      :     0.054656
      py      :     0.043903
  5 H s       :     0.665850  s :     0.665850
      pz      :     0.034875  p :     0.150624
      px      :     0.045244
      py      :     0.070505
  6 O s       :     3.477834  s :     3.477834
      pz      :     1.530477  p :     4.797095
      px      :     1.446910
      py      :     1.819708
      dz2     :     0.020572  d :     0.059247
      dxz     :     0.009374
      dyz     :     0.007273
      dx2y2   :     0.009708
      dxy     :     0.012319
      f0      :     0.000796  f :     0.004919
      f+1     :     0.001206
      f-1     :     0.000591
      f+2     :     0.000419
      f-2     :     0.000411
      f+3     :     0.000447
      f-3     :     0.001049
  7 H s       :     0.675448  s :     0.675448
      pz      :     0.080137  p :     0.160769
      px      :     0.035759
      py      :     0.044872
  8 H s       :     0.668057  s :     0.668057
      pz      :     0.030110  p :     0.156149
      px      :     0.075069
      py      :     0.050970
  9 O s       :     3.470738  s :     3.470738
      pz      :     1.556897  p :     4.812683
      px      :     1.437750
      py      :     1.818036
      dz2     :     0.019843  d :     0.058611
      dxz     :     0.009190
      dyz     :     0.007217
      dx2y2   :     0.009904
      dxy     :     0.012457
      f0      :     0.000762  f :     0.004856
      f+1     :     0.001170
      f-1     :     0.000589
      f+2     :     0.000416
      f-2     :     0.000411
      f+3     :     0.000450
      f-3     :     0.001058
 10 H s       :     0.679464  s :     0.679464
      pz      :     0.093094  p :     0.174243
      px      :     0.036423
      py      :     0.044725
 11 H s       :     0.678312  s :     0.678312
      pz      :     0.031956  p :     0.157239
      px      :     0.074131
      py      :     0.051152


                      *****************************
                      * MAYER POPULATION ANALYSIS *
                      *****************************

  NA   - Mulliken gross atomic population
  ZA   - Total nuclear charge
  QA   - Mulliken gross atomic charge
  VA   - Mayer's total valence
  BVA  - Mayer's bonded valence
  FA   - Mayer's free valence

  ATOM       NA         ZA         QA         VA         BVA        FA
  0 O      8.6917     8.0000    -0.6917     2.0990     1.7158     0.3832
  1 H      0.6490     1.0000     0.3510     0.8961     0.8506     0.0455
  2 H      0.6506     1.0000     0.3494     0.8989     0.8505     0.0485
  3 O      8.6831     8.0000    -0.6831     2.0809     1.6989     0.3820
  4 H      0.6672     1.0000     0.3328     0.9082     0.8614     0.0469
  5 H      0.6491     1.0000     0.3509     0.8950     0.8470     0.0480
  6 O      8.6849     8.0000    -0.6849     2.0839     1.7017     0.3821
  7 H      0.6661     1.0000     0.3339     0.9070     0.8592     0.0479
  8 H      0.6494     1.0000     0.3506     0.9002     0.8530     0.0472
  9 O      8.6989     8.0000    -0.6989     2.0747     1.6903     0.3844
 10 H      0.6404     1.0000     0.3596     0.9092     0.8645     0.0447
 11 H      0.6696     1.0000     0.3304     0.9147     0.8653     0.0493

  Mayer bond orders larger than 0.100000
B(  0-O ,  1-H ) :   0.8423 B(  0-O ,  2-H ) :   0.8373 B(  3-O ,  4-H ) :   0.8559 
B(  3-O ,  5-H ) :   0.8391 B(  6-O ,  7-H ) :   0.8546 B(  6-O ,  8-H ) :   0.8388 
B(  9-O , 10-H ) :   0.8254 B(  9-O , 11-H ) :   0.8499 


----------------------------------
MP2 DERIVATIVE INTEGRAL GENERATION
----------------------------------


Input Wavefunction Amplitudes       ... 12h2o.su.etal.mol1,2,6,7-orca.engrad-mp2.def2tzvp.frozencore.mp2tsaa.tmp
Input Correlated Electron Density   ... 12h2o.su.etal.mol1,2,6,7-orca.engrad-mp2.def2tzvp.frozencore.pmp2re
Input Energy Weighted Density       ... 12h2o.su.etal.mol1,2,6,7-orca.engrad-mp2.def2tzvp.frozencore.wmp2.tmp
Input SCF Electron Density          ... 12h2o.su.etal.mol1,2,6,7-orca.engrad-mp2.def2tzvp.frozencore.scfp

One-Electron Terms    ...
                        ... One-Electron Terms done
Prescreening matrices              ... done

Batch handling in the gradient evaluation:
Memory available                      ... 8000.0 MB
Memory per occupied orbital in Q2     ...    3.6 MB
Memory per occupied orbital in Q3     ...    0.1 MB
Total memory requirement per |i>      ...    3.7 MB
Max. Number of orbitals possible      ...   2176
Number of orbitals treated per batch  ...     16
Number of batches to be done          ...      1
Batch   0: i=    4 ...    19

---------------------------------------
MP2 TOTAL ENERGY:     -305.259269027 Eh
---------------------------------------

The final MP2 gradient
  0:  -0.02613209   0.00933526  -0.00122747
  1:  -0.00158218   0.00201566  -0.00241601
  2:   0.02828946  -0.01000243  -0.00027462
  3:  -0.00820255  -0.02588259  -0.00023413
  4:  -0.00171074  -0.00278004   0.00105695
  5:   0.00982834   0.02886156  -0.00243527
  6:   0.01372344  -0.00895846  -0.00989088
  7:   0.00301866   0.00115027   0.00910364
  8:  -0.01530521   0.00876287   0.00136833
  9:  -0.01548380   0.00843281  -0.00346372
 10:  -0.00407081  -0.00352896   0.00416333
 11:   0.01762749  -0.00740597   0.00424985

-----------------------------------
NORM OF THE MP2 GRADIENT:  0.069960
-----------------------------------

-------------------------   --------------------
FINAL SINGLE POINT ENERGY      -305.259269026925
-------------------------   --------------------


                            ***************************************
                            *     ORCA property calculations      *
                            ***************************************

                                    ---------------------
                                    Active property flags
                                    ---------------------
   (+) Dipole Moment


------------------------------------------------------------------------------
                       ORCA ELECTRIC PROPERTIES CALCULATION
------------------------------------------------------------------------------

Dipole Moment Calculation                       ... on
Quadrupole Moment Calculation                   ... off
Polarizability Calculation                      ... off
GBWName                                         ... 12h2o.su.etal.mol1,2,6,7-orca.engrad-mp2.def2tzvp.frozencore.gbw
Electron density file                           ... 12h2o.su.etal.mol1,2,6,7-orca.engrad-mp2.def2tzvp.frozencore.scfp
The origin for moment calculation is the CENTER OF MASS  = (-0.380135, -1.295768 -0.000644)

-------------
DIPOLE MOMENT
-------------
                                X             Y             Z
Electronic contribution:     -0.18499       0.06511      -0.06428
Nuclear contribution   :      0.98813      -0.37017       1.54856
                        -----------------------------------------
Total Dipole Moment    :      0.80314      -0.30506       1.48428
                        -----------------------------------------
Magnitude (a.u.)       :      1.71498
Magnitude (Debye)      :      4.35914



--------------------
Rotational spectrum 
--------------------
 
Rotational constants in cm-1:     0.108800     0.042233     0.032335 
Rotational constants in MHz :  3261.753536  1266.123007   969.388329 

 Dipole components along the rotational axes: 
x,y,z [a.u.] :     0.770346    -0.890994     1.246541 
x,y,z [Debye]:     1.958064    -2.264727     3.168456 

 

                         *** MP2 UNRELAXED DENSITY ***

------------------------------------------------------------------------------
                       ORCA ELECTRIC PROPERTIES CALCULATION
------------------------------------------------------------------------------

Dipole Moment Calculation                       ... on
Quadrupole Moment Calculation                   ... off
Polarizability Calculation                      ... off
GBWName                                         ... 12h2o.su.etal.mol1,2,6,7-orca.engrad-mp2.def2tzvp.frozencore.gbw
Electron density file                           ... 12h2o.su.etal.mol1,2,6,7-orca.engrad-mp2.def2tzvp.frozencore.pmp2ur
The origin for moment calculation is the CENTER OF MASS  = (-0.380135, -1.295768 -0.000644)

-------------
DIPOLE MOMENT
-------------
                                X             Y             Z
Electronic contribution:     -0.19586       0.06880      -0.07879
Nuclear contribution   :      0.98813      -0.37017       1.54856
                        -----------------------------------------
Total Dipole Moment    :      0.79227      -0.30137       1.46977
                        -----------------------------------------
Magnitude (a.u.)       :      1.69668
Magnitude (Debye)      :      4.31261



--------------------
Rotational spectrum 
--------------------
 
Rotational constants in cm-1:     0.108800     0.042233     0.032335 
Rotational constants in MHz :  3261.753536  1266.123007   969.388329 

 Dipole components along the rotational axes: 
x,y,z [a.u.] :     0.764528    -0.880879     1.232179 
x,y,z [Debye]:     1.943276    -2.239016     3.131951 

 

                           *** MP2 RELAXED DENSITY ***

------------------------------------------------------------------------------
                       ORCA ELECTRIC PROPERTIES CALCULATION
------------------------------------------------------------------------------

Dipole Moment Calculation                       ... on
Quadrupole Moment Calculation                   ... off
Polarizability Calculation                      ... off
GBWName                                         ... 12h2o.su.etal.mol1,2,6,7-orca.engrad-mp2.def2tzvp.frozencore.gbw
Electron density file                           ... 12h2o.su.etal.mol1,2,6,7-orca.engrad-mp2.def2tzvp.frozencore.pmp2re
The origin for moment calculation is the CENTER OF MASS  = (-0.380135, -1.295768 -0.000644)

-------------
DIPOLE MOMENT
-------------
                                X             Y             Z
Electronic contribution:     -0.20254       0.07443      -0.09232
Nuclear contribution   :      0.98813      -0.37017       1.54856
                        -----------------------------------------
Total Dipole Moment    :      0.78559      -0.29574       1.45623
                        -----------------------------------------
Magnitude (a.u.)       :      1.68084
Magnitude (Debye)      :      4.27236



--------------------
Rotational spectrum 
--------------------
 
Rotational constants in cm-1:     0.108800     0.042233     0.032335 
Rotational constants in MHz :  3261.753536  1266.123007   969.388329 

 Dipole components along the rotational axes: 
x,y,z [a.u.] :     0.757217    -0.875072     1.219056 
x,y,z [Debye]:     1.924693    -2.224256     3.098595 

 

Timings for individual modules:

Sum of individual times         ...       19.524 sec (=   0.325 min)
GTO integral calculation        ...        1.819 sec (=   0.030 min)   9.3 %
SCF iterations                  ...        5.131 sec (=   0.086 min)  26.3 %
MP2 module                      ...       12.574 sec (=   0.210 min)  64.4 %
                             ****ORCA TERMINATED NORMALLY****
TOTAL RUN TIME: 0 days 0 hours 0 minutes 21 seconds 785 msec
