60
Energy:   -338.49609667
O   -2.18757195  -2.20641023   1.59336315
H   -1.50039284  -2.15199305   2.27398560
C   -1.67288516  -2.98247060   0.52314748
H   -2.45954845  -3.03364490  -0.23449840
H   -1.42294901  -4.01140938   0.82579286
H   -0.78185501  -2.53032430   0.06010716
O   -3.48297217  -0.13928282   0.25805180
H   -3.13977698  -0.89452684   0.75829855
C   -4.77424982   0.16062957   0.76321351
H   -5.14604961   1.01342682   0.18876858
H   -4.75908967   0.44595884   1.82676168
H   -5.48419292  -0.67170781   0.63683073
O    2.27708135  -1.20574278   1.75429371
H    2.71711018  -0.37925041   1.50588221
C    2.28125407  -2.05418414   0.61734004
H    1.78195181  -2.98034974   0.91466097
H    3.29834802  -2.30785677   0.27977903
H    1.72899170  -1.62680767  -0.23420735
O    2.22008045   2.13881344  -1.55627891
H    1.45060745   2.72720311  -1.54478194
C    1.84442685   0.95220013  -2.23698957
H    2.72256574   0.30078396  -2.24076589
H    1.55145202   1.13631268  -3.28247780
H    1.02369710   0.41590641  -1.73542297
O    0.03282853  -1.88265793   3.28315005
H    0.85403480  -1.69237801   2.80582723
C    0.20136746  -1.44375744   4.62161737
H   -0.73264683  -1.66561978   5.14495245
H    0.38416147  -0.36018683   4.69399422
H    1.01736354  -1.96931994   5.14191708
O   -0.14750903   3.61386127  -1.15080085
H   -0.64001915   3.03992246  -0.54544864
C    0.17570211   4.80347802  -0.44874649
H    0.73009098   5.43845773  -1.14512208
H    0.81547514   4.61908494   0.42844619
H   -0.71654124   5.35765883  -0.11774384
O    3.37727862   1.19909713   0.81460050
H    3.02902834   1.56149975  -0.01353558
C    4.72893171   1.61380014   0.93117279
H    5.10564486   1.19698123   1.86916767
H    4.83527265   2.70894931   0.97718633
H    5.36138513   1.23738703   0.11197002
O    0.24396329  -2.10482829  -2.39496780
H   -0.55602569  -1.56033200  -2.35064289
C    0.04647745  -3.07830329  -3.40782492
H    0.95681325  -3.68282102  -3.44432480
H   -0.10688866  -2.63173639  -4.40272902
H   -0.80034031  -3.74899592  -3.19370252
O   -1.40404001   1.77751493   0.55256656
H   -2.18821457   1.21135220   0.49822232
C   -0.34537666   0.99668404   1.08366807
H    0.52991407   1.64966879   1.13809473
H   -0.09015809   0.13614016   0.44562022
H   -0.55822269   0.62578593   2.09851214
O   -2.06058656  -0.51753835  -2.17455918
H   -2.63259784  -0.35289982  -1.41028140
C   -1.92305571   0.70521915  -2.88059256
H   -1.27593882   0.50177668  -3.73810996
H   -1.45011197   1.49465574  -2.27570298
H   -2.88349273   1.08712605  -3.26070463
