60
Energy:   -336.87097082
O    1.18310964   0.09927264  -3.18409287
H    0.53314237  -0.61891476  -3.19723332
C    2.47346863  -0.48677572  -3.24776987
H    3.19333668   0.33604038  -3.23199409
H    2.63370148  -1.06286524  -4.17255288
H    2.68558076  -1.14245376  -2.38877506
O   -0.28050688   1.86684386   2.61363774
H   -0.01424015   2.52945592   1.95906111
C   -0.52964060   2.54420586   3.83496770
H   -0.82834807   1.78320090   4.56100523
H   -1.34616549   3.27881951   3.75492247
H    0.36261457   3.05766370   4.22614425
O    0.32861346   3.58380488   0.50448256
H    0.75882718   3.28436552  -0.31018026
C   -0.88999192   4.21293125   0.14152980
H   -1.36151012   4.54410195   1.07076699
H   -1.58578465   3.52923142  -0.36955174
H   -0.73837684   5.09647829  -0.49810669
O   -1.83407253   0.28768396   0.79849475
H   -1.33985580   0.80896393   1.44844882
C   -1.04568420   0.20746244  -0.37817093
H   -1.61714374  -0.38287626  -1.09957194
H   -0.08180270  -0.29812602  -0.21056991
H   -0.84739518   1.19415425  -0.82527057
O   -0.45728863  -2.18801493  -2.86198667
H    0.10905473  -2.52975374  -2.15424867
C   -1.69375395  -2.88035349  -2.79599735
H   -2.31947820  -2.48319921  -3.59987722
H   -2.22058851  -2.71990765  -1.84233085
H   -1.58293594  -3.96462864  -2.95361747
O    1.24515291  -2.85917866  -0.73700475
H    1.71938992  -2.21340276  -0.19249026
C    0.52810067  -3.71566891   0.13752045
H   -0.00019386  -4.43668863  -0.49217840
H   -0.21937102  -3.17767273   0.74136108
H    1.18720728  -4.27603836   0.81894681
O    2.38827308  -0.90721880   0.94256281
H    1.99667116  -0.87436091   1.82799579
C    2.76478098   0.41409296   0.58913557
H    3.20395636   0.35882361  -0.41064215
H    3.51910859   0.83793647   1.27040195
H    1.90732818   1.10390023   0.54768740
O   -2.79053002  -2.37738096   0.83644415
H   -2.48015053  -1.46056393   0.79727291
C   -4.20868905  -2.35326079   0.80856997
H   -4.54152949  -3.39378634   0.85339216
H   -4.60831590  -1.90650411  -0.11527211
H   -4.64188807  -1.81892349   1.66856972
O    0.90000242  -0.60173944   3.31848928
H    0.47423456   0.25687432   3.17732478
C   -0.12443499  -1.57602949   3.43605071
H    0.37257801  -2.53692577   3.59461174
H   -0.74106921  -1.65650624   2.52717060
H   -0.79098992  -1.39095398   4.29292229
O    1.41384304   2.55598943  -1.86240620
H    1.33218098   1.71688033  -2.33953354
C    2.01450716   3.49400257  -2.74096623
H    2.09898082   4.43326328  -2.18766819
H    1.40890822   3.68152466  -3.64144539
H    3.02507231   3.19270519  -3.05838598
