60
Energy:   -337.00750102
O    0.28513772   0.58558085  -2.17246864
H    0.64520002   1.44417856  -1.90490856
C   -0.54917739   0.12267236  -1.12262684
H   -0.94633569  -0.84516815  -1.44048723
H   -1.40039550   0.79388431  -0.92851455
H   -0.00182606  -0.02628139  -0.17870066
O    2.62481608   1.18490791   0.51294077
H    2.26209558   1.86547551  -0.07330564
C    3.39259813   0.29607988  -0.28269057
H    3.79367821  -0.46397334   0.39328211
H    4.24069652   0.79377051  -0.77848336
H    2.79123749  -0.21391293  -1.05148836
O   -0.51135679   3.62781098   0.91315093
H   -1.21402509   3.00486658   1.15110220
C    0.34796913   3.75621171   2.03458126
H    1.13349891   4.46124032   1.74933960
H    0.82780610   2.80510260   2.31373224
H   -0.16683708   4.15896089   2.92089102
O   -2.49351722   1.72101045   1.50055945
H   -2.60631986   0.75942956   1.46798576
C   -3.69904660   2.31159177   1.04181506
H   -3.55465037   3.39453610   1.08501813
H   -4.56449783   2.05711808   1.67349112
H   -3.93651139   2.04009507   0.00129724
O    0.86455740  -3.13979519   1.20608816
H    1.13088799  -2.35169427   1.70246326
C    1.87968001  -3.41171131   0.25313407
H    1.56368727  -4.30216833  -0.29706598
H    2.85406274  -3.62633497   0.71928029
H    2.01368920  -2.59275883  -0.47083810
O    1.46412325  -1.85747512  -2.96445969
H    1.03848718  -1.02856769  -2.69956408
C    1.31984726  -1.98543661  -4.36992903
H    1.80472737  -2.92415158  -4.65133740
H    1.80925034  -1.16899809  -4.92372512
H    0.26627432  -2.03717929  -4.68628974
O   -2.75752623  -1.06052402   1.33637620
H   -2.44960809  -1.77997834   0.76541633
C   -3.13695778  -1.62967642   2.57920805
H   -3.48114787  -0.80565295   3.21008341
H   -2.29894459  -2.12606752   3.09312156
H   -3.96198627  -2.35258143   2.48167005
O    1.57720757  -0.67778292   2.36566144
H    1.97763969   0.01058506   1.81409374
C    0.41527993  -0.12725530   2.96514228
H   -0.02322049  -0.91575542   3.58277497
H   -0.33785161   0.18509581   2.22486734
H    0.63929635   0.73187993   3.61666406
O   -1.60248038  -3.17234076  -0.11758331
H   -0.74733077  -3.26848756   0.32727420
C   -1.48783904  -3.76210574  -1.40271693
H   -2.45963076  -3.64499040  -1.88994383
H   -1.25588206  -4.83772553  -1.35782422
H   -0.72943367  -3.26900427  -2.03076913
O    1.26517309   3.05082178  -1.14833304
H    0.64048345   3.37483379  -0.48259859
C    1.34654926   4.02775618  -2.17376509
H    2.05419821   3.64683951  -2.91512914
H    1.72246793   4.99656353  -1.80924515
H    0.38203277   4.19663606  -2.67771434
