60
Energy:   -337.14570916
O   -2.61735750  -2.17638548  -0.59124955
H   -2.48842224  -1.56094138  -1.32815357
C   -4.01168356  -2.40058835  -0.45663270
H   -4.13898650  -3.09580298   0.37760694
H   -4.45731722  -2.85843650  -1.35360709
H   -4.56967618  -1.48049266  -0.22244161
O   -1.99998997  -0.39998753  -2.66449539
H   -1.22267197   0.17690535  -2.70183974
C   -2.20194684  -0.93468822  -3.96289533
H   -3.08112233  -1.58193619  -3.90284771
H   -1.35235474  -1.54410925  -4.30869382
H   -2.40137736  -0.15704760  -4.71673873
O   -0.61068118  -0.61998336   3.07183115
H    0.20638641  -1.11484396   2.91078209
C   -1.68782070  -1.54223532   3.02993205
H   -2.60017948  -0.96822271   3.21322464
H   -1.61214267  -2.31999476   3.80590913
H   -1.78646956  -2.03665612   2.05085401
O    0.35312817   1.11828136  -2.67737115
H    1.27745379   0.88721919  -2.50228347
C    0.15952982   2.46151334  -2.26411421
H   -0.88655056   2.70538252  -2.46839070
H    0.79064084   3.17257179  -2.81987684
H    0.33956254   2.60525713  -1.18721901
O    2.95329619   0.44572441  -1.83401208
H    2.99781410   0.32244576  -0.87419762
C    4.10252800   1.17843783  -2.22762492
H    4.03637236   1.30833077  -3.31124684
H    5.04177087   0.64872506  -2.00400797
H    4.14861474   2.17732942  -1.76624771
O    2.83756881   0.11654859   0.95742983
H    2.51856465  -0.64340779   1.46647395
C    2.02792397   1.23138502   1.29528886
H    2.40088122   2.07843363   0.71314048
H    2.09222138   1.49580663   2.36239916
H    0.96782612   1.08061160   1.03792284
O    1.61605280  -2.15248248   2.16859275
H    1.12712375  -2.50312882   1.40937025
C    2.53678682  -3.14827056   2.58475226
H    3.07897746  -2.73687857   3.44048069
H    3.27163331  -3.40076809   1.80435302
H    2.04125827  -4.07678856   2.90891751
O   -0.06468478   3.93042270   1.04204507
H   -0.64545424   3.18689069   1.26179555
C    0.02417145   4.76074560   2.18886773
H    0.68188785   5.59303318   1.92393052
H    0.46200287   4.24239156   3.05627195
H   -0.95009274   5.17759136   2.48857797
O    0.07919149  -2.85732032  -0.04996518
H   -0.87285244  -2.74545814  -0.18968803
C    0.75192483  -2.09523997  -1.03950910
H    1.82293028  -2.23253163  -0.86751051
H    0.53036241  -1.01869400  -0.97068902
H    0.52461603  -2.43204775  -2.06306592
O   -1.58371327   1.64927170   1.69627214
H   -1.31187180   0.89764317   2.24361120
C   -2.05993555   1.13393813   0.46331740
H   -2.36187617   1.99373289  -0.14089286
H   -2.93635582   0.47857656   0.58646795
H   -1.28741618   0.58022210  -0.09291072
