6
Energy:    -19.35783232
O   -0.29895592   1.51678700  -0.98130948
H   -0.17887279   2.15645966  -0.27943288
H   -0.01144953   0.68665982  -0.60122951
O    0.16271102  -1.13903727   0.61508020
H    0.86916916  -1.73637396   0.36944302
H   -0.46820387  -1.69076979   1.07743231
