6
Energy:    -21.43951055
O   -0.85108839   0.76590350   0.09071141
H   -0.36263374   1.52740124   0.40338551
H   -1.52878897   1.13221899  -0.47741421
O    1.05179205  -1.30353343   0.17948507
H    1.28414425  -1.07908323  -0.72155123
H    0.29697829  -0.74932813   0.37783958
