
                                 *****************
                                 * O   R   C   A *
                                 *****************

           --- An Ab Initio, DFT and Semiempirical electronic structure package ---

                  #######################################################
                  #                        -***-                        #
                  #          Department of theory and spectroscopy      #
                  #               Directorship: Frank Neese             #
                  #        Max Planck Institute fuer Kohlenforschung    #
                  #                Kaiser Wilhelm Platz 1               #
                  #                 D-45470 Muelheim/Ruhr               #
                  #                      Germany                        #
                  #                                                     #
                  #                  All rights reserved                #
                  #                        -***-                        #
                  #######################################################


                         Program Version 4.2.0 -  RELEASE  -


 With contributions from (in alphabetic order):
   Daniel Aravena         : Magnetic Suceptibility
   Michael Atanasov       : Ab Initio Ligand Field Theory (pilot matlab implementation)
   Alexander A. Auer      : GIAO ZORA, VPT2
   Ute Becker             : Parallelization
   Giovanni Bistoni       : ED, misc. LED, open-shell LED, HFLED
   Martin Brehm           : Molecular dynamics
   Dmytro Bykov           : SCF Hessian
   Vijay G. Chilkuri      : MRCI spin determinant printing, contributions to CSF-ICE
   Dipayan Datta          : RHF DLPNO-CCSD density
   Achintya Kumar Dutta   : EOM-CC, STEOM-CC
   Dmitry Ganyushin       : Spin-Orbit,Spin-Spin,Magnetic field MRCI
   Miquel Garcia          : C-PCM Hessian, Gaussian charge scheme
   Yang Guo               : DLPNO-NEVPT2, CIM, IAO-localization
   Andreas Hansen         : Spin unrestricted coupled pair/coupled cluster methods
   Benjamin Helmich-Paris : CASSCF linear response (MC-RPA)
   Lee Huntington         : MR-EOM, pCC
   Robert Izsak           : Overlap fitted RIJCOSX, COSX-SCS-MP3, EOM
   Christian Kollmar      : KDIIS, OOCD, Brueckner-CCSD(T), CCSD density
   Simone Kossmann        : Meta GGA functionals, TD-DFT gradient, OOMP2, MP2 Hessian
   Martin Krupicka        : AUTO-CI
   Lucas Lang             : DCDCAS
   Dagmar Lenk            : GEPOL surface, SMD
   Dimitrios Liakos       : Extrapolation schemes; Compound Job, initial MDCI parallelization
   Dimitrios Manganas     : Further ROCIS development; embedding schemes
   Dimitrios Pantazis     : SARC Basis sets
   Taras Petrenko         : DFT Hessian,TD-DFT gradient, ASA, ECA, R-Raman, ABS, FL, XAS/XES, NRVS
   Peter Pinski           : DLPNO-MP2, DLPNO-MP2 Gradient
   Christoph Reimann      : Effective Core Potentials
   Marius Retegan         : Local ZFS, SOC
   Christoph Riplinger    : Optimizer, TS searches, QM/MM, DLPNO-CCSD(T), (RO)-DLPNO pert. Triples
   Tobias Risthaus        : Range-separated hybrids, TD-DFT gradient, RPA, STAB
   Michael Roemelt        : Original ROCIS implementation
   Masaaki Saitow         : Open-shell DLPNO-CCSD energy and density
   Barbara Sandhoefer     : DKH picture change effects
   Avijit Sen             : IP-ROCIS
   Kantharuban Sivalingam : CASSCF convergence, NEVPT2, FIC-MRCI
   Bernardo de Souza      : ESD, SOC TD-DFT
   Georgi Stoychev        : AutoAux, RI-MP2 NMR
   Willem Van den Heuvel  : Paramagnetic NMR
   Boris Wezisla          : Elementary symmetry handling
   Frank Wennmohs         : Technical directorship


 We gratefully acknowledge several colleagues who have allowed us to
 interface, adapt or use parts of their codes:
   Stefan Grimme, W. Hujo, H. Kruse,             : VdW corrections, initial TS optimization,
                  C. Bannwarth                     DFT functionals, gCP, sTDA/sTD-DF
   Ed Valeev, F. Pavosevic, A. Kumar             : LibInt (2-el integral package), F12 methods
   Garnet Chan, S. Sharma, J. Yang, R. Olivares  : DMRG
   Ulf Ekstrom                                   : XCFun DFT Library
   Mihaly Kallay                                 : mrcc  (arbitrary order and MRCC methods)
   Andreas Klamt, Michael Diedenhofen            : otool_cosmo (COSMO solvation model)
   Jiri Pittner, Ondrej Demel                    : Mk-CCSD
   Frank Weinhold                                : gennbo (NPA and NBO analysis)
   Christopher J. Cramer and Donald G. Truhlar   : smd solvation model
   Lars Goerigk                                  : TD-DFT with DH, B97 family of functionals
   V. Asgeirsson, H. Jonsson                     : NEB implementation
   FAccTs GmbH                                   : IRC, NEB, NEB-TS, Multilevel, MM, QM/MM, CI optimization
   S Lehtola, MJT Oliveira, MAL Marques          : LibXC Library


 Your calculation uses the libint2 library for the computation of 2-el integrals
 For citations please refer to: http://libint.valeyev.net

 Your ORCA version has been built with support for libXC version: 4.2.3
 For citations please refer to: https://tddft.org/programs/libxc/

 This ORCA versions uses:
   CBLAS   interface :  Fast vector & matrix operations
   LAPACKE interface :  Fast linear algebra routines
   SCALAPACK package :  Parallel linear algebra routines


----- Orbital basis set information -----
Your calculation utilizes the basis: def2-TZVP
   F. Weigend and R. Ahlrichs, Phys. Chem. Chem. Phys. 7, 3297 (2005).

================================================================================
                                        WARNINGS
                       Please study these warnings very carefully!
================================================================================


WARNING: The frozen-core approximation for MP2-gradient calculations is turned on by default.

INFO   : the flag for use of LIBINT has been found!

================================================================================
                                       INPUT FILE
================================================================================
NAME = 12mecn.remya.etal.2.mol1,9-orca.engrad-mp2.def2tzvp.frozencore.inp
|  1> # 12mecn.remya.etal.2.mol1,9
|  2> ! MP2 def2-TZVP EnGrad TightSCF
|  3> 
|  4> %pal
|  5>     nprocs 6
|  6> end
|  7> 
|  8> %maxcore 8000
|  9> 
| 10> %scf
| 11>     ConvForced true
| 12> end
| 13> 
| 14> *xyz 0 1
| 15> C  -4.697980000  -0.249690000   1.746215000
| 16> H  -4.927570000   0.755530000   2.111799000
| 17> H  -3.709180000  -0.561560000   2.093253000
| 18> H  -5.432280000  -0.961520000   2.128066000
| 19> C  -4.714100000  -0.247110000   0.301670000
| 20> N  -4.729750000  -0.234960000  -0.865260000
| 21> C   0.923766000   4.000693000  -1.575910000
| 22> H   0.011949000   4.478423000  -1.939550000
| 23> H   0.947903000   2.966558000  -1.929960000
| 24> H   1.805950000   4.519548000  -1.956520000
| 25> C   0.942834000   3.994846000  -0.131200000
| 26> N   0.960035000   3.982544000   1.035639000
| 27> *
| 28> 
| 29>                          ****END OF INPUT****
================================================================================

                     *******************************
                     * Energy+Gradient Calculation *
                     *******************************

---------------------------------
CARTESIAN COORDINATES (ANGSTROEM)
---------------------------------
  C     -4.697980   -0.249690    1.746215
  H     -4.927570    0.755530    2.111799
  H     -3.709180   -0.561560    2.093253
  H     -5.432280   -0.961520    2.128066
  C     -4.714100   -0.247110    0.301670
  N     -4.729750   -0.234960   -0.865260
  C      0.923766    4.000693   -1.575910
  H      0.011949    4.478423   -1.939550
  H      0.947903    2.966558   -1.929960
  H      1.805950    4.519548   -1.956520
  C      0.942834    3.994846   -0.131200
  N      0.960035    3.982544    1.035639

----------------------------
CARTESIAN COORDINATES (A.U.)
----------------------------
  NO LB      ZA    FRAG     MASS         X           Y           Z
   0 C     6.0000    0    12.011   -8.877896   -0.471846    3.299868
   1 H     1.0000    0     1.008   -9.311758    1.427745    3.990722
   2 H     1.0000    0     1.008   -7.009334   -1.061195    3.955675
   3 H     1.0000    0     1.008  -10.265521   -1.817009    4.021462
   4 C     6.0000    0    12.011   -8.908358   -0.466970    0.570074
   5 N     7.0000    0    14.007   -8.937932   -0.444010   -1.635104
   6 C     6.0000    0    12.011    1.745665    7.560214   -2.978038
   7 H     1.0000    0     1.008    0.022580    8.462993   -3.665218
   8 H     1.0000    0     1.008    1.791277    5.605982   -3.647096
   9 H     1.0000    0     1.008    3.412751    8.540708   -3.697287
  10 C     6.0000    0    12.011    1.781698    7.549165   -0.247932
  11 N     7.0000    0    14.007    1.814203    7.525917    1.957074

--------------------------------
INTERNAL COORDINATES (ANGSTROEM)
--------------------------------
 C      0   0   0     0.000000000000     0.00000000     0.00000000
 H      1   0   0     1.093997476028     0.00000000     0.00000000
 H      1   2   0     1.093354338878   110.23188073     0.00000000
 H      1   2   3     1.091654077582   109.94364040   119.12222513
 C      1   2   3     1.444637244371   109.27900475   240.05041290
 N      5   1   2     1.167098183488   179.48927802   358.44615688
 C      6   5   1     7.099860767731    95.48655212    67.87948734
 H      7   6   5     1.091728099844    68.24348594   245.44247304
 H      7   6   5     1.093329408501    59.04996266   115.15016504
 H      7   6   5     1.091935480228   164.08990443   156.73133655
 C      7   6   5     1.444847659836    84.72193082   359.69928942
 N     11   7   6     1.167030618933   179.61752891    66.58099395

---------------------------
INTERNAL COORDINATES (A.U.)
---------------------------
 C      0   0   0     0.000000000000     0.00000000     0.00000000
 H      1   0   0     2.067355620894     0.00000000     0.00000000
 H      1   2   0     2.066140267815   110.23188073     0.00000000
 H      1   2   3     2.062927239608   109.94364040   119.12222513
 C      1   2   3     2.729968754725   109.27900475   240.05041290
 N      5   1   2     2.205495938188   179.48927802   358.44615688
 C      6   5   1    13.416792439983    95.48655212    67.87948734
 H      7   6   5     2.063067121411    68.24348594   245.44247304
 H      7   6   5     2.066093156230    59.04996266   115.15016504
 H      7   6   5     2.063459013543   164.08990443   156.73133655
 C      7   6   5     2.730366382327    84.72193082   359.69928942
 N     11   7   6     2.205368259683   179.61752891    66.58099395

---------------------
BASIS SET INFORMATION
---------------------
There are 3 groups of distinct atoms

 Group   1 Type C   : 11s6p2d1f contracted to 5s3p2d1f pattern {62111/411/11/1}
 Group   2 Type H   : 5s1p contracted to 3s1p pattern {311/1}
 Group   3 Type N   : 11s6p2d1f contracted to 5s3p2d1f pattern {62111/411/11/1}

Atom   0C    basis set group =>   1
Atom   1H    basis set group =>   2
Atom   2H    basis set group =>   2
Atom   3H    basis set group =>   2
Atom   4C    basis set group =>   1
Atom   5N    basis set group =>   3
Atom   6C    basis set group =>   1
Atom   7H    basis set group =>   2
Atom   8H    basis set group =>   2
Atom   9H    basis set group =>   2
Atom  10C    basis set group =>   1
Atom  11N    basis set group =>   3


           ************************************************************
           *        Program running with 6 parallel MPI-processes     *
           *              working on a common directory               *
           ************************************************************
------------------------------------------------------------------------------
                           ORCA GTO INTEGRAL CALCULATION
------------------------------------------------------------------------------

                         BASIS SET STATISTICS AND STARTUP INFO

 # of primitive gaussian shells          ...  156
 # of primitive gaussian functions       ...  324
 # of contracted shells                  ...   90
 # of contracted basis functions         ...  222
 Highest angular momentum                ...    3
 Maximum contraction depth               ...    6
 Integral package used                   ... LIBINT
 Integral threshhold            Thresh   ...  2.500e-11
 Primitive cut-off              TCut     ...  2.500e-12


------------------------------ INTEGRAL EVALUATION ----------------------------


 * One electron integrals 
 Pre-screening matrix                    ... done
 Shell pair data                         ... done (   0.001 sec)



           ************************************************************
           *        Program running with 6 parallel MPI-processes     *
           *              working on a common directory               *
           ************************************************************
-------------------------------------------------------------------------------
                                 ORCA SCF
-------------------------------------------------------------------------------

------------
SCF SETTINGS
------------
Hamiltonian:
 Ab initio Hamiltonian  Method          .... Hartree-Fock(GTOs)


General Settings:
 Integral files         IntName         .... 12mecn.remya.etal.2.mol1,9-orca.engrad-mp2.def2tzvp.frozencore
 Hartree-Fock type      HFTyp           .... RHF
 Total Charge           Charge          ....    0
 Multiplicity           Mult            ....    1
 Number of Electrons    NEL             ....   44
 Basis Dimension        Dim             ....  222
 Nuclear Repulsion      ENuc            ....    151.9781176588 Eh

Convergence Acceleration:
 DIIS                   CNVDIIS         .... on
   Start iteration      DIISMaxIt       ....    12
   Startup error        DIISStart       ....  0.200000
   # of expansion vecs  DIISMaxEq       ....     5
   Bias factor          DIISBfac        ....   1.050
   Max. coefficient     DIISMaxC        ....  10.000
 Newton-Raphson         CNVNR           .... off
 SOSCF                  CNVSOSCF        .... on
   Start iteration      SOSCFMaxIt      ....   150
   Startup grad/error   SOSCFStart      ....  0.003300
 Level Shifting         CNVShift        .... on
   Level shift para.    LevelShift      ....    0.2500
   Turn off err/grad.   ShiftErr        ....    0.0010
 Zerner damping         CNVZerner       .... off
 Static damping         CNVDamp         .... on
   Fraction old density DampFac         ....    0.7000
   Max. Damping (<1)    DampMax         ....    0.9800
   Min. Damping (>=0)   DampMin         ....    0.0000
   Turn off err/grad.   DampErr         ....    0.1000
 Fernandez-Rico         CNVRico         .... off

SCF Procedure:
 Maximum # iterations   MaxIter         ....   125
 SCF integral mode      SCFMode         .... Direct
   Integral package                     .... LIBINT
 Reset frequency        DirectResetFreq ....    20
 Integral Threshold     Thresh          ....  2.500e-11 Eh
 Primitive CutOff       TCut            ....  2.500e-12 Eh

Convergence Tolerance:
 Convergence Check Mode ConvCheckMode   .... Total+1el-Energy
 Convergence forced     ConvForced      .... 1
 Energy Change          TolE            ....  1.000e-08 Eh
 1-El. energy change                    ....  1.000e-05 Eh
 Orbital Gradient       TolG            ....  1.000e-05
 Orbital Rotation angle TolX            ....  1.000e-05
 DIIS Error             TolErr          ....  5.000e-07


Diagonalization of the overlap matrix:
Smallest eigenvalue                        ... 1.571e-04
Time for diagonalization                   ...    0.007 sec
Threshold for overlap eigenvalues          ... 1.000e-08
Number of eigenvalues below threshold      ... 0
Time for construction of square roots      ...    0.004 sec
Total time needed                          ...    0.011 sec

-------------------
DFT GRID GENERATION
-------------------

General Integration Accuracy     IntAcc      ...  4.340
Radial Grid Type                 RadialGrid  ... Gauss-Chebyshev
Angular Grid (max. acc.)         AngularGrid ... Lebedev-110
Angular grid pruning method      GridPruning ... 3 (G Style)
Weight generation scheme         WeightScheme... Becke
Basis function cutoff            BFCut       ...    1.0000e-11
Integration weight cutoff        WCut        ...    1.0000e-14
Grids for H and He will be reduced by one unit

# of grid points (after initial pruning)     ...  14792 (   0.0 sec)
# of grid points (after weights+screening)   ...  14259 (   0.0 sec)
nearest neighbour list constructed           ...    0.0 sec
Grid point re-assignment to atoms done       ...    0.0 sec
Grid point division into batches done        ...    0.0 sec
Reduced shell lists constructed in    0.0 sec

Total number of grid points                  ...    14259
Total number of batches                      ...      229
Average number of points per batch           ...       62
Average number of grid points per atom       ...     1188
Average number of shells per batch           ...    44.35 (49.28%)
Average number of basis functions per batch  ...   105.85 (47.68%)
Average number of large shells per batch     ...    32.62 (73.56%)
Average number of large basis fcns per batch ...    79.58 (75.18%)
Maximum spatial batch extension              ...  19.52, 18.92, 19.08 au
Average spatial batch extension              ...   0.74,  0.70,  0.80 au

Time for grid setup =    0.037 sec

------------------------------
INITIAL GUESS: MODEL POTENTIAL
------------------------------
Loading Hartree-Fock densities                     ... done
Calculating cut-offs                               ... done
Setting up the integral package                    ... done
Initializing the effective Hamiltonian             ... done
Starting the Coulomb interaction                   ... done (   0.0 sec)
Reading the grid                                   ... done
Mapping shells                                     ... done
Starting the XC term evaluation                    ... done (   0.0 sec)
Transforming the Hamiltonian                       ... done (   0.0 sec)
Diagonalizing the Hamiltonian                      ... done (   0.0 sec)
Back transforming the eigenvectors                 ... done (   0.0 sec)
Now organizing SCF variables                       ... done
                      ------------------
                      INITIAL GUESS DONE (   0.2 sec)
                      ------------------
--------------
SCF ITERATIONS
--------------
ITER       Energy         Delta-E        Max-DP      RMS-DP      [F,P]     Damp
               ***  Starting incremental Fock matrix formation  ***
  0   -263.6161579113   0.000000000000 0.03767679  0.00106057  0.2808769 0.7000
  1   -263.7360442985  -0.119886387283 0.02698844  0.00084222  0.1878389 0.7000
                               ***Turning on DIIS***
  2   -263.8060180644  -0.069973765907 0.01609495  0.00054669  0.1420714 0.7000
  3   -264.4412604226  -0.635242358107 0.00993875  0.00034719  0.1055684 0.7000
  4   -264.4088443766   0.032416045968 0.02716796  0.00084592  0.0744132 0.0000
  5   -263.9690502290   0.439794147540 0.00616657  0.00015202  0.0060632 0.0000
                      *** Initiating the SOSCF procedure ***
                           *** Shutting down DIIS ***
                      *** Re-Reading the Fockian *** 
                      *** Removing any level shift *** 
ITER      Energy       Delta-E        Grad      Rot      Max-DP    RMS-DP
  6   -263.95689175   0.0121584759  0.001160  0.001160  0.004250  0.000096
               *** Restarting incremental Fock matrix formation ***
  7   -263.94994034   0.0069514117  0.000379  0.000561  0.002996  0.000068
  8   -263.94995286  -0.0000125161  0.000326  0.000475  0.002492  0.000057
  9   -263.94995554  -0.0000026855  0.000115  0.000142  0.000764  0.000016
 10   -263.94995602  -0.0000004732  0.000012  0.000011  0.000065  0.000001
 11   -263.94995602  -0.0000000058  0.000005  0.000009  0.000017  0.000000
                  ***Gradient check signals convergence***
              ***Rediagonalizing the Fockian in SOSCF/NRSCF***

               *****************************************************
               *                     SUCCESS                       *
               *           SCF CONVERGED AFTER  12 CYCLES          *
               *****************************************************


----------------
TOTAL SCF ENERGY
----------------

Total Energy       :         -263.94995602 Eh           -7182.44345 eV

Components:
Nuclear Repulsion  :          151.97811766 Eh            4135.53483 eV
Electronic Energy  :         -415.92807368 Eh          -11317.97828 eV
One Electron Energy:         -656.54450882 Eh          -17865.48435 eV
Two Electron Energy:          240.61643514 Eh            6547.50607 eV

Virial components:
Potential Energy   :         -527.36833423 Eh          -14350.42194 eV
Kinetic Energy     :          263.41837821 Eh            7167.97848 eV
Virial Ratio       :            2.00201800


---------------
SCF CONVERGENCE
---------------

  Last Energy change         ...   -1.2072e-09  Tolerance :   1.0000e-08
  Last MAX-Density change    ...    8.2545e-06  Tolerance :   1.0000e-07
  Last RMS-Density change    ...    1.6859e-07  Tolerance :   5.0000e-09
  Last Orbital Gradient      ...    1.2684e-06  Tolerance :   1.0000e-05
  Last Orbital Rotation      ...    2.6118e-06  Tolerance :   1.0000e-05

             **** THE GBW FILE WAS UPDATED (12mecn.remya.etal.2.mol1,9-orca.engrad-mp2.def2tzvp.frozencore.gbw) ****
             **** DENSITY FILE WAS UPDATED (12mecn.remya.etal.2.mol1,9-orca.engrad-mp2.def2tzvp.frozencore.scfp) ****
             **** ENERGY FILE WAS UPDATED (12mecn.remya.etal.2.mol1,9-orca.engrad-mp2.def2tzvp.frozencore.en.tmp) ****
             **** THE GBW FILE WAS UPDATED (12mecn.remya.etal.2.mol1,9-orca.engrad-mp2.def2tzvp.frozencore.gbw) ****
             **** DENSITY FILE WAS UPDATED (12mecn.remya.etal.2.mol1,9-orca.engrad-mp2.def2tzvp.frozencore.scfp) ****
----------------
ORBITAL ENERGIES
----------------

  NO   OCC          E(Eh)            E(eV) 
   0   2.0000     -15.573127      -423.7663 
   1   2.0000     -15.573121      -423.7662 
   2   2.0000     -11.283718      -307.0456 
   3   2.0000     -11.283474      -307.0390 
   4   2.0000     -11.280444      -306.9565 
   5   2.0000     -11.280440      -306.9564 
   6   2.0000      -1.214506       -33.0484 
   7   2.0000      -1.214489       -33.0479 
   8   2.0000      -1.043413       -28.3927 
   9   2.0000      -1.043370       -28.3916 
  10   2.0000      -0.699648       -19.0384 
  11   2.0000      -0.699359       -19.0305 
  12   2.0000      -0.633082       -17.2270 
  13   2.0000      -0.632991       -17.2246 
  14   2.0000      -0.629024       -17.1166 
  15   2.0000      -0.628978       -17.1154 
  16   2.0000      -0.556199       -15.1349 
  17   2.0000      -0.556178       -15.1344 
  18   2.0000      -0.457992       -12.4626 
  19   2.0000      -0.457802       -12.4574 
  20   2.0000      -0.457293       -12.4436 
  21   2.0000      -0.457177       -12.4404 
  22   0.0000       0.119482         3.2513 
  23   0.0000       0.121801         3.3144 
  24   0.0000       0.171795         4.6748 
  25   0.0000       0.172209         4.6860 
  26   0.0000       0.172751         4.7008 
  27   0.0000       0.172997         4.7075 
  28   0.0000       0.202106         5.4996 
  29   0.0000       0.203845         5.5469 
  30   0.0000       0.224391         6.1060 
  31   0.0000       0.225353         6.1322 
  32   0.0000       0.225751         6.1430 
  33   0.0000       0.227155         6.1812 
  34   0.0000       0.264319         7.1925 
  35   0.0000       0.265316         7.2196 
  36   0.0000       0.319639         8.6978 
  37   0.0000       0.321094         8.7374 
  38   0.0000       0.324475         8.8294 
  39   0.0000       0.326517         8.8850 
  40   0.0000       0.380025        10.3410 
  41   0.0000       0.381564        10.3829 
  42   0.0000       0.381770        10.3885 
  43   0.0000       0.383830        10.4445 
  44   0.0000       0.407304        11.0833 
  45   0.0000       0.409249        11.1362 
  46   0.0000       0.496426        13.5084 
  47   0.0000       0.497264        13.5312 
  48   0.0000       0.530063        14.4237 
  49   0.0000       0.530925        14.4472 
  50   0.0000       0.588085        16.0026 
  51   0.0000       0.589696        16.0464 
  52   0.0000       0.598899        16.2969 
  53   0.0000       0.599615        16.3163 
  54   0.0000       0.601534        16.3686 
  55   0.0000       0.602316        16.3898 
  56   0.0000       0.657666        17.8960 
  57   0.0000       0.659350        17.9418 
  58   0.0000       0.659749        17.9527 
  59   0.0000       0.660625        17.9765 
  60   0.0000       0.703853        19.1528 
  61   0.0000       0.706806        19.2332 
  62   0.0000       0.805374        21.9153 
  63   0.0000       0.811089        22.0709 
  64   0.0000       0.812807        22.1176 
  65   0.0000       0.813275        22.1303 
  66   0.0000       0.815202        22.1828 
  67   0.0000       0.815329        22.1862 
  68   0.0000       0.918377        24.9903 
  69   0.0000       0.919365        25.0172 
  70   0.0000       0.920165        25.0390 
  71   0.0000       0.920913        25.0593 
  72   0.0000       1.032130        28.0857 
  73   0.0000       1.032195        28.0875 
  74   0.0000       1.123166        30.5629 
  75   0.0000       1.124219        30.5916 
  76   0.0000       1.124543        30.6004 
  77   0.0000       1.125673        30.6311 
  78   0.0000       1.322988        36.0003 
  79   0.0000       1.323288        36.0085 
  80   0.0000       1.420753        38.6606 
  81   0.0000       1.421448        38.6796 
  82   0.0000       1.423464        38.7344 
  83   0.0000       1.423923        38.7469 
  84   0.0000       1.448998        39.4292 
  85   0.0000       1.449221        39.4353 
  86   0.0000       1.469964        39.9997 
  87   0.0000       1.471195        40.0332 
  88   0.0000       1.473168        40.0869 
  89   0.0000       1.474195        40.1149 
  90   0.0000       1.509106        41.0649 
  91   0.0000       1.510346        41.0986 
  92   0.0000       1.696169        46.1551 
  93   0.0000       1.698638        46.2223 
  94   0.0000       1.698745        46.2252 
  95   0.0000       1.701044        46.2878 
  96   0.0000       1.737594        47.2823 
  97   0.0000       1.738680        47.3119 
  98   0.0000       1.748024        47.5662 
  99   0.0000       1.748935        47.5909 
 100   0.0000       1.798883        48.9501 
 101   0.0000       1.800714        48.9999 
 102   0.0000       1.802538        49.0495 
 103   0.0000       1.805275        49.1240 
 104   0.0000       1.934475        52.6397 
 105   0.0000       1.934897        52.6512 
 106   0.0000       1.936118        52.6845 
 107   0.0000       1.936329        52.6902 
 108   0.0000       1.969680        53.5977 
 109   0.0000       1.971005        53.6338 
 110   0.0000       2.224844        60.5411 
 111   0.0000       2.225181        60.5503 
 112   0.0000       2.233155        60.7672 
 113   0.0000       2.239359        60.9360 
 114   0.0000       2.248844        61.1942 
 115   0.0000       2.255250        61.3685 
 116   0.0000       2.342074        63.7311 
 117   0.0000       2.342715        63.7485 
 118   0.0000       2.545688        69.2717 
 119   0.0000       2.549531        69.3763 
 120   0.0000       2.552343        69.4528 
 121   0.0000       2.554851        69.5210 
 122   0.0000       2.573976        70.0414 
 123   0.0000       2.579836        70.2009 
 124   0.0000       2.616949        71.2108 
 125   0.0000       2.620529        71.3082 
 126   0.0000       2.628160        71.5159 
 127   0.0000       2.630228        71.5721 
 128   0.0000       2.703211        73.5581 
 129   0.0000       2.705258        73.6138 
 130   0.0000       2.736116        74.4535 
 131   0.0000       2.739151        74.5361 
 132   0.0000       2.747620        74.7665 
 133   0.0000       2.748673        74.7952 
 134   0.0000       2.912183        79.2445 
 135   0.0000       2.912599        79.2558 
 136   0.0000       2.913286        79.2745 
 137   0.0000       2.913358        79.2765 
 138   0.0000       2.945513        80.1515 
 139   0.0000       2.948979        80.2458 
 140   0.0000       2.954171        80.3871 
 141   0.0000       2.957733        80.4840 
 142   0.0000       3.024215        82.2931 
 143   0.0000       3.025806        82.3364 
 144   0.0000       3.087097        84.0042 
 145   0.0000       3.090735        84.1032 
 146   0.0000       3.091868        84.1340 
 147   0.0000       3.096270        84.2538 
 148   0.0000       3.236040        88.0571 
 149   0.0000       3.236670        88.0743 
 150   0.0000       3.243719        88.2661 
 151   0.0000       3.244323        88.2825 
 152   0.0000       3.246148        88.3322 
 153   0.0000       3.247881        88.3793 
 154   0.0000       3.329032        90.5876 
 155   0.0000       3.332236        90.6748 
 156   0.0000       3.334904        90.7473 
 157   0.0000       3.337167        90.8089 
 158   0.0000       3.438312        93.5612 
 159   0.0000       3.442276        93.6691 
 160   0.0000       3.446597        93.7867 
 161   0.0000       3.449155        93.8563 
 162   0.0000       3.486430        94.8706 
 163   0.0000       3.487449        94.8983 
 164   0.0000       3.634879        98.9101 
 165   0.0000       3.635549        98.9283 
 166   0.0000       3.654588        99.4464 
 167   0.0000       3.655796        99.4793 
 168   0.0000       3.800642       103.4207 
 169   0.0000       3.803228       103.4911 
 170   0.0000       3.804153       103.5163 
 171   0.0000       3.806397       103.5773 
 172   0.0000       3.928060       106.8879 
 173   0.0000       3.928934       106.9117 
 174   0.0000       3.947387       107.4139 
 175   0.0000       3.950643       107.5025 
 176   0.0000       3.954151       107.5979 
 177   0.0000       3.958657       107.7205 
 178   0.0000       4.242004       115.4308 
 179   0.0000       4.247500       115.5803 
 180   0.0000       4.252894       115.7271 
 181   0.0000       4.255036       115.7854 
 182   0.0000       4.341795       118.1462 
 183   0.0000       4.341810       118.1467 
 184   0.0000       4.346586       118.2766 
 185   0.0000       4.346600       118.2770 
 186   0.0000       4.564369       124.2028 
 187   0.0000       4.564707       124.2120 
 188   0.0000       4.740158       128.9863 
 189   0.0000       4.742100       129.0391 
 190   0.0000       4.758268       129.4790 
 191   0.0000       4.758859       129.4951 
 192   0.0000       4.838974       131.6752 
 193   0.0000       4.839084       131.6782 
 194   0.0000       4.959697       134.9602 
 195   0.0000       4.960489       134.9818 
 196   0.0000       4.961456       135.0081 
 197   0.0000       4.962209       135.0286 
 198   0.0000       5.066433       137.8646 
 199   0.0000       5.066915       137.8778 
 200   0.0000       5.068443       137.9193 
 201   0.0000       5.068814       137.9295 
 202   0.0000       5.198235       141.4512 
 203   0.0000       5.199122       141.4753 
 204   0.0000       5.556883       151.2105 
 205   0.0000       5.557007       151.2139 
 206   0.0000       5.557627       151.2307 
 207   0.0000       5.557777       151.2348 
 208   0.0000       6.022057       163.8685 
 209   0.0000       6.022176       163.8717 
 210   0.0000       6.085823       165.6037 
 211   0.0000       6.086933       165.6339 
 212   0.0000       6.087050       165.6370 
 213   0.0000       6.088013       165.6633 
 214   0.0000       6.463631       175.8844 
 215   0.0000       6.463861       175.8906 
 216   0.0000      23.472671       638.7239 
 217   0.0000      23.475585       638.8031 
 218   0.0000      24.381321       663.4495 
 219   0.0000      24.382170       663.4726 
 220   0.0000      33.388618       908.5505 
 221   0.0000      33.395283       908.7318 

                    ********************************
                    * MULLIKEN POPULATION ANALYSIS *
                    ********************************

-----------------------
MULLIKEN ATOMIC CHARGES
-----------------------
   0 C :   -0.163910
   1 H :    0.157690
   2 H :    0.157583
   3 H :    0.155091
   4 C :   -0.104908
   5 N :   -0.201546
   6 C :   -0.164023
   7 H :    0.157665
   8 H :    0.157314
   9 H :    0.155276
  10 C :   -0.104915
  11 N :   -0.201316
Sum of atomic charges:   -0.0000000

--------------------------------
MULLIKEN REDUCED ORBITAL CHARGES
--------------------------------
  0 C s       :     3.148764  s :     3.148764
      pz      :     0.792116  p :     2.949975
      px      :     1.080082
      py      :     1.077778
      dz2     :     0.017934  d :     0.061702
      dxz     :     0.010944
      dyz     :     0.011361
      dx2y2   :     0.010634
      dxy     :     0.010829
      f0      :     0.001722  f :     0.003469
      f+1     :     0.000200
      f-1     :     0.000200
      f+2     :     0.000047
      f-2     :     0.000076
      f+3     :     0.000494
      f-3     :     0.000730
  1 H s       :     0.819927  s :     0.819927
      pz      :     0.004843  p :     0.022383
      px      :     0.004149
      py      :     0.013392
  2 H s       :     0.819980  s :     0.819980
      pz      :     0.004747  p :     0.022437
      px      :     0.013076
      py      :     0.004613
  3 H s       :     0.822472  s :     0.822472
      pz      :     0.005018  p :     0.022437
      px      :     0.008857
      py      :     0.008562
  4 C s       :     3.234824  s :     3.234824
      pz      :     0.970014  p :     2.738837
      px      :     0.883828
      py      :     0.884994
      dz2     :     0.026457  d :     0.113914
      dxz     :     0.043555
      dyz     :     0.043325
      dx2y2   :     0.000309
      dxy     :     0.000267
      f0      :     0.004115  f :     0.017334
      f+1     :     0.006575
      f-1     :     0.006575
      f+2     :     0.000037
      f-2     :     0.000031
      f+3     :     0.000000
      f-3     :     0.000000
  5 N s       :     3.715184  s :     3.715184
      pz      :     1.288121  p :     3.428425
      px      :     1.070900
      py      :     1.069403
      dz2     :     0.011669  d :     0.054970
      dxz     :     0.021637
      dyz     :     0.021654
      dx2y2   :     0.000005
      dxy     :     0.000005
      f0      :     0.000623  f :     0.002967
      f+1     :     0.001170
      f-1     :     0.001172
      f+2     :     0.000001
      f-2     :     0.000001
      f+3     :    -0.000000
      f-3     :    -0.000000
  6 C s       :     3.148137  s :     3.148137
      pz      :     0.792188  p :     2.950714
      px      :     1.077436
      py      :     1.081090
      dz2     :     0.017865  d :     0.061705
      dxz     :     0.011423
      dyz     :     0.010977
      dx2y2   :     0.011354
      dxy     :     0.010086
      f0      :     0.001726  f :     0.003467
      f+1     :     0.000200
      f-1     :     0.000198
      f+2     :     0.000062
      f-2     :     0.000063
      f+3     :     0.000008
      f-3     :     0.001211
  7 H s       :     0.819879  s :     0.819879
      pz      :     0.004849  p :     0.022457
      px      :     0.011731
      py      :     0.005876
  8 H s       :     0.820235  s :     0.820235
      pz      :     0.004815  p :     0.022452
      px      :     0.003711
      py      :     0.013926
  9 H s       :     0.822304  s :     0.822304
      pz      :     0.004993  p :     0.022421
      px      :     0.011157
      py      :     0.006270
 10 C s       :     3.234838  s :     3.234838
      pz      :     0.969952  p :     2.738851
      px      :     0.885947
      py      :     0.882952
      dz2     :     0.026493  d :     0.113894
      dxz     :     0.042985
      dyz     :     0.043844
      dx2y2   :     0.000277
      dxy     :     0.000296
      f0      :     0.004115  f :     0.017332
      f+1     :     0.006557
      f-1     :     0.006590
      f+2     :     0.000036
      f-2     :     0.000033
      f+3     :     0.000000
      f-3     :     0.000000
 11 N s       :     3.715150  s :     3.715150
      pz      :     1.288057  p :     3.428228
      px      :     1.068129
      py      :     1.072042
      dz2     :     0.011668  d :     0.054971
      dxz     :     0.021668
      dyz     :     0.021623
      dx2y2   :     0.000006
      dxy     :     0.000005
      f0      :     0.000623  f :     0.002967
      f+1     :     0.001172
      f-1     :     0.001170
      f+2     :     0.000001
      f-2     :     0.000001
      f+3     :     0.000000
      f-3     :     0.000000


                     *******************************
                     * LOEWDIN POPULATION ANALYSIS *
                     *******************************

----------------------
LOEWDIN ATOMIC CHARGES
----------------------
   0 C :   -0.244023
   1 H :    0.145342
   2 H :    0.145297
   3 H :    0.143135
   4 C :   -0.198504
   5 N :    0.008753
   6 C :   -0.243881
   7 H :    0.143951
   8 H :    0.145801
   9 H :    0.143434
  10 C :   -0.198186
  11 N :    0.008881

-------------------------------
LOEWDIN REDUCED ORBITAL CHARGES
-------------------------------
  0 C s       :     2.813985  s :     2.813985
      pz      :     1.024615  p :     3.142794
      px      :     1.060407
      py      :     1.057773
      dz2     :     0.078034  d :     0.261833
      dxz     :     0.060285
      dyz     :     0.061941
      dx2y2   :     0.030638
      dxy     :     0.030934
      f0      :     0.007400  f :     0.025411
      f+1     :     0.005196
      f-1     :     0.005121
      f+2     :     0.002094
      f-2     :     0.002318
      f+3     :     0.001323
      f-3     :     0.001958
  1 H s       :     0.793969  s :     0.793969
      pz      :     0.012650  p :     0.060689
      px      :     0.013287
      py      :     0.034753
  2 H s       :     0.793880  s :     0.793880
      pz      :     0.012450  p :     0.060823
      px      :     0.034050
      py      :     0.014323
  3 H s       :     0.795834  s :     0.795834
      pz      :     0.013016  p :     0.061031
      px      :     0.024428
      py      :     0.023586
  4 C s       :     2.839221  s :     2.839221
      pz      :     1.192895  p :     2.850425
      px      :     0.828557
      py      :     0.828973
      dz2     :     0.154219  d :     0.450068
      dxz     :     0.147834
      dyz     :     0.147351
      dx2y2   :     0.000377
      dxy     :     0.000288
      f0      :     0.023062  f :     0.058790
      f+1     :     0.017808
      f-1     :     0.017790
      f+2     :     0.000076
      f-2     :     0.000053
      f+3     :     0.000000
      f-3     :     0.000001
  5 N s       :     3.314486  s :     3.314486
      pz      :     1.495515  p :     3.551444
      px      :     1.028530
      py      :     1.027399
      dz2     :     0.045853  d :     0.110996
      dxz     :     0.032535
      dyz     :     0.032588
      dx2y2   :     0.000010
      dxy     :     0.000010
      f0      :     0.006228  f :     0.014321
      f+1     :     0.004041
      f-1     :     0.004046
      f+2     :     0.000003
      f-2     :     0.000003
      f+3     :     0.000000
      f-3     :     0.000000
  6 C s       :     2.813596  s :     2.813596
      pz      :     1.024324  p :     3.143048
      px      :     1.058187
      py      :     1.060537
      dz2     :     0.077899  d :     0.261833
      dxz     :     0.062275
      dyz     :     0.060196
      dx2y2   :     0.032147
      dxy     :     0.029317
      f0      :     0.007398  f :     0.025404
      f+1     :     0.005098
      f-1     :     0.005180
      f+2     :     0.002252
      f-2     :     0.002196
      f+3     :     0.000026
      f-3     :     0.003253
  7 H s       :     0.794971  s :     0.794971
      pz      :     0.012696  p :     0.061078
      px      :     0.030958
      py      :     0.017423
  8 H s       :     0.793383  s :     0.793383
      pz      :     0.012591  p :     0.060817
      px      :     0.012250
      py      :     0.035976
  9 H s       :     0.795606  s :     0.795606
      pz      :     0.012969  p :     0.060960
      px      :     0.029640
      py      :     0.018351
 10 C s       :     2.839224  s :     2.839224
      pz      :     1.192719  p :     2.850363
      px      :     0.829650
      py      :     0.827994
      dz2     :     0.154195  d :     0.449812
      dxz     :     0.146410
      dyz     :     0.148543
      dx2y2   :     0.000306
      dxy     :     0.000358
      f0      :     0.023059  f :     0.058787
      f+1     :     0.017749
      f-1     :     0.017846
      f+2     :     0.000072
      f-2     :     0.000060
      f+3     :     0.000000
      f-3     :     0.000001
 11 N s       :     3.314454  s :     3.314454
      pz      :     1.495507  p :     3.551325
      px      :     1.026355
      py      :     1.029463
      dz2     :     0.045855  d :     0.111014
      dxz     :     0.032651
      dyz     :     0.032485
      dx2y2   :     0.000012
      dxy     :     0.000010
      f0      :     0.006230  f :     0.014326
      f+1     :     0.004056
      f-1     :     0.004034
      f+2     :     0.000004
      f-2     :     0.000003
      f+3     :     0.000000
      f-3     :     0.000000


                      *****************************
                      * MAYER POPULATION ANALYSIS *
                      *****************************

  NA   - Mulliken gross atomic population
  ZA   - Total nuclear charge
  QA   - Mulliken gross atomic charge
  VA   - Mayer's total valence
  BVA  - Mayer's bonded valence
  FA   - Mayer's free valence

  ATOM       NA         ZA         QA         VA         BVA        FA
  0 C      6.1639     6.0000    -0.1639     3.8054     3.8054    -0.0000
  1 H      0.8423     1.0000     0.1577     0.9620     0.9620    -0.0000
  2 H      0.8424     1.0000     0.1576     0.9619     0.9619    -0.0000
  3 H      0.8449     1.0000     0.1551     0.9618     0.9618    -0.0000
  4 C      6.1049     6.0000    -0.1049     3.9233     3.9233    -0.0000
  5 N      7.2015     7.0000    -0.2015     3.0383     3.0383     0.0000
  6 C      6.1640     6.0000    -0.1640     3.8057     3.8057    -0.0000
  7 H      0.8423     1.0000     0.1577     0.9621     0.9621    -0.0000
  8 H      0.8427     1.0000     0.1573     0.9619     0.9619    -0.0000
  9 H      0.8447     1.0000     0.1553     0.9618     0.9618    -0.0000
 10 C      6.1049     6.0000    -0.1049     3.9236     3.9236    -0.0000
 11 N      7.2013     7.0000    -0.2013     3.0382     3.0382     0.0000

  Mayer bond orders larger than 0.100000
B(  0-C ,  1-H ) :   0.9616 B(  0-C ,  2-H ) :   0.9624 B(  0-C ,  3-H ) :   0.9637 
B(  0-C ,  4-C ) :   0.9287 B(  4-C ,  5-N ) :   3.0128 B(  6-C ,  7-H ) :   0.9618 
B(  6-C ,  8-H ) :   0.9631 B(  6-C ,  9-H ) :   0.9630 B(  6-C , 10-C ) :   0.9289 
B( 10-C , 11-N ) :   3.0128 

-------
TIMINGS
-------

Total SCF time: 0 days 0 hours 0 min 9 sec 

Total time                  ....       9.319 sec
Sum of individual times     ....       9.091 sec  ( 97.6%)

Fock matrix formation       ....       8.824 sec  ( 94.7%)
Diagonalization             ....       0.052 sec  (  0.6%)
Density matrix formation    ....       0.007 sec  (  0.1%)
Population analysis         ....       0.006 sec  (  0.1%)
Initial guess               ....       0.120 sec  (  1.3%)
Orbital Transformation      ....       0.000 sec  (  0.0%)
Orbital Orthonormalization  ....       0.000 sec  (  0.0%)
DIIS solution               ....       0.018 sec  (  0.2%)
SOSCF solution              ....       0.027 sec  (  0.3%)


           ************************************************************
           *        Program running with 6 parallel MPI-processes     *
           *              working on a common directory               *
           ************************************************************

------------------------------------------------------------------------------
                                ORCA  MP2 
------------------------------------------------------------------------------

Freezing NCore=12 chemical core electrons
MP2 will be done in the AO integral direct mode
The Q1-step will be done using symmetric double matrices
Dimension of the basis                    ...  222
Memory devoted for MP2                    ... 8000 MB   
Memory needed for all in one shot         ...  127 MB
Number of MOs that can be treated together...  189      
MP2 density construction                  ... relaxed
The MP2 gradient is requested => amplitudes will be stored on disk
Total number of MOs              ...   16
Number of MOs treated per batch  ...    3 
Number of batches necessary      ...    1 
OPERATORS   0/  0 PASS   0
-----------------------------------------------
 MP2 CORRELATION ENERGY   :     -1.017149774 Eh
-----------------------------------------------


---------------------
MP2 DENSITY FORMATION
---------------------

Completing the external part of the density      ... done
Storing the unrelaxed density                    ... done

Calculating G(D)                                 ... done
Completing the Lagrangian                        ... done
Solving the Z-vector equations                   ... 

------------------------------------------------------------------------------
                           ORCA CP-SCF CALCULATION
------------------------------------------------------------------------------

Input orbitals are from        ... 12mecn.remya.etal.2.mol1,9-orca.engrad-mp2.def2tzvp.frozencore.gbw
Input Perturbation             ... 12mecn.remya.etal.2.mol1,9-orca.engrad-mp2.def2tzvp.frozencore.pin.tmp
Wavefunction output            ... 12mecn.remya.etal.2.mol1,9-orca.engrad-mp2.def2tzvp.frozencore.pout.tmp
Perturbation mode              ... Real perturbation (singlet)
Solver                         ... POPLE
Max. number of iterations      ... 128
Convergence tolerance          ... 1.000e-08
Integral handling              ... Direct
Number of perturbations        ... 1
Number of operators            ... 1
Orbital ranges used for CP-SCF:
 Operator 0:  Orbitals   0... 21  to  22...221
Variables per vector in CP-SCF ... 4400
Number of vectors sought       ... 1
     CP-SCF ITERATION   0: 
     CP-SCF ITERATION   1:      0.000912867927
     CP-SCF ITERATION   2:      0.000181421276
     CP-SCF ITERATION   3:      0.000003924190
     CP-SCF ITERATION   4:      0.000000256666
     CP-SCF ITERATION   5:      0.000000037671
     CP-SCF ITERATION   6:      0.000000006757
                                                 ... done
Finalizing the relaxed density                   ... done
Transforming P to the AO basis                   ... done
Storing the relaxed density                      ... done

------------------------------------
ENERGY WEIGHTED DENSITY FINALIZATION
------------------------------------

Gathering the parts of the W-matrix              ...                                                      done
Forming the Z-density                            ... done
Transforming Z to the AO basis                   ... done
Calculating G(Z)                                 ... done
Finalizing the W-matrix                          ...                                                      done
Transforming W to the AO basis and storing       ... done

                *********************************************
                * UNRELAXED MP2 DENSITY POPULATION ANALYSIS *
                *********************************************

------------------------------------------------------------------------------
                           ORCA POPULATION ANALYSIS
------------------------------------------------------------------------------
Input electron density              ... 12mecn.remya.etal.2.mol1,9-orca.engrad-mp2.def2tzvp.frozencore.pmp2ur
BaseName (.gbw .S,...)              ... 12mecn.remya.etal.2.mol1,9-orca.engrad-mp2.def2tzvp.frozencore

                    ********************************
                    * MULLIKEN POPULATION ANALYSIS *
                    ********************************

-----------------------
MULLIKEN ATOMIC CHARGES
-----------------------
   0 C :   -0.177125
   1 H :    0.160256
   2 H :    0.160150
   3 H :    0.157671
   4 C :   -0.113837
   5 N :   -0.187115
   6 C :   -0.177244
   7 H :    0.160236
   8 H :    0.159879
   9 H :    0.157854
  10 C :   -0.113832
  11 N :   -0.186894
Sum of atomic charges:   -0.0000000

--------------------------------
MULLIKEN REDUCED ORBITAL CHARGES
--------------------------------
  0 C s       :     3.147137  s :     3.147137
      pz      :     0.790955  p :     2.935428
      px      :     1.073362
      py      :     1.071111
      dz2     :     0.020399  d :     0.087228
      dxz     :     0.017025
      dyz     :     0.017440
      dx2y2   :     0.016083
      dxy     :     0.016280
      f0      :     0.002117  f :     0.007332
      f+1     :     0.000867
      f-1     :     0.000871
      f+2     :     0.000589
      f-2     :     0.000615
      f+3     :     0.001030
      f-3     :     0.001244
  1 H s       :     0.814559  s :     0.814559
      pz      :     0.005833  p :     0.025185
      px      :     0.005178
      py      :     0.014175
  2 H s       :     0.814603  s :     0.814603
      pz      :     0.005742  p :     0.025247
      px      :     0.013873
      py      :     0.005632
  3 H s       :     0.817072  s :     0.817072
      pz      :     0.006008  p :     0.025257
      px      :     0.009768
      py      :     0.009481
  4 C s       :     3.234231  s :     3.234231
      pz      :     0.961152  p :     2.729772
      px      :     0.883765
      py      :     0.884855
      dz2     :     0.028935  d :     0.129534
      dxz     :     0.045649
      dyz     :     0.045424
      dx2y2   :     0.004783
      dxy     :     0.004743
      f0      :     0.004580  f :     0.020300
      f+1     :     0.007016
      f-1     :     0.007017
      f+2     :     0.000592
      f-2     :     0.000586
      f+3     :     0.000255
      f-3     :     0.000255
  5 N s       :     3.702446  s :     3.702446
      pz      :     1.275831  p :     3.402050
      px      :     1.063824
      py      :     1.062396
      dz2     :     0.015861  d :     0.076950
      dxz     :     0.025662
      dyz     :     0.025675
      dx2y2   :     0.004876
      dxy     :     0.004876
      f0      :     0.001050  f :     0.005669
      f+1     :     0.001616
      f-1     :     0.001617
      f+2     :     0.000416
      f-2     :     0.000416
      f+3     :     0.000277
      f-3     :     0.000277
  6 C s       :     3.146518  s :     3.146518
      pz      :     0.791022  p :     2.936157
      px      :     1.070792
      py      :     1.074344
      dz2     :     0.020337  d :     0.087238
      dxz     :     0.017495
      dyz     :     0.017064
      dx2y2   :     0.016770
      dxy     :     0.015571
      f0      :     0.002121  f :     0.007331
      f+1     :     0.000872
      f-1     :     0.000864
      f+2     :     0.000605
      f-2     :     0.000601
      f+3     :     0.000591
      f-3     :     0.001677
  7 H s       :     0.814504  s :     0.814504
      pz      :     0.005840  p :     0.025260
      px      :     0.012560
      py      :     0.006860
  8 H s       :     0.814852  s :     0.814852
      pz      :     0.005810  p :     0.025269
      px      :     0.004754
      py      :     0.014705
  9 H s       :     0.816909  s :     0.816909
      pz      :     0.005983  p :     0.025236
      px      :     0.012007
      py      :     0.007247
 10 C s       :     3.234245  s :     3.234245
      pz      :     0.961091  p :     2.729778
      px      :     0.885730
      py      :     0.882958
      dz2     :     0.028968  d :     0.129511
      dxz     :     0.045095
      dyz     :     0.045927
      dx2y2   :     0.004752
      dxy     :     0.004769
      f0      :     0.004579  f :     0.020297
      f+1     :     0.006999
      f-1     :     0.007031
      f+2     :     0.000591
      f-2     :     0.000588
      f+3     :     0.000254
      f-3     :     0.000255
 11 N s       :     3.702412  s :     3.702412
      pz      :     1.275769  p :     3.401864
      px      :     1.061191
      py      :     1.064904
      dz2     :     0.015860  d :     0.076949
      dxz     :     0.025685
      dyz     :     0.025652
      dx2y2   :     0.004877
      dxy     :     0.004876
      f0      :     0.001050  f :     0.005669
      f+1     :     0.001617
      f-1     :     0.001617
      f+2     :     0.000416
      f-2     :     0.000416
      f+3     :     0.000277
      f-3     :     0.000277


                     *******************************
                     * LOEWDIN POPULATION ANALYSIS *
                     *******************************

----------------------
LOEWDIN ATOMIC CHARGES
----------------------
   0 C :   -0.252095
   1 H :    0.147021
   2 H :    0.146963
   3 H :    0.144808
   4 C :   -0.203760
   5 N :    0.017062
   6 C :   -0.251947
   7 H :    0.145644
   8 H :    0.147450
   9 H :    0.145111
  10 C :   -0.203445
  11 N :    0.017187

-------------------------------
LOEWDIN REDUCED ORBITAL CHARGES
-------------------------------
  0 C s       :     2.812174  s :     2.812174
      pz      :     1.016121  p :     3.118330
      px      :     1.052404
      py      :     1.049805
      dz2     :     0.083207  d :     0.290158
      dxz     :     0.066152
      dyz     :     0.067802
      dx2y2   :     0.036351
      dxy     :     0.036646
      f0      :     0.008519  f :     0.031432
      f+1     :     0.006258
      f-1     :     0.006185
      f+2     :     0.002761
      f-2     :     0.002993
      f+3     :     0.002022
      f-3     :     0.002694
  1 H s       :     0.787574  s :     0.787574
      pz      :     0.014052  p :     0.065405
      px      :     0.014515
      py      :     0.036838
  2 H s       :     0.787481  s :     0.787481
      pz      :     0.013843  p :     0.065556
      px      :     0.036116
      py      :     0.015597
  3 H s       :     0.789417  s :     0.789417
      pz      :     0.014436  p :     0.065774
      px      :     0.026103
      py      :     0.025236
  4 C s       :     2.835927  s :     2.835927
      pz      :     1.180364  p :     2.831923
      px      :     0.825595
      py      :     0.825964
      dz2     :     0.161553  d :     0.469417
      dxz     :     0.149364
      dyz     :     0.148902
      dx2y2   :     0.004842
      dxy     :     0.004755
      f0      :     0.024673  f :     0.066493
      f+1     :     0.019930
      f-1     :     0.019914
      f+2     :     0.000744
      f-2     :     0.000722
      f+3     :     0.000255
      f-3     :     0.000256
  5 N s       :     3.306676  s :     3.306676
      pz      :     1.479636  p :     3.516913
      px      :     1.019179
      py      :     1.018098
      dz2     :     0.052691  d :     0.140601
      dxz     :     0.039127
      dyz     :     0.039173
      dx2y2   :     0.004805
      dxy     :     0.004805
      f0      :     0.007298  f :     0.018748
      f+1     :     0.005009
      f-1     :     0.005013
      f+2     :     0.000437
      f-2     :     0.000437
      f+3     :     0.000277
      f-3     :     0.000277
  6 C s       :     2.811785  s :     2.811785
      pz      :     1.015833  p :     3.118580
      px      :     1.050215
      py      :     1.052531
      dz2     :     0.083072  d :     0.290158
      dxz     :     0.068128
      dyz     :     0.066070
      dx2y2   :     0.037867
      dxy     :     0.035021
      f0      :     0.008517  f :     0.031425
      f+1     :     0.006161
      f-1     :     0.006242
      f+2     :     0.002928
      f-2     :     0.002863
      f+3     :     0.000652
      f-3     :     0.004063
  7 H s       :     0.788563  s :     0.788563
      pz      :     0.014097  p :     0.065793
      px      :     0.032888
      py      :     0.018808
  8 H s       :     0.786989  s :     0.786989
      pz      :     0.013992  p :     0.065562
      px      :     0.013436
      py      :     0.038134
  9 H s       :     0.789193  s :     0.789193
      pz      :     0.014387  p :     0.065696
      px      :     0.031533
      py      :     0.019776
 10 C s       :     2.835932  s :     2.835932
      pz      :     1.180192  p :     2.831855
      px      :     0.826578
      py      :     0.825085
      dz2     :     0.161527  d :     0.469170
      dxz     :     0.148011
      dyz     :     0.150037
      dx2y2   :     0.004774
      dxy     :     0.004820
      f0      :     0.024669  f :     0.066488
      f+1     :     0.019870
      f-1     :     0.019970
      f+2     :     0.000739
      f-2     :     0.000729
      f+3     :     0.000255
      f-3     :     0.000256
 11 N s       :     3.306644  s :     3.306644
      pz      :     1.479628  p :     3.516800
      px      :     1.017105
      py      :     1.020067
      dz2     :     0.052692  d :     0.140616
      dxz     :     0.039229
      dyz     :     0.039084
      dx2y2   :     0.004806
      dxy     :     0.004805
      f0      :     0.007300  f :     0.018754
      f+1     :     0.005022
      f-1     :     0.005002
      f+2     :     0.000438
      f-2     :     0.000437
      f+3     :     0.000277
      f-3     :     0.000277


                      *****************************
                      * MAYER POPULATION ANALYSIS *
                      *****************************

  NA   - Mulliken gross atomic population
  ZA   - Total nuclear charge
  QA   - Mulliken gross atomic charge
  VA   - Mayer's total valence
  BVA  - Mayer's bonded valence
  FA   - Mayer's free valence

  ATOM       NA         ZA         QA         VA         BVA        FA
  0 C      6.1771     6.0000    -0.1771     3.9228     3.6403     0.2825
  1 H      0.8397     1.0000     0.1603     0.9694     0.9220     0.0474
  2 H      0.8399     1.0000     0.1601     0.9693     0.9218     0.0475
  3 H      0.8423     1.0000     0.1577     0.9694     0.9218     0.0475
  4 C      6.1138     6.0000    -0.1138     4.0245     3.5866     0.4380
  5 N      7.1871     7.0000    -0.1871     3.2343     2.7482     0.4861
  6 C      6.1772     6.0000    -0.1772     3.9232     3.6407     0.2824
  7 H      0.8398     1.0000     0.1602     0.9695     0.9222     0.0473
  8 H      0.8401     1.0000     0.1599     0.9694     0.9217     0.0476
  9 H      0.8421     1.0000     0.1579     0.9693     0.9218     0.0475
 10 C      6.1138     6.0000    -0.1138     4.0248     3.5869     0.4379
 11 N      7.1869     7.0000    -0.1869     3.2342     2.7482     0.4861

  Mayer bond orders larger than 0.100000
B(  0-C ,  1-H ) :   0.9243 B(  0-C ,  2-H ) :   0.9250 B(  0-C ,  3-H ) :   0.9264 
B(  0-C ,  4-C ) :   0.8772 B(  4-C ,  5-N ) :   2.7296 B(  6-C ,  7-H ) :   0.9247 
B(  6-C ,  8-H ) :   0.9256 B(  6-C ,  9-H ) :   0.9257 B(  6-C , 10-C ) :   0.8774 
B( 10-C , 11-N ) :   2.7296 


                *******************************************
                * RELAXED MP2 DENSITY POPULATION ANALYSIS *
                *******************************************

------------------------------------------------------------------------------
                           ORCA POPULATION ANALYSIS
------------------------------------------------------------------------------
Input electron density              ... 12mecn.remya.etal.2.mol1,9-orca.engrad-mp2.def2tzvp.frozencore.pmp2re
BaseName (.gbw .S,...)              ... 12mecn.remya.etal.2.mol1,9-orca.engrad-mp2.def2tzvp.frozencore

                    ********************************
                    * MULLIKEN POPULATION ANALYSIS *
                    ********************************

-----------------------
MULLIKEN ATOMIC CHARGES
-----------------------
   0 C :   -0.277525
   1 H :    0.173549
   2 H :    0.173822
   3 H :    0.171503
   4 C :   -0.145783
   5 N :   -0.095567
   6 C :   -0.277774
   7 H :    0.173615
   8 H :    0.173753
   9 H :    0.171519
  10 C :   -0.145744
  11 N :   -0.095369
Sum of atomic charges:   -0.0000000

--------------------------------
MULLIKEN REDUCED ORBITAL CHARGES
--------------------------------
  0 C s       :     3.183278  s :     3.183278
      pz      :     0.837713  p :     3.010209
      px      :     1.087216
      py      :     1.085280
      dz2     :     0.016106  d :     0.076959
      dxz     :     0.017246
      dyz     :     0.017591
      dx2y2   :     0.012931
      dxy     :     0.013086
      f0      :     0.001877  f :     0.007078
      f+1     :     0.000929
      f-1     :     0.000934
      f+2     :     0.000579
      f-2     :     0.000604
      f+3     :     0.000982
      f-3     :     0.001173
  1 H s       :     0.802410  s :     0.802410
      pz      :     0.005871  p :     0.024041
      px      :     0.005321
      py      :     0.012848
  2 H s       :     0.802078  s :     0.802078
      pz      :     0.005799  p :     0.024100
      px      :     0.012604
      py      :     0.005698
  3 H s       :     0.804383  s :     0.804383
      pz      :     0.006011  p :     0.024113
      px      :     0.009185
      py      :     0.008918
  4 C s       :     3.213137  s :     3.213137
      pz      :     0.995580  p :     2.808802
      px      :     0.906543
      py      :     0.906678
      dz2     :     0.024195  d :     0.104888
      dxz     :     0.035716
      dyz     :     0.035510
      dx2y2   :     0.004753
      dxy     :     0.004714
      f0      :     0.004401  f :     0.018956
      f+1     :     0.006437
      f-1     :     0.006440
      f+2     :     0.000587
      f-2     :     0.000581
      f+3     :     0.000254
      f-3     :     0.000254
  5 N s       :     3.643267  s :     3.643267
      pz      :     1.266459  p :     3.379118
      px      :     1.056689
      py      :     1.055971
      dz2     :     0.014862  d :     0.067985
      dxz     :     0.021689
      dyz     :     0.021685
      dx2y2   :     0.004875
      dxy     :     0.004875
      f0      :     0.000932  f :     0.005197
      f+1     :     0.001439
      f-1     :     0.001440
      f+2     :     0.000416
      f-2     :     0.000416
      f+3     :     0.000277
      f-3     :     0.000277
  6 C s       :     3.182765  s :     3.182765
      pz      :     0.837732  p :     3.010959
      px      :     1.085251
      py      :     1.087975
      dz2     :     0.016044  d :     0.076972
      dxz     :     0.017620
      dyz     :     0.017301
      dx2y2   :     0.013499
      dxy     :     0.012509
      f0      :     0.001882  f :     0.007077
      f+1     :     0.000934
      f-1     :     0.000927
      f+2     :     0.000595
      f-2     :     0.000590
      f+3     :     0.000590
      f-3     :     0.001559
  7 H s       :     0.802276  s :     0.802276
      pz      :     0.005867  p :     0.024109
      px      :     0.011494
      py      :     0.006747
  8 H s       :     0.802122  s :     0.802122
      pz      :     0.005862  p :     0.024126
      px      :     0.004974
      py      :     0.013290
  9 H s       :     0.804385  s :     0.804385
      pz      :     0.005992  p :     0.024096
      px      :     0.011030
      py      :     0.007074
 10 C s       :     3.213209  s :     3.213209
      pz      :     0.995515  p :     2.808706
      px      :     0.906582
      py      :     0.906609
      dz2     :     0.024226  d :     0.104874
      dxz     :     0.035231
      dyz     :     0.035954
      dx2y2   :     0.004725
      dxy     :     0.004738
      f0      :     0.004401  f :     0.018954
      f+1     :     0.006427
      f-1     :     0.006448
      f+2     :     0.000586
      f-2     :     0.000583
      f+3     :     0.000254
      f-3     :     0.000255
 11 N s       :     3.643237  s :     3.643237
      pz      :     1.266381  p :     3.378952
      px      :     1.055588
      py      :     1.056983
      dz2     :     0.014859  d :     0.067983
      dxz     :     0.021682
      dyz     :     0.021692
      dx2y2   :     0.004875
      dxy     :     0.004875
      f0      :     0.000932  f :     0.005197
      f+1     :     0.001439
      f-1     :     0.001440
      f+2     :     0.000416
      f-2     :     0.000416
      f+3     :     0.000277
      f-3     :     0.000277


                     *******************************
                     * LOEWDIN POPULATION ANALYSIS *
                     *******************************

----------------------
LOEWDIN ATOMIC CHARGES
----------------------
   0 C :   -0.282885
   1 H :    0.153679
   2 H :    0.153675
   3 H :    0.151536
   4 C :   -0.219250
   5 N :    0.043245
   6 C :   -0.282726
   7 H :    0.152258
   8 H :    0.154199
   9 H :    0.151828
  10 C :   -0.218911
  11 N :    0.043353

-------------------------------
LOEWDIN REDUCED ORBITAL CHARGES
-------------------------------
  0 C s       :     2.817066  s :     2.817066
      pz      :     1.034322  p :     3.154938
      px      :     1.061712
      py      :     1.058904
      dz2     :     0.075509  d :     0.279232
      dxz     :     0.067819
      dyz     :     0.069368
      dx2y2   :     0.033141
      dxy     :     0.033395
      f0      :     0.008006  f :     0.031649
      f+1     :     0.006696
      f-1     :     0.006618
      f+2     :     0.002745
      f-2     :     0.002975
      f+3     :     0.001979
      f-3     :     0.002631
  1 H s       :     0.780640  s :     0.780640
      pz      :     0.014565  p :     0.065681
      px      :     0.014950
      py      :     0.036165
  2 H s       :     0.780474  s :     0.780474
      pz      :     0.014376  p :     0.065851
      px      :     0.035505
      py      :     0.015970
  3 H s       :     0.782377  s :     0.782377
      pz      :     0.014931  p :     0.066087
      px      :     0.026010
      py      :     0.025147
  4 C s       :     2.841332  s :     2.841332
      pz      :     1.171394  p :     2.858320
      px      :     0.843543
      py      :     0.843382
      dz2     :     0.163719  d :     0.453136
      dxz     :     0.140184
      dyz     :     0.139750
      dx2y2   :     0.004782
      dxy     :     0.004702
      f0      :     0.025681  f :     0.066463
      f+1     :     0.019417
      f-1     :     0.019416
      f+2     :     0.000728
      f-2     :     0.000709
      f+3     :     0.000255
      f-3     :     0.000256
  5 N s       :     3.306828  s :     3.306828
      pz      :     1.466913  p :     3.494256
      px      :     1.013965
      py      :     1.013378
      dz2     :     0.053334  d :     0.136544
      dxz     :     0.036804
      dyz     :     0.036798
      dx2y2   :     0.004804
      dxy     :     0.004804
      f0      :     0.007393  f :     0.019127
      f+1     :     0.005154
      f-1     :     0.005152
      f+2     :     0.000437
      f-2     :     0.000437
      f+3     :     0.000277
      f-3     :     0.000277
  6 C s       :     2.816678  s :     2.816678
      pz      :     1.034017  p :     3.155172
      px      :     1.059336
      py      :     1.061819
      dz2     :     0.075383  d :     0.279236
      dxz     :     0.069629
      dyz     :     0.067789
      dx2y2   :     0.034547
      dxy     :     0.031889
      f0      :     0.008004  f :     0.031641
      f+1     :     0.006586
      f-1     :     0.006686
      f+2     :     0.002911
      f-2     :     0.002846
      f+3     :     0.000651
      f-3     :     0.003957
  7 H s       :     0.781671  s :     0.781671
      pz      :     0.014606  p :     0.066071
      px      :     0.032410
      py      :     0.019055
  8 H s       :     0.779928  s :     0.779928
      pz      :     0.014521  p :     0.065873
      px      :     0.013926
      py      :     0.037426
  9 H s       :     0.782170  s :     0.782170
      pz      :     0.014884  p :     0.066002
      px      :     0.031136
      py      :     0.019982
 10 C s       :     2.841342  s :     2.841342
      pz      :     1.171228  p :     2.858213
      px      :     0.843399
      py      :     0.843586
      dz2     :     0.163687  d :     0.452896
      dxz     :     0.138985
      dyz     :     0.140742
      dx2y2   :     0.004718
      dxy     :     0.004763
      f0      :     0.025676  f :     0.066460
      f+1     :     0.019405
      f-1     :     0.019428
      f+2     :     0.000726
      f-2     :     0.000714
      f+3     :     0.000255
      f-3     :     0.000256
 11 N s       :     3.306795  s :     3.306795
      pz      :     1.466904  p :     3.494163
      px      :     1.012971
      py      :     1.014287
      dz2     :     0.053334  d :     0.136557
      dxz     :     0.036801
      dyz     :     0.036813
      dx2y2   :     0.004805
      dxy     :     0.004804
      f0      :     0.007395  f :     0.019133
      f+1     :     0.005155
      f-1     :     0.005154
      f+2     :     0.000438
      f-2     :     0.000437
      f+3     :     0.000277
      f-3     :     0.000277


                      *****************************
                      * MAYER POPULATION ANALYSIS *
                      *****************************

  NA   - Mulliken gross atomic population
  ZA   - Total nuclear charge
  QA   - Mulliken gross atomic charge
  VA   - Mayer's total valence
  BVA  - Mayer's bonded valence
  FA   - Mayer's free valence

  ATOM       NA         ZA         QA         VA         BVA        FA
  0 C      6.2775     6.0000    -0.2775     3.9275     3.6461     0.2814
  1 H      0.8265     1.0000     0.1735     0.9636     0.9167     0.0469
  2 H      0.8262     1.0000     0.1738     0.9632     0.9162     0.0470
  3 H      0.8285     1.0000     0.1715     0.9632     0.9162     0.0470
  4 C      6.1458     6.0000    -0.1458     4.1491     3.7220     0.4271
  5 N      7.0956     7.0000    -0.0956     3.3489     2.8753     0.4737
  6 C      6.2778     6.0000    -0.2778     3.9278     3.6464     0.2813
  7 H      0.8264     1.0000     0.1736     0.9636     0.9169     0.0467
  8 H      0.8262     1.0000     0.1738     0.9630     0.9159     0.0471
  9 H      0.8285     1.0000     0.1715     0.9634     0.9165     0.0469
 10 C      6.1457     6.0000    -0.1457     4.1494     3.7223     0.4271
 11 N      7.0954     7.0000    -0.0954     3.3488     2.8752     0.4736

  Mayer bond orders larger than 0.100000
B(  0-C ,  1-H ) :   0.9152 B(  0-C ,  2-H ) :   0.9158 B(  0-C ,  3-H ) :   0.9171 
B(  0-C ,  4-C ) :   0.9018 B(  4-C ,  5-N ) :   2.8390 B(  6-C ,  7-H ) :   0.9156 
B(  6-C ,  8-H ) :   0.9162 B(  6-C ,  9-H ) :   0.9165 B(  6-C , 10-C ) :   0.9020 
B( 10-C , 11-N ) :   2.8390 


----------------------------------
MP2 DERIVATIVE INTEGRAL GENERATION
----------------------------------


Input Wavefunction Amplitudes       ... 12mecn.remya.etal.2.mol1,9-orca.engrad-mp2.def2tzvp.frozencore.mp2tsaa.tmp
Input Correlated Electron Density   ... 12mecn.remya.etal.2.mol1,9-orca.engrad-mp2.def2tzvp.frozencore.pmp2re
Input Energy Weighted Density       ... 12mecn.remya.etal.2.mol1,9-orca.engrad-mp2.def2tzvp.frozencore.wmp2.tmp
Input SCF Electron Density          ... 12mecn.remya.etal.2.mol1,9-orca.engrad-mp2.def2tzvp.frozencore.scfp

One-Electron Terms    ...
                        ... One-Electron Terms done
Prescreening matrices              ... done

Batch handling in the gradient evaluation:
Memory available                      ... 8000.0 MB
Memory per occupied orbital in Q2     ...    6.0 MB
Memory per occupied orbital in Q3     ...    0.1 MB
Total memory requirement per |i>      ...    6.1 MB
Max. Number of orbitals possible      ...   1311
Number of orbitals treated per batch  ...     16
Number of batches to be done          ...      1
Batch   0: i=    6 ...    21

---------------------------------------
MP2 TOTAL ENERGY:     -264.967105797 Eh
---------------------------------------

The final MP2 gradient
  0:  -0.00184493   0.00087602  -0.00720178
  1:  -0.00136591   0.00396640  -0.00133144
  2:   0.00216318  -0.00285901  -0.00104860
  3:  -0.00000270  -0.00230426   0.00008852
  4:   0.00110867   0.00007160   0.00661177
  5:  -0.00022935   0.00012088   0.00289857
  6:  -0.00079608   0.00417492   0.00706377
  7:  -0.00267824  -0.00007128   0.00037011
  8:   0.00049451  -0.00255636   0.00123925
  9:   0.00287147  -0.00031276   0.00055149
 10:   0.00021847  -0.00110711  -0.00622426
 11:   0.00006091   0.00000097  -0.00301740

-----------------------------------
NORM OF THE MP2 GRADIENT:  0.017013
-----------------------------------

-------------------------   --------------------
FINAL SINGLE POINT ENERGY      -264.967105797324
-------------------------   --------------------


                            ***************************************
                            *     ORCA property calculations      *
                            ***************************************

                                    ---------------------
                                    Active property flags
                                    ---------------------
   (+) Dipole Moment


------------------------------------------------------------------------------
                       ORCA ELECTRIC PROPERTIES CALCULATION
------------------------------------------------------------------------------

Dipole Moment Calculation                       ... on
Quadrupole Moment Calculation                   ... off
Polarizability Calculation                      ... off
GBWName                                         ... 12mecn.remya.etal.2.mol1,9-orca.engrad-mp2.def2tzvp.frozencore.gbw
Electron density file                           ... 12mecn.remya.etal.2.mol1,9-orca.engrad-mp2.def2tzvp.frozencore.scfp
The origin for moment calculation is the CENTER OF MASS  = (-3.563400,  3.540879  0.160896)

-------------
DIPOLE MOMENT
-------------
                                X             Y             Z
Electronic contribution:     -0.01091       0.03456       0.00319
Nuclear contribution   :      0.01013      -0.04272      -0.00353
                        -----------------------------------------
Total Dipole Moment    :     -0.00077      -0.00816      -0.00035
                        -----------------------------------------
Magnitude (a.u.)       :      0.00820
Magnitude (Debye)      :      0.02085



--------------------
Rotational spectrum 
--------------------
 
Rotational constants in cm-1:     0.155823     0.016152     0.014717 
Rotational constants in MHz :  4671.463757   484.223846   441.215994 

 Dipole components along the rotational axes: 
x,y,z [a.u.] :    -0.005436    -0.000906    -0.006078 
x,y,z [Debye]:    -0.013817    -0.002303    -0.015448 

 

                         *** MP2 UNRELAXED DENSITY ***

------------------------------------------------------------------------------
                       ORCA ELECTRIC PROPERTIES CALCULATION
------------------------------------------------------------------------------

Dipole Moment Calculation                       ... on
Quadrupole Moment Calculation                   ... off
Polarizability Calculation                      ... off
GBWName                                         ... 12mecn.remya.etal.2.mol1,9-orca.engrad-mp2.def2tzvp.frozencore.gbw
Electron density file                           ... 12mecn.remya.etal.2.mol1,9-orca.engrad-mp2.def2tzvp.frozencore.pmp2ur
The origin for moment calculation is the CENTER OF MASS  = (-3.563400,  3.540879  0.160896)

-------------
DIPOLE MOMENT
-------------
                                X             Y             Z
Electronic contribution:     -0.01085       0.03453       0.00317
Nuclear contribution   :      0.01013      -0.04272      -0.00353
                        -----------------------------------------
Total Dipole Moment    :     -0.00072      -0.00819      -0.00036
                        -----------------------------------------
Magnitude (a.u.)       :      0.00823
Magnitude (Debye)      :      0.02092



--------------------
Rotational spectrum 
--------------------
 
Rotational constants in cm-1:     0.155823     0.016152     0.014717 
Rotational constants in MHz :  4671.463757   484.223846   441.215994 

 Dipole components along the rotational axes: 
x,y,z [a.u.] :    -0.005405    -0.000919    -0.006138 
x,y,z [Debye]:    -0.013738    -0.002337    -0.015600 

 

                           *** MP2 RELAXED DENSITY ***

------------------------------------------------------------------------------
                       ORCA ELECTRIC PROPERTIES CALCULATION
------------------------------------------------------------------------------

Dipole Moment Calculation                       ... on
Quadrupole Moment Calculation                   ... off
Polarizability Calculation                      ... off
GBWName                                         ... 12mecn.remya.etal.2.mol1,9-orca.engrad-mp2.def2tzvp.frozencore.gbw
Electron density file                           ... 12mecn.remya.etal.2.mol1,9-orca.engrad-mp2.def2tzvp.frozencore.pmp2re
The origin for moment calculation is the CENTER OF MASS  = (-3.563400,  3.540879  0.160896)

-------------
DIPOLE MOMENT
-------------
                                X             Y             Z
Electronic contribution:     -0.01027       0.03391       0.00313
Nuclear contribution   :      0.01013      -0.04272      -0.00353
                        -----------------------------------------
Total Dipole Moment    :     -0.00014      -0.00881      -0.00041
                        -----------------------------------------
Magnitude (a.u.)       :      0.00882
Magnitude (Debye)      :      0.02242



--------------------
Rotational spectrum 
--------------------
 
Rotational constants in cm-1:     0.155823     0.016152     0.014717 
Rotational constants in MHz :  4671.463757   484.223846   441.215994 

 Dipole components along the rotational axes: 
x,y,z [a.u.] :    -0.005312    -0.000940    -0.006977 
x,y,z [Debye]:    -0.013503    -0.002390    -0.017735 

 

Timings for individual modules:

Sum of individual times         ...       36.030 sec (=   0.600 min)
GTO integral calculation        ...        1.255 sec (=   0.021 min)   3.5 %
SCF iterations                  ...       10.002 sec (=   0.167 min)  27.8 %
MP2 module                      ...       24.773 sec (=   0.413 min)  68.8 %
                             ****ORCA TERMINATED NORMALLY****
TOTAL RUN TIME: 0 days 0 hours 0 minutes 37 seconds 28 msec
