42
Energy:   -153.29149847
C   -1.50346861   1.86628783  -1.91481231
H   -2.53389102   2.14490880  -1.84064905
H   -1.03290194   2.44171928  -2.68445167
H   -1.01544013   2.05288777  -0.98105230
C   -1.40009086   0.36852368  -2.25776362
N   -1.32312143  -0.74662980  -2.51310646
C   -3.99410709  -2.04720582  -0.38392602
H   -3.28848401  -2.27661214  -1.15487931
H   -4.96443552  -2.39218281  -0.67436139
H   -3.70042013  -2.53135497   0.52395429
C   -4.03581903  -0.52370766  -0.16298835
N   -4.06687547   0.61060598   0.00150978
C    2.46827114  -0.31648094  -2.29919617
H    3.24381913  -1.01085919  -2.05167981
H    2.89497243   0.53734663  -2.78272855
H    1.76644498  -0.78520291  -2.95694905
C    1.74803464   0.12864124  -1.01283478
N    1.21178583   0.46005494  -0.05508025
C    2.15966596  -1.15253089   2.83358946
H    1.11155644  -1.35161336   2.91564299
H    2.31351068  -0.10281655   2.69455456
H    2.65410990  -1.47012029   3.72777135
C    2.73511015  -1.91971494   1.62864439
N    3.16355451  -2.49091835   0.73150802
C   -1.46560235   0.87697620   2.14872722
H   -2.31485720   1.52663225   2.10856020
H   -1.68249662   0.04541701   2.78619509
H   -1.24068047   0.52270623   1.16444981
C   -0.25486182   1.64866602   2.70568519
N    0.64658954   2.22322417   3.12036571
C    0.23420047  -3.35718402  -0.93403260
H    1.15059759  -2.83507082  -1.11434987
H   -0.41292028  -3.24400525  -1.77861794
H    0.43995079  -4.39570546  -0.77898709
C   -0.44948406  -2.77683397   0.31791360
N   -0.95851828  -2.34473699   1.25004445
C    2.02617730   3.87173030   0.45587801
H    2.34029393   2.97901496   0.95516776
H    1.11324569   4.22130752   0.89090759
H    2.78117733   4.62282492   0.55946813
C    1.80138718   3.57242784  -1.03793839
N    1.63402072   3.34958356  -2.15015260
