42
Energy:   -153.80255184
C   -3.36502546  -0.20374311  -3.26290069
H   -4.27741425   0.22172291  -3.62542729
H   -2.95130961  -0.84938526  -4.00914763
H   -2.66926846   0.57880950  -3.04282637
C   -3.64867966  -1.01314628  -1.98383587
N   -3.85987311  -1.61578373  -1.03151398
C   -2.59336622   0.32104092   1.66664236
H   -2.03512044  -0.41647395   2.20453978
H   -3.54700892  -0.08124461   1.39529195
H   -2.73278055   1.18351454   2.28438178
C   -1.82363645   0.72018490   0.39392865
N   -1.25053765   1.01736573  -0.55366455
C    1.69826128   0.36332738  -2.08242013
H    2.67232569  -0.01316619  -2.31555382
H    1.43381287   0.07594166  -1.08623964
H    1.70123775   1.43073498  -2.15679242
C    0.67265900  -0.21745278  -3.07359840
N   -0.09094852  -0.64987001  -3.81157568
C    3.75290851  -1.94544499   1.39723782
H    2.92507335  -1.99577503   2.07329700
H    4.14435303  -0.94967979   1.38619484
H    4.51551882  -2.62495550   1.71596983
C    3.28339523  -2.32817840  -0.01862673
N    2.93382126  -2.61314081  -1.07280224
C    0.86273845   0.65006135   3.50099340
H   -0.12123317   1.05997698   3.40788487
H    1.34864929   1.07884211   4.35242561
H    0.79697489  -0.41074724   3.62452231
C    1.67422548   0.96973744   2.23178262
N    2.27841446   1.20775081   1.28679750
C   -0.61133473  -2.85772052  -0.93517888
H   -0.96550900  -2.02365702  -1.50421214
H   -1.39421615  -3.58039408  -0.83649405
H    0.22340860  -3.30226684  -1.43565987
C   -0.17623016  -2.37822350   0.46209226
N    0.14772497  -2.02121618   1.50242413
C    0.43389207   3.96845195   0.04519128
H   -0.24047258   4.38638504  -0.67276724
H    0.84509057   3.05847307  -0.33919567
H    1.22428183   4.66322203   0.23878273
C   -0.32491716   3.67667999   1.35312005
N   -0.88988513   3.45944250   2.32693247
