46
Energy:   -674.41964513
O    1.53912240  -0.36586474   0.28702275
H    1.52967861  -1.12902393   0.86471706
H    2.04346446   0.29161331   0.76618197
O   -0.63294839  -0.68678461   2.49655005
H   -0.84851154  -0.69901802   3.42908140
H   -0.15874870  -1.50508988   2.34909502
O    1.53431051  -1.35463912  -2.25293073
H    1.67168355  -0.94221826  -1.40012974
H    2.37416141  -1.26153065  -2.70261186
O    0.55746502  -3.57616194  -0.96915655
H    0.93217604  -2.90417585  -1.53859328
H    0.59612346  -4.37944882  -1.48825919
O    1.08163532  -2.73835929   1.63175874
H    1.59370554  -3.38767749   2.11383945
H    0.88435100  -3.16081877   0.79579300
O    2.88344933   1.68122068   1.67775059
H    3.37606634   1.68874557   2.51183399
C    3.64990668   2.39214020   0.71875615
H    3.08056073   2.37392350  -0.21451688
H    4.63056004   1.92815595   0.52950780
H    3.81183398   3.44466623   0.99937305
O   -3.04413474   1.30347656   0.55294960
H   -3.58126918   1.80859466   1.18125333
C   -3.78893499   1.17996570  -0.64811302
H   -3.16937555   0.60855322  -1.34461793
H   -4.01385803   2.15356587  -1.11102734
H   -4.73558585   0.63516417  -0.50732679
O   -1.53839608  -1.81765626  -0.30515194
H   -0.98351239  -2.53306368  -0.64970903
C   -2.73877476  -2.39879283   0.17848541
H   -3.35198849  -1.57919772   0.56282637
H   -2.56548874  -3.11027378   1.00100845
H   -3.31062002  -2.91215254  -0.61033151
O   -0.43899954   0.71089083  -1.93588800
H    0.09521549   0.03445259  -2.37800663
C   -0.59343410   1.79488945  -2.83790282
H   -1.19743819   2.54760037  -2.32400542
H   -1.11945744   1.50767296  -3.76179863
H    0.36664228   2.25814589  -3.11435200
O    0.16413923   2.36022701   1.06760175
H    1.08293433   2.34389568   1.37415046
C   -0.20234275   3.71755405   0.87816034
H   -1.23979454   3.71760319   0.53293725
H    0.41141493   4.22120453   0.11499913
H   -0.15196062   4.30538935   1.80804669
Na  -0.87938160   0.36358849   0.37475951
