46
Energy:   -671.70409508
O    3.19182157  -0.19557467  -0.70183834
H    2.78437084  -0.92979232  -1.16133827
H    4.12202015  -0.41902432  -0.66970265
O   -0.54383513   0.17979475   3.25491201
H   -0.67016434   0.08689554   4.19918025
H    0.36438842  -0.08391572   3.10720071
O    1.54250986  -2.15260920  -1.77427689
H    0.80335142  -1.54642825  -1.72507025
H    1.49855301  -2.51327939  -2.65983698
O    1.18025353  -3.36179101   0.67404421
H    1.36828379  -3.12960436  -0.23533241
H    1.65941683  -4.17794013   0.81734460
O    1.35175051  -0.68171809   1.34255134
H    1.37813010  -1.63605179   1.27339093
H    2.06012349  -0.38020859   0.77375297
O    1.66072159   1.96692136  -1.67704155
H    2.39419958   1.38622914  -1.42558606
C    2.18346368   2.97919599  -2.52236666
H    1.34416120   3.62425244  -2.79615255
H    2.62031805   2.57557259  -3.44920200
H    2.94270485   3.60067931  -2.02227801
O   -3.22570771   0.67233527   0.92541600
H   -3.96971977   0.29696959   1.41934914
C   -3.57068533   2.00231915   0.57233374
H   -2.72185142   2.41009176   0.01673703
H   -3.74399431   2.64404764   1.45035758
H   -4.45932712   2.05325268  -0.07612511
O   -1.39530999  -2.22188680   0.79284940
H   -0.64193089  -2.83007316   0.82371306
C   -2.57921736  -3.00340772   0.78179671
H   -3.41786315  -2.30273465   0.74693007
H   -2.68873390  -3.62220097   1.68616299
H   -2.64666050  -3.66068691  -0.09923270
O   -0.30640262  -0.07661927  -1.46999735
H    0.20139500   0.71000469  -1.71856845
C   -1.51935632  -0.05606692  -2.20542558
H   -2.07897619  -0.94883018  -1.91339034
H   -1.35736564  -0.09560050  -3.29399044
H   -2.13955248   0.82512340  -1.97818636
O   -0.07580801   2.26490801   0.53073358
H    0.55630028   2.46163560  -0.17648679
C    0.10439159   3.23403604   1.55095548
H   -0.61523572   2.99763930   2.33945933
H   -0.09496971   4.25973488   1.20314189
H    1.11377482   3.20617542   1.99043995
Na  -0.93246469   0.09526715   0.92281605
