46
Energy:   -672.30579439
O    1.43339201  -0.98595234   0.86619228
H    1.03645077  -1.80487356   0.56948108
H    2.20829170  -0.88102898   0.31414752
O    1.06983883   1.00436004   2.82134342
H    1.52562046   1.24661669   3.62744929
H    1.44285401   0.15642960   2.58029264
O    1.35009770  -1.74414374  -2.52110110
H    1.01274971  -2.36543447  -1.87579032
H    1.37827696  -2.23976036  -3.33951538
O    0.24300203  -3.15993352  -0.42497876
H    0.23650996  -4.07770001  -0.15314356
H   -0.68196854  -2.92487634  -0.49852749
O    3.34539691  -0.51397671  -1.08297968
H    2.78296921  -0.95020437  -1.72298933
H    4.22902355  -0.81404204  -1.29604451
O    1.96490845   1.85809225  -0.39563032
H    2.62367156   1.23793976  -0.74184603
C    2.65264333   3.02399527   0.02889843
H    1.89586406   3.71173070   0.41592598
H    3.18314798   3.52812598  -0.79401978
H    3.37464622   2.82182321   0.83550591
O   -1.74546825  -0.34239817   1.45588884
H   -2.14495678  -1.01495133   0.88448317
C   -2.02524206  -0.69847663   2.80031010
H   -1.56818349   0.06943297   3.43030812
H   -1.59345690  -1.67188013   3.08106718
H   -3.10444747  -0.72115733   3.01843527
O   -2.24813814  -2.00123656  -0.79940549
H   -1.94940695  -1.20643516  -1.26574624
C   -3.53927342  -2.32745865  -1.28836625
H   -3.86062742  -3.22477849  -0.75261079
H   -3.54108844  -2.55426325  -2.36601820
H   -4.27875094  -1.53365395  -1.09909286
O   -0.52842960   0.15478327  -1.55132932
H    0.15876468  -0.34587796  -2.01557671
C   -0.90693669   1.23963797  -2.38340890
H   -1.68145639   1.79290513  -1.84535695
H   -1.32886497   0.91031178  -3.34585273
H   -0.07355173   1.93002681  -2.58739439
O   -1.04377633   3.11808328   0.65253656
H   -1.07264154   3.95570519   0.16675924
C   -1.78659339   3.28861600   1.84906286
H   -1.74373023   2.33594980   2.38392272
H   -2.84517217   3.52775646   1.66197961
H   -1.36498694   4.06710785   2.50402528
Na   0.03052040   1.01827122   0.68253067
