46
Energy:   -677.19658133
O    3.12722135  -1.76605731   1.53028296
H    3.90792320  -2.29351348   1.69918074
H    2.55804340  -2.33791308   1.01525938
O   -0.53191533  -0.24366845   1.80839858
H    0.31859517  -0.01916131   2.18583768
H   -1.10661284   0.47714952   2.06603412
O    1.35843695  -3.22258206  -0.01700235
H    0.48106736  -3.19935602   0.36498588
H    1.42855905  -4.09513486  -0.40425724
O    2.00283737   0.47192841   2.57689664
H    2.39457635   0.59907786   3.44095997
H    2.45842629  -0.28882151   2.21643839
O   -1.12929272  -2.80130747   1.04267252
H   -0.93607726  -1.95802239   1.45226978
H   -1.56858271  -3.30565785   1.72742565
O    1.05881348  -0.65836951  -1.16209771
H    1.21731359  -1.57651600  -0.89694114
C    2.27481432  -0.14425793  -1.68129422
H    2.07842833   0.89044798  -1.97506523
H    2.62234842  -0.69174606  -2.57138080
H    3.08666828  -0.13965145  -0.93721810
O    1.09128827   2.20314532   0.54311867
H    1.58717284   1.77440416   1.25635270
C    1.83062816   3.34058388   0.12821650
H    1.25794413   3.81153644  -0.67535172
H    2.82455941   3.08029978  -0.26818001
H    1.96055554   4.08029594   0.93364948
O   -2.15284161  -0.91401678  -0.82484446
H   -1.97696762  -1.73781867  -0.34647008
C   -3.17524872  -1.17652178  -1.77263589
H   -3.36087080  -0.23828322  -2.30248308
H   -4.11876828  -1.49575308  -1.30291302
H   -2.88236581  -1.93555018  -2.51484395
O   -1.02925938   2.16043067  -2.30615457
H   -1.23934023   3.06366916  -2.58624302
C   -0.85227112   1.37728917  -3.47572643
H   -0.61632844   0.36316032  -3.14202156
H   -0.01999593   1.73244495  -4.10338853
H   -1.76028448   1.32964915  -4.09703110
O   -2.02261309   2.09332468   1.13669602
H   -1.88313939   3.01341547   1.40577464
C   -3.42186451   1.88053844   1.03999420
H   -3.56105703   0.83952404   0.73602107
H   -3.89852979   2.52365782   0.28371052
H   -3.94179753   2.02845016   1.99945712
Na  -0.60349949   0.83310101  -0.40820967
