46
Energy:   -673.46432193
O    2.47862721  -1.82232455   2.18952564
H    3.06064003  -2.38332791   2.70213481
H    2.67524263  -2.04116695   1.27865670
O   -0.23269812  -1.84975701   1.73894362
H   -0.70435054  -2.25709007   2.46548035
H    0.69031031  -1.92004292   1.98255639
O    2.65988204  -2.16292677  -0.54247527
H    3.41920084  -2.22896383  -1.12153133
H    2.32968085  -1.27507443  -0.68001527
O    0.04741379  -2.65274223  -1.37265188
H    0.97132233  -2.68494827  -1.12448333
H   -0.13965659  -3.52672641  -1.71527147
O    1.33853695   0.21065927  -0.59511905
H    1.23805876   0.94504304  -1.20077280
H    1.50207696   0.62068648   0.25421257
O    0.86817080   2.33106796  -2.37263702
H    1.40389422   2.71468808  -3.08274920
C    0.33272776   3.40154210  -1.61111247
H   -0.26780029   2.95172206  -0.81580549
H   -0.32278252   4.05876044  -2.20368959
H    1.11268013   4.02091690  -1.14119067
O   -1.03559726   1.14058188   1.14949016
H   -0.22882841   1.17994642   1.68427771
C   -2.03023206   1.90310177   1.81416964
H   -2.93202945   1.84805809   1.19836378
H   -1.75313363   2.96369352   1.91971083
H   -2.27371418   1.50658466   2.81230189
O   -3.11824800  -1.66991487  -0.08872509
H   -3.57549875  -2.50179054   0.10447916
C   -4.10519612  -0.69540141  -0.38670279
H   -3.57297384   0.23515548  -0.60185044
H   -4.78863883  -0.51060112   0.45682091
H   -4.70733643  -0.95657988  -1.27100489
O   -1.32903626   0.48354159  -2.21466546
H   -0.72379377   1.20425736  -2.44417271
C   -1.71541471  -0.15475077  -3.42124257
H   -2.39684683  -0.96376612  -3.14442201
H   -0.86282911  -0.59611335  -3.96075551
H   -2.24890899   0.52103749  -4.10788034
O    1.66718572   0.91806894   2.06809447
H    2.05080477   0.07738190   2.35879189
C    2.27214374   1.95260051   2.82724137
H    1.82866288   2.89233742   2.48708776
H    3.36074997   2.01298705   2.67210508
H    2.07991434   1.85561644   3.90725029
Na  -0.92892613  -0.79366289  -0.26957012
