46
Energy:   -671.86992354
O    0.72933501  -0.62922236   3.34642865
H    1.24067547  -0.55378247   4.15207846
H    1.11595110  -1.37382445   2.88563849
O    0.61689386   1.11887035   1.18838972
H   -0.21097029   1.56999204   1.35380440
H    0.76764002   0.59724848   1.97669046
O    1.62399284  -2.60740401   1.66274484
H    2.06266057  -3.44868872   1.78940386
H    2.08397616  -2.20545289   0.92580353
O   -1.95456010  -0.76441701   2.68593344
H   -2.47770646  -1.28457509   3.29583942
H   -1.08573346  -0.72757111   3.08595156
O   -0.67446018  -1.67804960   0.38611425
H   -0.01135965  -2.21213733   0.82346975
H   -1.27525155  -1.42107962   1.08557691
O    0.13874316  -0.79755187  -3.15016294
H    0.46239397  -0.64817272  -4.05091779
C   -0.96638659  -1.68335531  -3.23124479
H   -1.31854620  -1.84077689  -2.20816745
H   -0.69553171  -2.66363929  -3.65368802
H   -1.80048081  -1.26991851  -3.81957648
O    2.11398312   1.57276324  -1.30202349
H    2.10549749   2.12824008  -0.50842614
C    2.07335447   2.43256835  -2.42968402
H    2.08353521   1.79063232  -3.31472621
H    2.94495025   3.10345639  -2.48452358
H    1.15967662   3.04641987  -2.46369022
O   -1.46166483   1.46854910  -1.15695915
H   -1.87518764   1.75415594  -0.32879800
C   -2.27080868   1.93429801  -2.22508741
H   -1.79061981   1.60391464  -3.15015534
H   -2.34690515   3.03256424  -2.25333526
H   -3.28921766   1.51593043  -2.20081738
O    2.50036919  -1.22397011  -0.58960323
H    3.00098847  -0.41513908  -0.77289526
C    2.90700752  -2.20445284  -1.53079007
H    2.33348132  -3.10878260  -1.31001740
H    3.97735648  -2.45131985  -1.45213179
H    2.69374461  -1.91024822  -2.57037648
O   -2.07326899   1.82673697   1.57090532
H   -2.28151398   1.01111795   2.05030381
C   -2.79692028   2.88239401   2.18282918
H   -2.55079835   3.79340175   1.63058459
H   -2.51603485   3.03557030   3.23659278
H   -3.88722560   2.73616149   2.13156816
Na   0.33820872  -0.02296146  -0.92138325
