46
Energy:   -674.12723116
O    2.06362526  -1.18630720   2.33839164
H    2.66595967  -1.44861810   3.03453680
H    1.96583626  -1.97008608   1.79768856
O   -0.67418212  -0.78895379   2.16026066
H    0.24494197  -0.83457850   2.42362568
H   -1.01010023  -0.00570218   2.59604477
O    1.34404500  -3.29366902   0.66938510
H    0.39452199  -3.39122193   0.74094853
H    1.66636725  -4.18310525   0.52363392
O    1.40530845   1.32501794   1.24587635
H    2.00692349   1.78545795   0.66082405
H    1.91229396   0.58330852   1.57612576
O   -1.39766461  -3.11551478   0.93997216
H   -1.96560560  -3.68849467   1.45511187
H   -1.25313551  -2.35351129   1.50094798
O    0.91530217  -1.00980901  -0.92445301
H    1.20799819  -1.84795867  -0.53682244
C    0.77709413  -1.20716021  -2.32248191
H    0.44689041  -0.25353011  -2.74324351
H    0.02272496  -1.96976353  -2.57176221
H    1.72550764  -1.48464692  -2.80857891
O    2.75312043   2.78533377  -0.75758454
H    3.28893282   3.58948963  -0.68930776
C    3.48670323   1.84305925  -1.52342314
H    2.86879650   0.94351361  -1.59046136
H    4.44338683   1.56583575  -1.05365621
H    3.69104524   2.19392481  -2.54710035
O   -2.27211868  -0.84952424  -0.60006396
H   -2.18459922  -1.76371278  -0.29180606
C   -3.26325964  -0.83049229  -1.61486007
H   -3.34906263   0.20646352  -1.95078518
H   -4.25089440  -1.15422674  -1.25078463
H   -2.99337497  -1.44985060  -2.48453523
O    0.00091804   2.25182472  -1.42736908
H    0.91349290   2.56645798  -1.34590545
C   -0.63941131   3.04025956  -2.41776425
H   -1.66607734   2.67255019  -2.49670660
H   -0.16608957   2.94632890  -3.40767379
H   -0.67878365   4.10808372  -2.15134594
O   -1.71366128   1.90401408   1.71966559
H   -1.42727751   2.75318100   2.08752855
C   -3.12832534   1.93416175   1.61792823
H   -3.43398843   0.97030823   1.20194548
H   -3.48940308   2.72677596   0.94401213
H   -3.62238134   2.05662523   2.59449809
Na  -0.52014077   0.56553071   0.12059880
