46
Energy:   -673.66584315
O    3.10881600  -1.20570389   1.41275438
H    3.96579224  -1.63205563   1.40584347
H    2.48264320  -1.92407333   1.32283874
O   -0.29736343  -0.79246066   2.27168783
H    0.35353357  -0.24735963   2.71376227
H   -1.13846354  -0.47964165   2.60474446
O   -0.96636720  -1.86678366  -0.62968866
H   -0.91589318  -1.93517448  -1.58310720
H   -0.25274549  -2.41960753  -0.31131517
O    1.88777348   0.71812743   3.00829722
H    2.36647820   0.87126795   3.82292697
H    2.44107598   0.11251818   2.51501674
O    0.98018075  -2.92875715   1.12849827
H    0.44470973  -2.31361025   1.62959399
H    0.80330767  -3.78085171   1.52709910
O    1.54949249   0.12858356  -0.51999764
H    2.24898510  -0.29780515  -0.00296181
C    2.14372511   1.18165383  -1.26193051
H    1.34200824   1.65108603  -1.83844475
H    2.90874402   0.82461441  -1.96907000
H    2.59755458   1.95167934  -0.61859789
O    0.07850308   2.21304905   1.37311975
H    0.79755074   1.99012261   1.98278976
C    0.06232529   3.62374670   1.22410895
H   -0.75326754   3.85746674   0.53442173
H    0.99668194   4.01661202   0.79351421
H   -0.13123625   4.14931819   2.17231034
O   -1.44633346   0.90524162  -2.01343263
H   -1.37042510   0.17124891  -2.64105983
C   -2.06661243   1.98724972  -2.68948459
H   -2.14429105   2.80528757  -1.96819040
H   -3.08176285   1.74374792  -3.04013233
H   -1.47848229   2.34481287  -3.54915247
O   -1.00593843  -1.56538832  -3.43331134
H   -1.50116033  -2.05174789  -4.10905753
C    0.34650493  -1.49760222  -3.85620114
H    0.88995756  -0.94671399  -3.08375916
H    0.46763872  -0.95873805  -4.80894945
H    0.81069343  -2.49110823  -3.95745416
O   -2.74048855   0.61870806   1.43557955
H   -3.18725080   1.41143938   1.76785027
C   -3.74120395  -0.29875044   1.02403082
H   -3.22069422  -1.18567195   0.65264818
H   -4.36952031   0.09441442   0.20952651
H   -4.39871670  -0.60998451   1.85082442
Na  -0.72343003   0.33766236   0.14811539
