46
Energy:   -674.60381872
O    2.29267911  -2.11961170   1.59385862
H    2.80380629  -2.41731525   2.34642321
H    2.82027676  -1.42111277   1.20659666
O    0.14193762  -0.33990298   1.75137795
H    0.63717588   0.45091428   1.96487024
H    0.77827400  -1.05047289   1.83136708
O    1.15810362  -0.56605031  -1.33518575
H    1.20636594  -1.52041436  -1.27958145
H    0.68165199  -0.39679821  -2.14794613
O    1.27789072  -3.25263796  -0.69739953
H    1.66040492  -3.03359354   0.15226763
H    1.73252776  -4.05077891  -0.96667269
O    3.37694610   0.00010251   0.20326100
H    2.66887466  -0.08503033  -0.43518953
H    4.16857898   0.09129001  -0.32705405
O    1.88522075   1.87328985   1.70071617
H    2.61651644   1.40046761   1.27637076
C    2.44285105   2.75408587   2.66289109
H    1.60554955   3.27854588   3.13124256
H    3.10936949   3.50719917   2.21416973
H    2.99863505   2.22456068   3.45250147
O   -3.14774194   0.49045859   0.57615782
H   -3.48664819   0.56738623   1.48039671
C   -4.22672739   0.73958225  -0.31055611
H   -3.82752268   0.64891031  -1.32440985
H   -4.64488357   1.75208570  -0.19759818
H   -5.04522814   0.01122110  -0.19954310
O   -1.37914124  -2.32540890  -0.52584975
H   -0.60904602  -2.90956060  -0.59021927
C   -2.41540099  -3.04876054   0.11871360
H   -3.27502268  -2.37614856   0.18296991
H   -2.14624916  -3.35737631   1.14101049
H   -2.72339088  -3.94350358  -0.44462862
O   -1.28647457   0.03781732  -2.69464675
H   -1.82971344  -0.56114965  -3.22808219
C   -1.20728306   1.27551617  -3.38338765
H   -0.59201632   1.93823754  -2.76878825
H   -2.19146364   1.75093101  -3.51809717
H   -0.72807368   1.18291557  -4.37058612
O   -0.29964937   2.23940516  -0.05376824
H    0.47499945   2.36507707   0.51416578
C   -1.08979250   3.41466460   0.02973532
H   -1.95793147   3.25607935  -0.61576499
H   -0.55821518   4.31070420  -0.32707824
H   -1.45441454   3.61031275   1.05029885
Na  -1.00503609  -0.00575217  -0.26732990
