46
Energy:   -672.15472923
O    2.97304404  -1.38587890   0.56385173
H    3.82402963  -1.22195018   0.97027853
H    2.40589139  -0.69575967   0.90780693
O   -0.59755610  -0.80526190   3.16091243
H   -0.56576117  -1.03743580   4.08898367
H   -0.72243880  -1.63972815   2.70891438
O    1.76185881  -1.95501319  -1.78444159
H    2.22122327  -2.63291496  -2.28008798
H    2.28275094  -1.84477603  -0.98898512
O   -0.66243995  -1.32187410  -0.60176561
H    0.09228537  -1.66773384  -1.07821349
H   -0.79851807  -1.94175345   0.11479854
O    1.12863021   0.46437719   1.41968592
H    0.60279982   0.07889220   2.12049658
H    1.11285940   1.40481098   1.59735814
O    1.19332194   0.80307116  -2.00002231
H    1.56091443  -0.08680174  -2.10691133
C    1.39570480   1.50154737  -3.21809700
H    0.97588833   2.50166467  -3.08023940
H    0.88085301   1.02957858  -4.06953721
H    2.46132012   1.61086455  -3.47361819
O    0.25190350   3.08479429   0.71730805
H   -0.28997552   3.75679852   1.15685410
C    1.32826453   3.75108950   0.07697111
H    1.92841198   2.97957910  -0.41300842
H    1.97696915   4.28950478   0.78553913
H    0.99046342   4.46155560  -0.69368164
O   -0.98664924  -3.08506867   1.60250298
H   -1.68643547  -3.75488075   1.59388379
C    0.25901503  -3.76379747   1.58902973
H    1.03601490  -2.99460494   1.59899228
H    0.39864929  -4.37841258   0.68596392
H    0.40297965  -4.40592025   2.47205286
O   -1.99639209   2.04128965  -1.84735126
H   -2.44390865   2.87584604  -2.05147827
C   -2.46802357   1.06499795  -2.76220208
H   -1.95386148   0.13142379  -2.51814913
H   -2.23858694   1.31744670  -3.80929605
H   -3.55194543   0.89028601  -2.67637402
O   -2.03368825   0.89991405   1.43183241
H   -1.78278798   0.36770047   2.20139139
C   -3.44763079   0.86022098   1.32355163
H   -3.71304505   1.46459732   0.45190392
H   -3.95364817   1.28859826   2.20287902
H   -3.83336660  -0.15866637   1.16276047
Na  -0.48268984   1.01390255  -0.34986096
