46
Energy:   -672.96068747
O    2.45836263  -1.09430236   1.91079400
H    1.95887192  -0.50716169   2.47825035
H    2.91840106  -1.67758467   2.51443149
O   -2.04012636  -2.45358414  -0.57627693
H   -2.47663523  -3.24425110  -0.89335359
H   -1.13667854  -2.72614336  -0.41588565
O    2.05126187  -0.98636566  -2.32563452
H    2.53892549  -0.37158336  -1.77749333
H    2.71200496  -1.37009091  -2.90218057
O    0.62448920  -1.76091329  -0.07646022
H    1.15519168  -1.66362062  -0.86710607
H    1.24768657  -1.66685266   0.64396291
O    0.85962648   0.76666513   3.14477393
H    0.66208451   1.20012714   2.31452113
H    0.98113604   1.48383937   3.76697034
O    3.03478228   0.60064864  -0.27659432
H    3.10103295   0.04246521   0.51237044
C    4.19120717   1.42112363  -0.32171699
H    4.10029617   2.04325353  -1.21624188
H    5.12254304   0.83918829  -0.40382723
H    4.27386534   2.08786769   0.55086384
O   -3.29565757   0.99281019  -0.25472641
H   -3.81922683   1.58028374   0.31022786
C   -4.19186680   0.32331137  -1.12714495
H   -3.58563664  -0.33410588  -1.75624968
H   -4.74078175   1.01480822  -1.78540160
H   -4.92396591  -0.29896861  -0.58902242
O   -0.52306101   0.16531787  -2.33958011
H    0.32789303  -0.21717988  -2.60034047
C   -1.08785158   0.78065140  -3.48627538
H   -2.04563266   1.20624582  -3.17481112
H   -1.28093618   0.06539485  -4.30107825
H   -0.46373734   1.59739294  -3.88148673
O    0.41112306   1.47046114   0.46404287
H    1.27167968   1.33066935   0.04175880
C   -0.08337422   2.72656252   0.02790581
H   -1.05300719   2.86806492   0.51295651
H   -0.23749106   2.76781495  -1.06173797
H    0.56925450   3.56465554   0.31851411
O   -1.50686355  -0.45362722   2.19288330
H   -0.84209765  -0.16959355   2.83773556
C   -2.37239009  -1.37086894   2.84254876
H   -3.11483237  -1.68063806   2.10207070
H   -2.90660053  -0.92127860   3.69417371
H   -1.84802010  -2.27178244   3.19775054
Na  -1.28857566  -0.23638318  -0.13667410
