46
Energy:   -671.81570895
O    2.45789606  -2.00646662   1.19985094
H    3.33138383  -2.09078030   1.58213640
H    2.56359784  -1.36268727   0.49941740
O    0.93827128   0.25377584   1.96891328
H    0.22757690   0.19628798   2.60753718
H    1.35921740  -0.60532223   2.00032548
O    1.30676146  -1.99511834  -2.83820940
H    1.20464134  -2.66903991  -2.16617291
H    1.67108875  -2.46037260  -3.59122729
O    1.10553154  -3.61421885  -0.58248990
H    1.63416841  -3.20339311   0.10161325
H    1.16861005  -4.55243516  -0.40359580
O    2.25716770  -0.27596325  -0.91273207
H    2.61070445   0.54898174  -1.24546225
H    2.06604310  -0.78916291  -1.69779853
O    1.38597631   2.59253477  -0.46121641
H    1.81119444   3.11724853   0.23325339
C    1.02544875   3.47763660  -1.50961920
H    0.54791571   2.87025916  -2.28327289
H    1.89562288   3.98091567  -1.95937969
H    0.30670260   4.24749962  -1.18791713
O   -1.73250317   1.57323017   0.92604469
H   -1.78874710   1.28855725   1.85028558
C   -2.75455323   2.53265685   0.70821929
H   -2.67682513   2.84257689  -0.33743510
H   -2.63890712   3.42785882   1.33910497
H   -3.76394805   2.12256273   0.86860083
O   -0.77506499  -1.59584845  -0.01092347
H   -0.29751924  -2.42608979  -0.15608769
C   -2.16330168  -1.88547964  -0.04895576
H   -2.68621208  -0.93956574   0.11626166
H   -2.47270797  -2.58890246   0.73986705
H   -2.48698782  -2.28922464  -1.02106408
O   -0.38767856   0.29989067  -2.50118233
H    0.00575475  -0.50430425  -2.87118780
C   -1.56811661   0.57929495  -3.23673181
H   -1.99842435   1.48790985  -2.80691859
H   -2.31787372  -0.22353623  -3.15860556
H   -1.36993229   0.76703685  -4.30362135
O   -1.41546166   0.42798725   3.54456913
H   -1.93455085  -0.21370338   4.05172082
C   -1.08512145   1.49843587   4.41494196
H   -0.50067370   2.21190752   3.82769053
H   -0.47116226   1.17671545   5.27070327
H   -1.97359961   2.02156622   4.80187674
Na   0.09460916   0.60542822  -0.19852162
