46
Energy:   -673.57212108
O   -0.81455413  -0.13367709   1.84564977
H   -1.59867812  -0.32982030   1.33290299
H   -0.44389330  -0.99105614   2.05479938
O    2.64641406  -1.66727518   0.99484437
H    3.51286934  -2.07205824   0.95437498
H    2.29905339  -1.75456487   0.10717725
O    0.29067852  -2.66463463   2.02176402
H    0.40213990  -3.12358996   2.85433126
H    1.17606112  -2.39800659   1.77429888
O    2.22091682   0.95281826   1.82671890
H    2.44850375   0.06474480   1.55147073
H    2.81448924   1.13804876   2.55445051
O   -1.10905085  -3.10490431  -0.32654705
H   -0.69355174  -3.05962439   0.53458132
H   -1.41388035  -4.00939844  -0.39866632
O    1.24681549  -1.97572609  -1.38066351
H    0.41002069  -2.43035410  -1.20314982
C    1.73384006  -2.44231473  -2.62871635
H    2.67661521  -1.92015282  -2.81312665
H    1.05049532  -2.21787000  -3.46264792
H    1.93748665  -3.52458312  -2.62800051
O    0.74507147   4.00764487   0.94753074
H    0.44347799   4.86546017   1.28162291
C    1.98532425   4.21357767   0.29034091
H    2.31061850   3.23751861  -0.07976390
H    2.76512878   4.60000683   0.96514068
H    1.90225200   4.89486943  -0.57088954
O    0.94316502   0.83184503  -1.16248477
H    1.11452780  -0.09414652  -1.38963606
C    0.60541335   1.51337824  -2.35996966
H    0.41558801   2.55470553  -2.08594589
H   -0.30457599   1.11390486  -2.83443541
H    1.41923505   1.49848687  -3.10175792
O   -2.72328854  -0.76875269  -0.09222350
H   -2.32109925  -1.61075469  -0.35241513
C   -4.11940848  -0.98184675   0.04184289
H   -4.55671403  -0.02363154   0.33522435
H   -4.36387275  -1.72132947   0.82041842
H   -4.59349576  -1.29935180  -0.90007490
O   -1.93343135   1.97542273  -0.09466508
H   -2.39746378   1.13955986  -0.25096743
C   -2.79574923   3.02801242  -0.49590888
H   -2.25752947   3.96203009  -0.31310930
H   -3.73216864   3.05468104   0.08304260
H   -3.05023120   2.98455416  -1.56648239
Na   0.21161526   1.72826438   0.88114063
