46
Energy:   -673.01003100
O    0.89918674  -3.01079476   1.90992425
H    1.16449600  -3.57100729   2.63931082
H    1.72135297  -2.66962239   1.55796407
O    0.78756696  -0.16519690   1.51990234
H    0.43555214  -0.95430982   1.93174966
H    1.70374461  -0.37646489   1.34041362
O    2.76583305  -0.86598327  -1.71780431
H    3.10744784  -1.23658321  -2.53155296
H    1.82393949  -1.03233478  -1.75516125
O   -1.21908279  -3.05537892   0.18201399
H   -0.50282454  -3.14924655   0.81002261
H   -1.56818972  -3.94101832   0.08201868
O    3.10396316  -1.60730341   0.89379929
H    4.03019293  -1.62859467   1.13437559
H    3.10384544  -1.41245633  -0.04335942
O    1.62379829   1.63862037  -1.02550874
H    2.25775739   0.98871193  -1.36335212
C    2.36128218   2.75727790  -0.55940079
H    1.63196758   3.47941691  -0.18243838
H    2.94369024   3.24484627  -1.35680612
H    3.04600470   2.50187720   0.26443347
O   -2.23938805  -0.43717705   0.55172111
H   -2.15568613  -1.40146354   0.51211260
C   -3.18662433  -0.12847829   1.56166283
H   -3.26869379   0.96137357   1.59285131
H   -2.87366675  -0.47592978   2.55871466
H   -4.18547553  -0.54006489   1.34795724
O    0.01982836  -1.15843370  -1.49723655
H   -0.40086221  -1.88376121  -1.01211521
C   -0.61193105  -1.06437032  -2.76395116
H   -0.12602491  -0.24271295  -3.29711116
H   -1.68604655  -0.83374594  -2.68736386
H   -0.49495667  -1.97876111  -3.36643255
O   -1.53020303   2.08590980  -1.95246545
H   -1.20576857   2.69480242  -2.63247673
C   -2.94306917   2.02714332  -2.06599756
H   -3.29192808   1.33710943  -1.29292843
H   -3.27554455   1.64196669  -3.04266353
H   -3.42435832   3.00281940  -1.89513423
O   -1.02661840   2.89907202   1.12721426
H   -1.48120701   3.72788250   0.91544629
C   -0.59800598   2.97604814   2.47736234
H   -0.08807692   2.03465295   2.69924664
H   -1.43567448   3.08532114   3.18386657
H    0.11304507   3.79875427   2.65154144
Na  -0.46219474   0.97025370  -0.13972993
