46
Energy:   -675.41174832
O    1.50409462  -2.51228195   1.71983111
H    1.58103386  -3.46630783   1.73194739
H    0.81010139  -2.33553068   1.08472148
O    0.93126024   0.83590913   1.24282208
H    0.64191313   0.45401196   2.07147439
H    1.82100710   0.50382164   1.12323833
O    3.22941934  -0.63542415   0.69514371
H    2.79174731  -1.39213806   1.08509129
H    4.13695731  -0.70397281   0.99163613
O    0.19915837  -0.75786181   3.42022466
H    0.57327316  -0.67060860   4.29695543
H    0.71742114  -1.44765305   3.00570856
O   -2.33720435  -1.14058676   2.40586582
H   -2.95795520  -1.50085291   3.03919712
H   -1.53867669  -0.98970144   2.91165140
O    1.73207272  -0.12373770  -1.64878397
H    2.40477161  -0.39570621  -1.00696420
C    2.38962049   0.58377435  -2.68781785
H    1.61744105   0.88271011  -3.40186373
H    3.12783445  -0.03447080  -3.22222446
H    2.89387178   1.49469553  -2.32902743
O   -0.11291119   2.82733978  -1.59744355
H   -0.40029278   3.28911994  -2.39906327
C    0.59815556   3.75750931  -0.79638020
H    0.91453021   3.22092112   0.10221057
H   -0.02301782   4.61124991  -0.48325408
H    1.49874582   4.14772687  -1.29582466
O   -0.68103957  -1.71786420   0.18895943
H   -1.40148909  -1.64837045   0.83281220
C   -1.08474231  -2.63976377  -0.81087009
H   -0.26184232  -2.70605796  -1.52775633
H   -1.98480590  -2.31121834  -1.35375201
H   -1.26988568  -3.64840777  -0.40945192
O   -1.76745982   0.21659014  -2.61170804
H   -2.69368303   0.47424752  -2.73064711
C   -1.32806349  -0.38049278  -3.82123548
H   -0.28317668  -0.66469498  -3.66982257
H   -1.37325244   0.31051982  -4.67752800
H   -1.89525006  -1.28899420  -4.07755926
O   -2.29593396   0.96714483   0.53319890
H   -2.53984187   0.36675733   1.25324547
C   -2.73453381   2.26814705   0.89035035
H   -2.45183062   2.93161825   0.06854132
H   -2.25633264   2.64064949   1.80977566
H   -3.82673297   2.32867296   1.01768820
Na  -0.33621384   0.61028586  -0.75108117
