46
Energy:   -675.03762189
O    2.04080184  -2.80031382  -0.00257193
H    2.96513683  -3.04693699  -0.03441046
H    2.03107327  -1.87414679  -0.24413319
O    0.95610534  -1.49293151   2.23064140
H    1.38479265  -1.69323538   3.06270954
H    1.31898133  -2.12920559   1.61443676
O    0.04670992  -0.58531604  -2.93865996
H    0.01713858  -1.52299545  -2.74862127
H    0.13665321  -0.53604759  -3.89035039
O    0.15321930  -3.18126759  -1.98849455
H    0.84938161  -3.21773115  -1.33255226
H    0.12275591  -4.06479546  -2.35548547
O    1.54412053  -0.21361980  -0.65065559
H    2.04260415   0.60350352  -0.64321168
H    1.11175232  -0.22320306  -1.50458635
O    2.87516101   2.25211302  -0.51692861
H    3.81415262   2.49026547  -0.51572616
C    2.21728481   3.09986495  -1.44485606
H    1.16088591   2.81812116  -1.43358662
H    2.59236773   2.97718193  -2.47298009
H    2.28952089   4.16468993  -1.17336565
O   -2.04691512   0.48988209   2.58682352
H   -2.14189051   0.64529366   3.53826989
C   -3.33098486   0.62309463   1.99864574
H   -3.20574564   0.44495496   0.92716704
H   -3.75637501   1.63037558   2.12981602
H   -4.05396539  -0.11241574   2.38478169
O   -1.32749178  -1.92080489   0.05419772
H   -1.02166439  -2.43533713  -0.70747770
C   -2.02086749  -2.80481312   0.92039248
H   -2.35841115  -2.20900226   1.77277673
H   -1.38044154  -3.61513302   1.30250973
H   -2.90691832  -3.25606556   0.44704008
O   -1.22380078   1.09103891  -0.98561022
H   -1.06634780   0.59097745  -1.80020850
C   -2.03932690   2.20420325  -1.31472431
H   -2.20686565   2.75640450  -0.38602104
H   -3.02055312   1.90815243  -1.71762175
H   -1.55908174   2.88506782  -2.03483913
O    0.85078860   2.00643242   1.50118877
H    1.60400189   2.25012782   0.94288278
C    0.53820528   3.12569885   2.31486443
H   -0.31211544   2.83396951   2.93722595
H    0.24400693   4.00954295   1.72745974
H    1.36693317   3.41157153   2.98139592
Na  -0.35554962   0.04446306   0.98843086
