46
Energy:   -676.53238750
O    2.87511199  -1.72517748   1.89788607
H    3.63779293  -2.23674512   2.16779008
H    2.34503561  -2.33633334   1.38628135
O   -0.73796815  -0.18592402   1.74198884
H    0.06712579   0.08695439   2.18198084
H   -1.35810058   0.52231863   1.91536692
O    1.23510907  -3.31439630   0.33649279
H    0.32799791  -3.25452612   0.63615384
H    1.33026345  -4.21910661   0.03870640
O    1.71761286   0.60291879   2.68019827
H    2.05099194   0.80033152   3.55548020
H    2.18418177  -0.19104656   2.41911530
O   -1.32671922  -2.78670680   1.13868418
H   -1.14210903  -1.91650110   1.49208616
H   -1.82249639  -3.22610025   1.82960403
O    1.03946117  -0.87149236  -1.06497225
H    1.17052838  -1.76121656  -0.70492294
C    2.29933057  -0.39924652  -1.51469077
H    2.13347199   0.60378219  -1.91707061
H    2.72561763  -1.02248018  -2.31633687
H    3.03949495  -0.32328458  -0.70280173
O    0.98448629   2.11616105   0.41678405
H    1.42405331   1.76073440   1.20347078
C    1.73433327   3.23595763  -0.02629484
H    1.22540262   3.62396962  -0.91281697
H    2.76446295   2.97171968  -0.31228169
H    1.77758822   4.04209338   0.72273886
O   -2.21162736  -1.04875236  -0.93706353
H   -2.08068401  -1.82735266  -0.37576264
C   -3.10054905  -1.41480653  -1.98030671
H   -3.23701139  -0.52644273  -2.60294062
H   -4.08907348  -1.72538037  -1.60729106
H   -2.70075083  -2.21966792  -2.61681033
O   -0.88014343   1.87216313  -2.58762103
H   -1.05757104   2.75362438  -2.94813286
C   -0.62594019   1.00350893  -3.68002864
H   -0.42809632   0.01525224  -3.25612805
H    0.25520942   1.30563361  -4.26745810
H   -1.48552095   0.91622056  -4.36287488
O   -2.47766407   1.80384441   0.60298214
H   -3.40933033   1.63397881   0.39910246
C   -2.36789261   3.15516121   1.02062661
H   -1.31234243   3.32948825   1.24625706
H   -2.95107136   3.36781993   1.93027278
H   -2.67202169   3.86808009   0.23830346
Na  -0.64520981   0.69774875  -0.55912535
