46
Energy:   -673.55640575
O    1.97478862  -0.47182087   2.97799539
H    2.11246078  -0.53442614   3.92317199
H    1.66775284  -1.34156922   2.72206829
O   -0.36867452   0.44981221   1.77196909
H    0.43002103   0.30857563   2.28026970
H   -0.96182515  -0.24439264   2.05916901
O    0.85839996  -2.70644143   1.77347550
H    1.23353055  -3.57686141   1.63976707
H    0.98627292  -2.25893046   0.93704601
O    3.47302250   0.42085424   0.84080481
H    3.07421310   0.18169702   1.67745690
H    4.41154729   0.46009248   1.02482498
O   -1.75605605  -1.92848624   2.16815231
H   -2.22248809  -2.38144284   2.87065022
H   -0.90427931  -2.36318858   2.12641397
O    1.43004276  -1.07886496  -0.41781474
H    2.24920368  -0.62145057  -0.17662861
C    1.62692540  -1.67132278  -1.69169258
H    0.69484583  -2.18222715  -1.94799238
H    2.43679317  -2.41757325  -1.69301986
H    1.83685294  -0.92931413  -2.47790561
O    1.56402940   2.04248773  -0.46199492
H    2.35665439   1.72771791  -0.00255084
C    1.71891373   3.43529766  -0.68250596
H    0.81751294   3.77346438  -1.20077721
H    2.58687018   3.67130754  -1.31790210
H    1.80862389   4.00680573   0.25456818
O   -1.90000290  -1.13887045  -0.53748507
H   -2.07221334  -1.51688323   0.33765673
C   -2.48880080  -1.99783812  -1.50082579
H   -2.28539877  -1.55725967  -2.48062344
H   -3.58064349  -2.08221181  -1.38447305
H   -2.05844850  -3.01142748  -1.48630514
O   -0.25191665   0.97401648  -2.93775064
H    0.43879664   1.35599595  -3.49938229
C   -1.50607259   1.30858768  -3.51019169
H   -2.27266292   0.87064838  -2.86518501
H   -1.63512005   0.89538452  -4.52280575
H   -1.67707375   2.39560709  -3.55406364
O   -1.90853923   2.46281683  -0.25429302
H   -1.76051313   3.26613364   0.26646955
C   -3.26699189   2.08810196  -0.09080322
H   -3.41644323   1.18178099  -0.68387302
H   -3.96682011   2.85528331  -0.45747825
H   -3.52147092   1.85724317   0.95548641
Na  -0.37454071   0.67883262  -0.58460949
