46
Energy:   -673.07336987
O    3.30584460  -0.04163250   1.10466347
H    4.20062780   0.04245199   1.43409430
H    3.23125082  -0.95971468   0.84429310
O    0.77528390   0.93483290   1.14235695
H    0.79917022   1.85897374   0.89411313
H    1.69163255   0.65857988   1.12748146
O   -2.35512977  -0.04177879   1.11323019
H   -3.22034438   0.32146335   1.30214993
H   -1.93663204  -0.12308314   1.97024891
O    2.67197691  -2.58885099   0.27398800
H    2.99653804  -3.48265331   0.38357513
H    1.77756371  -2.61494202   0.61395288
O   -0.55774086  -0.34261505   3.17912260
H    0.01469644   0.22665870   2.66485148
H   -0.32894050  -0.15402679   4.08924167
O    0.03573552  -2.18392014   1.10358728
H   -0.16315654  -1.81996254   1.97903008
C   -0.84672752  -3.27175532   0.87907137
H   -0.60905496  -3.66988146  -0.11112686
H   -1.90521015  -2.96779582   0.87974991
H   -0.71756826  -4.08256208   1.61302478
O    0.71741872   3.59656499   0.21907315
H    1.45384063   4.20472919   0.05707826
C   -0.24892218   4.28762003   0.99441951
H   -1.07129095   3.58820379   1.16765845
H   -0.65541745   5.17137469   0.47816701
H    0.14053145   4.60602561   1.97407306
O   -0.83449011   1.81680143  -1.40198075
H   -0.38966775   2.58589017  -1.01589932
C   -1.52441306   2.25564778  -2.56127104
H   -2.01970385   1.37708449  -2.98352545
H   -0.84925002   2.66805860  -3.32733208
H   -2.29662789   3.00815192  -2.33721947
O    1.35880533  -0.95185101  -1.61830239
H    1.99060812  -1.56544327  -1.21487577
C    2.09597499  -0.03289579  -2.40864154
H    1.36911116   0.65075876  -2.85559863
H    2.65037941  -0.52274811  -3.22439749
H    2.80618332   0.56409717  -1.81536179
O   -1.75759516  -1.58334174  -2.06179905
H   -1.41017791  -1.97766841  -2.87557482
C   -3.16781703  -1.73688261  -2.07707146
H   -3.54278763  -1.28739919  -1.15357435
H   -3.48045447  -2.79269417  -2.09430860
H   -3.64268416  -1.21997640  -2.92565058
Na  -0.58939431  -0.31937456  -0.44941810
