46
Energy:   -672.28845600
O    2.61458409   1.64526449   1.41753640
H    1.70164884   1.84211222   1.20769827
H    2.98527910   2.48542005   1.68763952
O   -0.66861798   0.29554614   3.32268349
H    0.21040950  -0.08065105   3.27775891
H   -0.74957033   0.60946670   4.22331241
O   -2.31266893  -0.31416236  -0.83001111
H   -2.41645344  -0.70794207   0.03624415
H   -3.02691405  -0.68406188  -1.34891389
O    1.84320889  -0.65987039   2.69545771
H    2.55130932  -1.12990050   3.13579546
H    2.26489093   0.11382391   2.32154163
O    0.36867354  -1.49967564   0.48287489
H    0.95865199  -1.33884066   1.21927789
H   -0.46522456  -1.73404032   0.89020646
O   -0.00047874  -1.35398628  -3.09275148
H   -0.23669175  -1.26721177  -4.02821761
C    0.41482409  -2.69306139  -2.87610622
H    0.67717098  -2.77328207  -1.81769989
H    1.30214848  -2.96433757  -3.46926891
H   -0.38099526  -3.42449535  -3.08694564
O    2.29557837   0.61448870  -1.18837724
H    2.71415078   0.96246902  -0.38704703
C    3.27691673  -0.12031179  -1.90222388
H    2.78865428  -0.50511707  -2.80167365
H    3.66495415  -0.97809751  -1.33090264
H    4.12932158   0.50221733  -2.21629520
O   -0.12317913   1.59007178   0.85264447
H   -0.47700719   1.18926124   1.66046864
C   -0.92589497   2.71852618   0.54479430
H   -0.51352175   3.15791169  -0.36755097
H   -0.90161887   3.48579685   1.33440416
H   -1.97682923   2.45263419   0.35084597
O   -0.23694079   1.88352078  -2.78165387
H    0.46534221   2.34375103  -3.26477908
C   -1.48006585   2.35348766  -3.27794509
H   -2.25993308   1.82492360  -2.72304659
H   -1.61859479   2.13935428  -4.34926855
H   -1.62044371   3.43407856  -3.11858795
O   -2.16808157  -1.43840373   1.69802607
H   -1.86829619  -0.89060650   2.43861381
C   -2.99538183  -2.46218144   2.22716430
H   -3.32424699  -3.06975946   1.37970819
H   -3.89089697  -2.06696893   2.73178003
H   -2.46121165  -3.11914351   2.93132365
Na  -0.01457128   0.10840402  -1.21371070
