
                                 *****************
                                 * O   R   C   A *
                                 *****************

           --- An Ab Initio, DFT and Semiempirical electronic structure package ---

                  #######################################################
                  #                        -***-                        #
                  #  Department of molecular theory and spectroscopy    #
                  #              Directorship: Frank Neese              #
                  # Max Planck Institute for Chemical Energy Conversion #
                  #                  D-45470 Muelheim/Ruhr              #
                  #                       Germany                       #
                  #                                                     #
                  #                  All rights reserved                #
                  #                        -***-                        #
                  #######################################################


                         Program Version 3.0.3 - RELEASE   -


 With contributions from (in alphabetic order):
   Ute Becker             : Parallelization
   Dmytro Bykov           : SCF Hessian
   Dmitry Ganyushin       : Spin-Orbit,Spin-Spin,Magnetic field MRCI
   Andreas Hansen         : Spin unrestricted coupled pair/coupled cluster methods
   Dimitrios Liakos       : Extrapolation schemes; parallel MDCI
   Robert Izsak           : Overlap fitted RIJCOSX, COSX-SCS-MP3
   Christian Kollmar      : KDIIS, OOCD, Brueckner-CCSD(T), CCSD density
   Simone Kossmann        : Meta GGA functionals, TD-DFT gradient, OOMP2, MP2 Hessian
   Taras Petrenko         : DFT Hessian,TD-DFT gradient, ASA and ECA modules, normal mode analysis, Resonance Raman, ABS, FL, XAS/XES, NRVS
   Christoph Reimann      : Effective Core Potentials
   Michael Roemelt        : Restricted open shell CIS
   Christoph Riplinger    : Improved optimizer, TS searches, QM/MM, DLPNO-CCSD
   Barbara Sandhoefer     : DKH picture change effects
   Igor Schapiro          : Molecular dynamics
   Kantharuban Sivalingam : CASSCF convergence, NEVPT2
   Boris Wezisla          : Elementary symmetry handling
   Frank Wennmohs         : Technical directorship


 We gratefully acknowledge several colleagues who have allowed us to
 interface, adapt or use parts of their codes:
   Stefan Grimme, W. Hujo, H. Kruse, T. Risthaus : VdW corrections, initial TS optimization,
                                                   DFT functionals, gCP
   Ed Valeev                                     : LibInt (2-el integral package), F12 methods
   Garnet Chan, S. Sharma, R. Olivares           : DMRG
   Ulf Ekstrom                                   : XCFun DFT Library
   Mihaly Kallay                                 : mrcc  (arbitrary order and MRCC methods)
   Andreas Klamt, Michael Diedenhofen            : otool_cosmo (COSMO solvation model)
   Frank Weinhold                                : gennbo (NPA and NBO analysis)
   Christopher J. Cramer and Donald G. Truhlar   : smd solvation model


 Your calculation uses the libint2 library for the computation of 2-el integrals
 For citations please refer to: http://libint.valeyev.net

 This ORCA versions uses:
   CBLAS   interface :  Fast vector & matrix operations
   LAPACKE interface :  Fast linear algebra routines
   SCALAPACK package :  Parallel linear algebra routines


Your calculation utilizes the basis: Ahlrichs-TZV
Cite in your paper:
H - Kr: A. Schaefer, H. Horn and R. Ahlrichs, J. Chem. Phys. 97, 2571 (1992).

The def2-TZV basis will be loaded
Cite in your paper:
 	F. Weigend, R. Ahlrichs, Phys. Chem. Chem. Phys. 2005, 7, 3297.

Your calculation utilizes the atom-pairwise dispersion correction
with the zero-damping scheme (D30)
Cite in your paper:
S.Grimme, J.Antony, S.Ehrlich and H.Krieg, J.Chem.Phys., 132, (2010), 154104 
   

XCFun DFT library Copyright 2009-2010 Ulf Ekstrom and contributors.
See http://admol.org/xcfun for more information. This is free soft-
ware; see the source code for copying conditions. There is ABSOLUTELY
NO WARRANTY; not even for MERCHANTABILITY or FITNESS FOR A PARTICULAR
PURPOSE. For details see the documentation. Scientific users of this 
library should cite U. Ekstrom, L. Visscher, R. Bast, A. J. Thorvald-
sen and K. Ruud; J.Chem.Theor.Comp. 2010, DOI: 10.1021/ct100117s
XCFun Version 0.99 
================================================================================
                                        WARNINGS
                       Please study these warnings very carefully!
================================================================================
Now building the actual basis set


INFO   : the flag for use of LIBINT has been found!

================================================================================
                                       INPUT FILE
================================================================================
NAME = 2_wB97X_GasPhase_onBP86_12_waters.inp
|  1> ! wB97X-D3 Def2-TZVP def2-TZVP/J RIJCOSX TightSCF Grid4 
|  2> 
|  3> %pal nprocs 12 end
|  4> 
|  5> %scf
|  6>         maxiter 400
|  7> end
|  8> 
|  9> * xyz  0  1
| 10> O  2.279363	2.297839	-0.284430
| 11> H  2.871367	3.061369	-0.157426
| 12> H  1.388663	2.680307	-0.675004
| 13> O  -0.107418	-1.122614	3.087626
| 14> H  0.482500	-0.421884	2.698435
| 15> H  -1.026222	-0.780723	2.895615
| 16> O  0.200515	1.013535	-3.087602
| 17> H  1.155765	0.715447	-2.784522
| 18> H  0.231979	1.095745	-4.058130
| 19> O  -2.496585	-0.336838	2.046678
| 20> H  -2.532603	-1.120239	1.352221
| 21> H  -3.363033	-0.330253	2.492270
| 22> O  2.473108	0.308701	-2.137483
| 23> H  2.224405	-0.472378	-1.572680
| 24> H  2.600587	1.042525	-1.471117
| 25> O  1.174662	-1.374768	-0.460546
| 26> H  0.282165	-1.114766	-0.871780
| 27> H  0.942771	-2.162910	0.109820
| 28> O  1.165336	0.530008	1.364990
| 29> H  1.742669	1.250870	0.979955
| 30> H  1.245195	-0.225200	0.686579
| 31> O  -1.149560	-0.514798	-1.379943
| 32> H  -0.835277	-0.045163	-2.205528
| 33> H  -1.232770	0.236074	-0.697147
| 34> O  -2.398732	-2.217364	0.314790
| 35> H  -2.095857	-1.737076	-0.502766
| 36> H  -1.574065	-2.686790	0.626566
| 37> O  0.017407	-2.974402	1.321296
| 38> H  -0.004878	-2.271951	2.097191
| 39> H  0.263075	-3.823146	1.732016
| 40> O  -1.186279	1.357325	0.478366
| 41> H  -0.290540	1.100572	0.883978
| 42> H  -1.846443	0.955872	1.113834
| 43> O  0.026744	3.036563	-1.264665
| 44> H  -0.613865	2.629320	-0.620330
| 45> H  -0.014143	2.421192	-2.051125
| 46> **                         ****END OF INPUT****
================================================================================

                       ****************************
                       * Single Point Calculation *
                       ****************************

---------------------------------
CARTESIAN COORDINATES (ANGSTROEM)
---------------------------------
  O      2.279363    2.297839   -0.284430
  H      2.871367    3.061369   -0.157426
  H      1.388663    2.680307   -0.675004
  O     -0.107418   -1.122614    3.087626
  H      0.482500   -0.421884    2.698435
  H     -1.026222   -0.780723    2.895615
  O      0.200515    1.013535   -3.087602
  H      1.155765    0.715447   -2.784522
  H      0.231979    1.095745   -4.058130
  O     -2.496585   -0.336838    2.046678
  H     -2.532603   -1.120239    1.352221
  H     -3.363033   -0.330253    2.492270
  O      2.473108    0.308701   -2.137483
  H      2.224405   -0.472378   -1.572680
  H      2.600587    1.042525   -1.471117
  O      1.174662   -1.374768   -0.460546
  H      0.282165   -1.114766   -0.871780
  H      0.942771   -2.162910    0.109820
  O      1.165336    0.530008    1.364990
  H      1.742669    1.250870    0.979955
  H      1.245195   -0.225200    0.686579
  O     -1.149560   -0.514798   -1.379943
  H     -0.835277   -0.045163   -2.205528
  H     -1.232770    0.236074   -0.697147
  O     -2.398732   -2.217364    0.314790
  H     -2.095857   -1.737076   -0.502766
  H     -1.574065   -2.686790    0.626566
  O      0.017407   -2.974402    1.321296
  H     -0.004878   -2.271951    2.097191
  H      0.263075   -3.823146    1.732016
  O     -1.186279    1.357325    0.478366
  H     -0.290540    1.100572    0.883978
  H     -1.846443    0.955872    1.113834
  O      0.026744    3.036563   -1.264665
  H     -0.613865    2.629320   -0.620330
  H     -0.014143    2.421192   -2.051125

----------------------------
CARTESIAN COORDINATES (A.U.)
----------------------------
  NO LB      ZA    FRAG    MASS        X           Y           Z
   0 O     8.0000    0    15.999          4.307371829793146          4.342286409843475         -0.537494804271222
   1 H     1.0000    0     1.008          5.426097259979062          5.785149004876368         -0.297492026358687
   2 H     1.0000    0     1.008          2.624192762309487          5.065046184832068         -1.275572699301381
   3 O     8.0000    0    15.999         -0.202990601853553         -2.121433014105872          5.834767543974739
   4 H     1.0000    0     1.008          0.911792859617004         -0.797245220283233          5.099303140187793
   5 H     1.0000    0     1.008         -1.939278532604935         -1.475352656453401          5.471919339274385
   6 O     8.0000    0    15.999          0.378918435743220          1.915303577143876         -5.834722190547525
   7 H     1.0000    0     1.008          2.184079325171495          1.351998893335558         -5.261983993878672
   8 H     1.0000    0     1.008          0.438376778820918          2.070657962613542         -7.668754315849849
   9 O     8.0000    0    15.999         -4.717861920055788         -0.636531571497767          3.867660904321680
  10 H     1.0000    0     1.008         -4.785926075947364         -2.116944914537809          2.555327362537128
  11 H     1.0000    0     1.008         -6.355211349339589         -0.624087724905895          4.709707751787918
  12 O     8.0000    0    15.999          4.673496819609719          0.583360347267624         -4.039257485912398
  13 H     1.0000    0     1.008          4.203516260925102         -0.892665051689453         -2.971934496295274
  14 H     1.0000    0     1.008          4.914397217435866          1.970086737766253         -2.780008240955830
  15 O     8.0000    0    15.999          2.219789479924205         -2.597935017678651         -0.870305812072897
  16 H     1.0000    0     1.008          0.533214574577890         -2.106602443406858         -1.647425449029869
  17 H     1.0000    0     1.008          1.781578997003072         -4.087307552319615          0.207529724027232
  18 O     8.0000    0    15.999          2.202165893999255          1.001569968787335          2.579457275541169
  19 H     1.0000    0     1.008          3.293167152074414          2.363801729138076          1.851846573566800
  20 H     1.0000    0     1.008          2.353077533328073         -0.425566325359066          1.297446279301519
  21 O     8.0000    0    15.999         -2.172353574510514         -0.972827234290392         -2.607714350421694
  22 H     1.0000    0     1.008         -1.578444775963341         -0.085345701386285         -4.167843900695071
  23 H     1.0000    0     1.008         -2.329597686114101          0.446115207339326         -1.317416905084799
  24 O     8.0000    0    15.999         -4.532946548673191         -4.190210699216162          0.594866889697071
  25 H     1.0000    0     1.008         -3.960595745861793         -3.282597913807392         -0.950090049447052
  26 H     1.0000    0     1.008         -2.974551766990755         -5.077297279358279          1.184038144826503
  27 O     8.0000    0    15.999          0.032894462813167         -5.620805192187639          2.496887581845614
  28 H     1.0000    0     1.008         -0.009218084081268         -4.293365179688521          3.963116640524444
  29 H     1.0000    0     1.008          0.497139702681333         -7.224698909996498          3.273035899569751
  30 O     8.0000    0    15.999         -2.241742428421968          2.564972524724663          0.903980731779374
  31 H     1.0000    0     1.008         -0.549041030949481          2.079779670661980          1.670476328411440
  32 H     1.0000    0     1.008         -3.489271591895958          1.806336299083575          2.104841218650043
  33 O     8.0000    0    15.999          0.050538835725590          5.738272458398318         -2.389870501155519
  34 H     1.0000    0     1.008         -1.160036733199569          4.968694718441825         -1.172253812655370
  35 H     1.0000    0     1.008         -0.026726396712048          4.575389797641063         -3.876064516439227

--------------------------------
INTERNAL COORDINATES (ANGSTROEM)
--------------------------------
 O      0   0   0   0.000000     0.000     0.000
 H      1   0   0   0.974462     0.000     0.000
 H      1   2   0   1.045072   106.244     0.000
 O      1   2   3   5.363486   133.479   246.161
 H      4   1   2   0.995236    16.535   346.943
 H      4   1   2   0.998979    94.025   111.676
 O      3   1   2   3.163930   114.346   135.603
 H      7   3   1   1.045570    65.548   351.710
 H      7   3   1   0.974512   134.656   262.391
 O      6   4   1   1.754906   161.835    59.190
 H     10   6   4   1.047514    99.227    35.903
 H     10   6   4   0.974335   121.706   151.435
 O      8   7   3   1.522989   171.708    41.400
 H     13   8   7   0.995460   103.562    59.033
 H     13   8   7   0.999396   101.391   312.197
 O     14  13   8   1.775700   154.395   319.828
 H     16  14  13   1.016497    97.799    38.895
 H     16  14  13   1.000129   153.473   181.195
 O      5   4   1   1.774948   154.081   352.414
 H     19   5   4   1.000604   153.821   176.985
 H     19   5   4   1.018311    97.639   320.591
 O     17  16  14   1.633410   171.655   269.039
 H     22  17  16   1.000461    98.847   100.416
 H     22  17  16   1.018304    97.693   355.416
 O     11  10   6   1.515872   172.726   312.888
 H     25  11  10   0.995393   103.872   301.723
 H     25  11  10   0.998820   101.504    48.824
 O     18  16  14   1.726989   153.455   167.031
 H     28  18  16   1.046875   102.476   312.434
 H     28  18  16   0.974377   124.743   192.484
 O     24  22  17   1.625176   172.478   355.955
 H     31  24  22   1.016264    98.025     5.159
 H     31  24  22   1.000400    99.423   260.355
 O      3   1   2   1.526251   172.027   174.412
 H     34   3   1   0.995688   103.216    58.972
 H     34   3   1   0.999436   101.350   312.160

---------------------------
INTERNAL COORDINATES (A.U.)
---------------------------
 O      0   0   0   0.000000     0.000     0.000
 H      1   0   0   1.841467     0.000     0.000
 H      1   2   0   1.974901   106.244     0.000
 O      1   2   3  10.135520   133.479   246.161
 H      4   1   2   1.880724    16.535   346.943
 H      4   1   2   1.887796    94.025   111.676
 O      3   1   2   5.978961   114.346   135.603
 H      7   3   1   1.975841    65.548   351.710
 H      7   3   1   1.841560   134.656   262.391
 O      6   4   1   3.316292   161.835    59.190
 H     10   6   4   1.979514    99.227    35.903
 H     10   6   4   1.841225   121.706   151.435
 O      8   7   3   2.878031   171.708    41.400
 H     13   8   7   1.881146   103.562    59.033
 H     13   8   7   1.888585   101.391   312.197
 O     14  13   8   3.355586   154.395   319.828
 H     16  14  13   1.920900    97.799    38.895
 H     16  14  13   1.889970   153.473   181.195
 O      5   4   1   3.354165   154.081   352.414
 H     19   5   4   1.890867   153.821   176.985
 H     19   5   4   1.924330    97.639   320.591
 O     17  16  14   3.086697   171.655   269.039
 H     22  17  16   1.890597    98.847   100.416
 H     22  17  16   1.924316    97.693   355.416
 O     11  10   6   2.864583   172.726   312.888
 H     25  11  10   1.881021   103.872   301.723
 H     25  11  10   1.887496   101.504    48.824
 O     18  16  14   3.263537   153.455   167.031
 H     28  18  16   1.978307   102.476   312.434
 H     28  18  16   1.841305   124.743   192.484
 O     24  22  17   3.071137   172.478   355.955
 H     31  24  22   1.920460    98.025     5.159
 H     31  24  22   1.890482    99.423   260.355
 O      3   1   2   2.884196   172.027   174.412
 H     34   3   1   1.881577   103.216    58.972
 H     34   3   1   1.888661   101.350   312.160

---------------------
BASIS SET INFORMATION
---------------------
There are 2 groups of distinct atoms

 Group   1 Type O   : 11s6p2d1f contracted to 5s3p2d1f pattern {62111/411/11/1}
 Group   2 Type H   : 5s1p contracted to 3s1p pattern {311/1}

Atom   0O    basis set group =>   1
Atom   1H    basis set group =>   2
Atom   2H    basis set group =>   2
Atom   3O    basis set group =>   1
Atom   4H    basis set group =>   2
Atom   5H    basis set group =>   2
Atom   6O    basis set group =>   1
Atom   7H    basis set group =>   2
Atom   8H    basis set group =>   2
Atom   9O    basis set group =>   1
Atom  10H    basis set group =>   2
Atom  11H    basis set group =>   2
Atom  12O    basis set group =>   1
Atom  13H    basis set group =>   2
Atom  14H    basis set group =>   2
Atom  15O    basis set group =>   1
Atom  16H    basis set group =>   2
Atom  17H    basis set group =>   2
Atom  18O    basis set group =>   1
Atom  19H    basis set group =>   2
Atom  20H    basis set group =>   2
Atom  21O    basis set group =>   1
Atom  22H    basis set group =>   2
Atom  23H    basis set group =>   2
Atom  24O    basis set group =>   1
Atom  25H    basis set group =>   2
Atom  26H    basis set group =>   2
Atom  27O    basis set group =>   1
Atom  28H    basis set group =>   2
Atom  29H    basis set group =>   2
Atom  30O    basis set group =>   1
Atom  31H    basis set group =>   2
Atom  32H    basis set group =>   2
Atom  33O    basis set group =>   1
Atom  34H    basis set group =>   2
Atom  35H    basis set group =>   2
-------------------------------
AUXILIARY BASIS SET INFORMATION
-------------------------------
There are 2 groups of distinct atoms

 Group   1 Type O   : 12s5p4d2f1g contracted to 6s4p3d1f1g pattern {711111/2111/211/2/1}
 Group   2 Type H   : 5s2p1d contracted to 3s1p1d pattern {311/2/1}

Atom   0O    basis set group =>   1
Atom   1H    basis set group =>   2
Atom   2H    basis set group =>   2
Atom   3O    basis set group =>   1
Atom   4H    basis set group =>   2
Atom   5H    basis set group =>   2
Atom   6O    basis set group =>   1
Atom   7H    basis set group =>   2
Atom   8H    basis set group =>   2
Atom   9O    basis set group =>   1
Atom  10H    basis set group =>   2
Atom  11H    basis set group =>   2
Atom  12O    basis set group =>   1
Atom  13H    basis set group =>   2
Atom  14H    basis set group =>   2
Atom  15O    basis set group =>   1
Atom  16H    basis set group =>   2
Atom  17H    basis set group =>   2
Atom  18O    basis set group =>   1
Atom  19H    basis set group =>   2
Atom  20H    basis set group =>   2
Atom  21O    basis set group =>   1
Atom  22H    basis set group =>   2
Atom  23H    basis set group =>   2
Atom  24O    basis set group =>   1
Atom  25H    basis set group =>   2
Atom  26H    basis set group =>   2
Atom  27O    basis set group =>   1
Atom  28H    basis set group =>   2
Atom  29H    basis set group =>   2
Atom  30O    basis set group =>   1
Atom  31H    basis set group =>   2
Atom  32H    basis set group =>   2
Atom  33O    basis set group =>   1
Atom  34H    basis set group =>   2
Atom  35H    basis set group =>   2
smp-n107.crc.pitt.edu.370546hfi_wait_for_device: The /dev/hfi1_0 device failed to appear after 15.0 seconds: Connection timed out
smp-n107.crc.pitt.edu.370543hfi_wait_for_device: The /dev/hfi1_0 device failed to appear after 15.0 seconds: Connection timed out
smp-n107.crc.pitt.edu.370545hfi_wait_for_device: The /dev/hfi1_0 device failed to appear after 15.0 seconds: Connection timed out
smp-n107.crc.pitt.edu.370549hfi_wait_for_device: The /dev/hfi1_0 device failed to appear after 15.0 seconds: Connection timed out
smp-n107.crc.pitt.edu.370550hfi_wait_for_device: The /dev/hfi1_0 device failed to appear after 15.0 seconds: Connection timed out
smp-n107.crc.pitt.edu.370551hfi_wait_for_device: The /dev/hfi1_0 device failed to appear after 15.0 seconds: Connection timed out
smp-n107.crc.pitt.edu.370555hfi_wait_for_device: The /dev/hfi1_0 device failed to appear after 15.0 seconds: Connection timed out
smp-n107.crc.pitt.edu.370559hfi_wait_for_device: The /dev/hfi1_0 device failed to appear after 15.0 seconds: Connection timed out
smp-n107.crc.pitt.edu.370554hfi_wait_for_device: The /dev/hfi1_0 device failed to appear after 15.0 seconds: Connection timed out
smp-n107.crc.pitt.edu.370544hfi_wait_for_device: The /dev/hfi1_0 device failed to appear after 15.0 seconds: Connection timed out
smp-n107.crc.pitt.edu.370562hfi_wait_for_device: The /dev/hfi1_0 device failed to appear after 15.0 seconds: Connection timed out
smp-n107.crc.pitt.edu.370558hfi_wait_for_device: The /dev/hfi1_0 device failed to appear after 15.0 seconds: Connection timed out


           ************************************************************
           *        Program running with 12 parallel MPI-processes    *
           *              working on a common directory               *
           ************************************************************
------------------------------------------------------------------------------
                           ORCA GTO INTEGRAL CALCULATION
                           -- RI-GTO INTEGRALS CHOSEN --
------------------------------------------------------------------------------

                         BASIS SET STATISTICS AND STARTUP INFO

Gaussian basis set:
 # of primitive gaussian shells          ...  384
 # of primitive gaussian functions       ...  744
 # of contracted shells                  ...  228
 # of contracted basis functions         ...  516
 Highest angular momentum                ...    3
 Maximum contraction depth               ...    6
Auxiliary gaussian basis set:
 # of primitive gaussian shells          ...  480
 # of primitive gaussian functions       ... 1224
 # of contracted shells                  ...  300
 # of contracted aux-basis functions     ...  852
 Highest angular momentum                ...    4
 Maximum contraction depth               ...    7
Ratio of auxiliary to basis functions    ...  1.65
Integral package used                  ... LIBINT
 One Electron integrals                  ... done
 Ordering auxiliary basis shells         ... done
 Integral threshhold             Thresh  ...  2.500e-11
 Primitive cut-off               TCut    ...  2.500e-12
 Pre-screening matrix                    ... done
 Shell pair data                         ... 
 Ordering of the shell pairs             ... done (   0.003 sec) 19937 of 26106 pairs
 Determination of significant pairs      ... done (   0.000 sec)
 Creation of shell pair data             ... done (   0.002 sec)
 Storage of shell pair data              ... done (   0.003 sec)
 Shell pair data done in (   0.008 sec)
 Computing two index integrals           ... done
 Cholesky decomposition of the V-matrix  ... done


Timings:
 Total evaluation time                   ...   0.771 sec (  0.013 min)
 One electron matrix time                ...   0.237 sec (  0.004 min) = 30.8%
 Schwartz matrix evaluation time         ...   0.212 sec (  0.004 min) = 27.5%
 Two index repulsion integral time       ...   0.266 sec (  0.004 min) = 34.5%
 Cholesky decomposition of V             ...   0.034 sec (  0.001 min) =  4.4%
 Three index repulsion integral time     ...   0.000 sec (  0.000 min) =  0.0%

           ************************************************************
           *              Shut down parallel processing               *
           ************************************************************
smp-n107.crc.pitt.edu.370572hfi_wait_for_device: The /dev/hfi1_0 device failed to appear after 15.0 seconds: Connection timed out
smp-n107.crc.pitt.edu.370578hfi_wait_for_device: The /dev/hfi1_0 device failed to appear after 15.0 seconds: Connection timed out
smp-n107.crc.pitt.edu.370583hfi_wait_for_device: The /dev/hfi1_0 device failed to appear after 15.0 seconds: Connection timed out
smp-n107.crc.pitt.edu.370582hfi_wait_for_device: The /dev/hfi1_0 device failed to appear after 15.0 seconds: Connection timed out
smp-n107.crc.pitt.edu.370574hfi_wait_for_device: The /dev/hfi1_0 device failed to appear after 15.0 seconds: Connection timed out
smp-n107.crc.pitt.edu.370569hfi_wait_for_device: The /dev/hfi1_0 device failed to appear after 15.0 seconds: Connection timed out
smp-n107.crc.pitt.edu.370570hfi_wait_for_device: The /dev/hfi1_0 device failed to appear after 15.0 seconds: Connection timed out
smp-n107.crc.pitt.edu.370571hfi_wait_for_device: The /dev/hfi1_0 device failed to appear after 15.0 seconds: Connection timed out
smp-n107.crc.pitt.edu.370579hfi_wait_for_device: The /dev/hfi1_0 device failed to appear after 15.0 seconds: Connection timed out
smp-n107.crc.pitt.edu.370586hfi_wait_for_device: The /dev/hfi1_0 device failed to appear after 15.0 seconds: Connection timed out
smp-n107.crc.pitt.edu.370573hfi_wait_for_device: The /dev/hfi1_0 device failed to appear after 15.0 seconds: Connection timed out
smp-n107.crc.pitt.edu.370576hfi_wait_for_device: The /dev/hfi1_0 device failed to appear after 15.0 seconds: Connection timed out


           ************************************************************
           *        Program running with 12 parallel MPI-processes    *
           *              working on a common directory               *
           ************************************************************
-------------------------------------------------------------------------------
                                 ORCA SCF
-------------------------------------------------------------------------------

------------
SCF SETTINGS
------------
Hamiltonian:
 Density Functional     Method          .... DFT(GTOs)
 Exchange Functional    Exchange        .... WB97X-D3
 Correlation Functional Correlation     .... WB97X-D3
 Gradients option       PostSCFGGA      .... off
 Hybrid DFT is turned on
   Fraction HF Exchange ScalHFX         ....  0.195728
   Scaling of DF-GGA-X  ScalDFX         ....  0.000000
   Scaling of DF-GGA-C  ScalDFC         ....  1.000000
   Scaling of DF-LDA-C  ScalLDAC        ....  1.000000
   Perturbative correction              ....  0.000000
 Long-range corrected/Screened/Range-Separated Hybrid DFT is turned on
   Amount of maximum screened exact exchange              ....  0.804272
   Range separation parameter mu (erf(mu*r12)/r12)        ....  0.250000
 RI-approximation to the Coulomb term is turned on
   Number of auxiliary basis functions  .... 852
   RIJ-COSX (HFX calculated with COS-X)).... on


General Settings:
 Integral files         IntName         .... 2_wB97X_GasPhase_onBP86_12_waters
 Hartree-Fock type      HFTyp           .... RHF
 Total Charge           Charge          ....    0
 Multiplicity           Mult            ....    1
 Number of Electrons    NEL             ....  120
 Basis Dimension        Dim             ....  516
 Nuclear Repulsion      ENuc            ....   1057.8992151863 Eh

Convergence Acceleration:
 DIIS                   CNVDIIS         .... on
   Start iteration      DIISMaxIt       ....    12
   Startup error        DIISStart       ....  0.200000
   # of expansion vecs  DIISMaxEq       ....     5
   Bias factor          DIISBfac        ....   1.050
   Max. coefficient     DIISMaxC        ....  10.000
 Newton-Raphson         CNVNR           .... off
 SOSCF                  CNVSOSCF        .... on
   Start iteration      SOSCFMaxIt      ....   150
   Startup grad/error   SOSCFStart      ....  0.003300
 Level Shifting         CNVShift        .... on
   Level shift para.    LevelShift      ....    0.2500
   Turn off err/grad.   ShiftErr        ....    0.0010
 Zerner damping         CNVZerner       .... off
 Static damping         CNVDamp         .... on
   Fraction old density DampFac         ....    0.7000
   Max. Damping (<1)    DampMax         ....    0.9800
   Min. Damping (>=0)   DampMin         ....    0.0000
   Turn off err/grad.   DampErr         ....    0.1000
 Fernandez-Rico         CNVRico         .... off

SCF Procedure:
 Maximum # iterations   MaxIter         ....   400
 SCF integral mode      SCFMode         .... Direct
   Integral package                     .... LIBINT
 Reset frequeny         DirectResetFreq ....    20
 Integral Threshold     Thresh          ....  2.500e-11 Eh
 Primitive CutOff       TCut            ....  2.500e-12 Eh

Convergence Tolerance:
 Convergence Check Mode ConvCheckMode   .... Total+1el-Energy
 Energy Change          TolE            ....  1.000e-08 Eh
 1-El. energy change                    ....  1.000e-05 Eh
 Orbital Gradient       TolG            ....  1.000e-05
 Orbital Rotation angle TolX            ....  1.000e-05
 DIIS Error             TolErr          ....  5.000e-07


Diagonalization of the overlap matrix:
Smallest eigenvalue                        ... 1.991e-03
Time for diagonalization                   ...    0.377 sec
Threshold for overlap eigenvalues          ... 1.000e-08
Number of eigenvalues below threshold      ... 0
Time for construction of square roots      ...    0.387 sec
Total time needed                          ...    0.765 sec

-------------------
DFT GRID GENERATION
-------------------

General Integration Accuracy     IntAcc      ...  4.670
Radial Grid Type                 RadialGrid  ... Gauss-Chebyshev
Angular Grid (max. acc.)         AngularGrid ... Lebedev-302
Angular grid pruning method      GridPruning ... 3 (G Style)
Weight generation scheme         WeightScheme... Becke
Basis function cutoff            BFCut       ...    1.0000e-11
Integration weight cutoff        WCut        ...    1.0000e-14
Grids for H and He will be reduced by one unit

# of grid points (after initial pruning)     ... 156000 (   0.0 sec)
# of grid points (after weights+screening)   ... 137310 (   0.3 sec)
nearest neighbour list constructed           ...    0.0 sec
Grid point re-assignment to atoms done       ...    0.0 sec
Grid point division into batches done        ...    0.3 sec
Reduced shell lists constructed in    0.5 sec

Total number of grid points                  ...   137310
Total number of batches                      ...     2163
Average number of points per batch           ...       63
Average number of grid points per atom       ...     3814
Average number of shells per batch           ...    89.91 (39.44%)
Average number of basis functions per batch  ...   174.25 (33.77%)
Average number of large shells per batch     ...    57.10 (63.51%)
Average number of large basis fcns per batch ...   108.35 (62.18%)
Maximum spatial batch extension              ...  13.95, 13.54, 13.91 au
Average spatial batch extension              ...   0.18,  0.19,  0.20 au

Time for grid setup =    1.669 sec

------------------------------
INITIAL GUESS: MODEL POTENTIAL
------------------------------
Loading Hartree-Fock densities                     ... done
Calculating cut-offs                               ... done
Setting up the integral package                    ... done
Initializing the effective Hamiltonian             ... done
Starting the Coulomb interaction                   ... done (   0.1 sec)
Reading the grid                                   ... done
Mapping shells                                     ... done
Starting the XC term evaluation                    ... done (   0.7 sec)
  promolecular density results
     # of electrons  =    119.985614266
     EX              =   -104.935153009
     EC              =     -3.967196921
     EX+EC           =   -108.902349930
Transforming the Hamiltonian                       ... done (   0.1 sec)
Diagonalizing the Hamiltonian                      ... done (   0.1 sec)
Back transforming the eigenvectors                 ... done (   0.0 sec)
Now organizing SCF variables                       ... done
                      ------------------
                      INITIAL GUESS DONE (   2.8 sec)
                      ------------------
--------------------
COSX GRID GENERATION
--------------------

General Integration Accuracy     IntAcc      ...  3.340
Radial Grid Type                 RadialGrid  ... Gauss-Chebyshev
Angular Grid (max. acc.)         AngularGrid ... Lebedev-50
Angular grid pruning method      GridPruning ... 3 (G Style)
Weight generation scheme         WeightScheme... Becke
Basis function cutoff            BFCut       ...    1.0000e-11
Integration weight cutoff        WCut        ...    1.0000e-14
Grids for H and He will be reduced by one unit

# of grid points (after initial pruning)     ...  14640 (   0.0 sec)
# of grid points (after weights+screening)   ...  13080 (   0.0 sec)
nearest neighbour list constructed           ...    0.0 sec
Grid point re-assignment to atoms done       ...    0.0 sec
Grid point division into batches done        ...    0.0 sec
Reduced shell lists constructed in    0.0 sec

Total number of grid points                  ...    13080
Total number of batches                      ...      217
Average number of points per batch           ...       60
Average number of grid points per atom       ...      363
Average number of shells per batch           ...   102.15 (44.80%)
Average number of basis functions per batch  ...   204.95 (39.72%)
Average number of large shells per batch     ...    67.20 (65.79%)
Average number of large basis fcns per batch ...   130.20 (63.53%)
Maximum spatial batch extension              ...  11.37, 13.70, 16.37 au
Average spatial batch extension              ...   0.38,  0.45,  0.48 au

Overlap Fitting                  UseSFitting ... on
Constructing numerical overlap ... done (      0.1 sec)
Inverting numerical overlap    ... done (      0.0 sec)
Obtaining analytic overlap     ... done (      0.0 sec)
Final contraction and storage  ... done (      0.0 sec)


General Integration Accuracy     IntAcc      ...  3.670
Radial Grid Type                 RadialGrid  ... Gauss-Chebyshev
Angular Grid (max. acc.)         AngularGrid ... Lebedev-50
Angular grid pruning method      GridPruning ... 3 (G Style)
Weight generation scheme         WeightScheme... Becke
Basis function cutoff            BFCut       ...    1.0000e-11
Integration weight cutoff        WCut        ...    1.0000e-14
Grids for H and He will be reduced by one unit

# of grid points (after initial pruning)     ...  19224 (   0.0 sec)
# of grid points (after weights+screening)   ...  17151 (   0.0 sec)
nearest neighbour list constructed           ...    0.0 sec
Grid point re-assignment to atoms done       ...    0.0 sec
Grid point division into batches done        ...    0.0 sec
Reduced shell lists constructed in    0.0 sec

Total number of grid points                  ...    17151
Total number of batches                      ...      287
Average number of points per batch           ...       59
Average number of grid points per atom       ...      476
Average number of shells per batch           ...   102.40 (44.91%)
Average number of basis functions per batch  ...   205.28 (39.78%)
Average number of large shells per batch     ...    66.52 (64.96%)
Average number of large basis fcns per batch ...   129.00 (62.84%)
Maximum spatial batch extension              ...  12.20, 14.68, 18.01 au
Average spatial batch extension              ...   0.30,  0.32,  0.37 au

Overlap Fitting                  UseSFitting ... on
Constructing numerical overlap ... done (      0.1 sec)
Inverting numerical overlap    ... done (      0.0 sec)
Obtaining analytic overlap     ... done (      0.0 sec)
Final contraction and storage  ... done (      0.1 sec)


General Integration Accuracy     IntAcc      ...  4.010
Radial Grid Type                 RadialGrid  ... Gauss-Chebyshev
Angular Grid (max. acc.)         AngularGrid ... Lebedev-110
Angular grid pruning method      GridPruning ... 3 (G Style)
Weight generation scheme         WeightScheme... Becke
Basis function cutoff            BFCut       ...    1.0000e-11
Integration weight cutoff        WCut        ...    1.0000e-14
Grids for H and He will be reduced by one unit

# of grid points (after initial pruning)     ...  33096 (   0.0 sec)
# of grid points (after weights+screening)   ...  29727 (   0.0 sec)
nearest neighbour list constructed           ...    0.0 sec
Grid point re-assignment to atoms done       ...    0.0 sec
Grid point division into batches done        ...    0.0 sec
Reduced shell lists constructed in    0.1 sec

Total number of grid points                  ...    29727
Total number of batches                      ...      481
Average number of points per batch           ...       61
Average number of grid points per atom       ...      826
Average number of shells per batch           ...    98.36 (43.14%)
Average number of basis functions per batch  ...   193.83 (37.56%)
Average number of large shells per batch     ...    63.38 (64.44%)
Average number of large basis fcns per batch ...   121.76 (62.82%)
Maximum spatial batch extension              ...  14.17, 15.34, 17.35 au
Average spatial batch extension              ...   0.32,  0.35,  0.36 au

Overlap Fitting                  UseSFitting ... on
Constructing numerical overlap ... done (      0.1 sec)
Inverting numerical overlap    ... done (      0.0 sec)
Obtaining analytic overlap     ... done (      0.0 sec)
Final contraction and storage  ... done (      0.0 sec)

Time for X-Grid setup             =    1.462 sec
--------------
SCF ITERATIONS
--------------
ITER       Energy         Delta-E        Max-DP      RMS-DP      [F,P]     Damp
               ***  Starting incremental Fock matrix formation  ***
  0   -916.6976137181   0.000000000000 0.03852440  0.00077815  0.2727534 0.7000
  1   -917.0335829758  -0.335969257688 0.02562408  0.00052085  0.1386405 0.7000
                               ***Turning on DIIS***
  2   -917.1774491097  -0.143866133838 0.04117734  0.00085093  0.0565892 0.0000
  3   -917.4008208014  -0.223371691777 0.01653472  0.00033042  0.0678855 0.0000
  4   -917.4442071907  -0.043386389306 0.00281682  0.00005882  0.0093979 0.0000
                      *** Initiating the SOSCF procedure ***
                           *** Shutting down DIIS ***
                      *** Re-Reading the Fockian *** 
                      *** Removing any level shift *** 
ITER      Energy       Delta-E        Grad      Rot      Max-DP    RMS-DP
  5   -917.44508366  -0.0008764685  0.000388  0.000388  0.000644  0.000017
               *** Restarting incremental Fock matrix formation ***
  6   -917.44514298  -0.0000593250  0.000179  0.000286  0.000420  0.000010
  7   -917.44514563  -0.0000026457  0.000144  0.000077  0.000230  0.000004
  8   -917.44514740  -0.0000017659  0.000011  0.000012  0.000031  0.000001
  9   -917.44514743  -0.0000000354  0.000008  0.000007  0.000015  0.000000
                  ***Gradient check signals convergence***
              ***Rediagonalizing the Fockian in SOSCF/NRSCF***

               *****************************************************
               *                     SUCCESS                       *
               *           SCF CONVERGED AFTER  10 CYCLES          *
               *****************************************************

Setting up the final grid:

General Integration Accuracy     IntAcc      ...  5.010
Radial Grid Type                 RadialGrid  ... Gauss-Chebyshev
Angular Grid (max. acc.)         AngularGrid ... Lebedev-434
Angular grid pruning method      GridPruning ... 3 (G Style)
Weight generation scheme         WeightScheme... Becke
Basis function cutoff            BFCut       ...    1.0000e-11
Integration weight cutoff        WCut        ...    1.0000e-14
Grids for H and He will be reduced by one unit

# of grid points (after initial pruning)     ... 290712 (   0.0 sec)
# of grid points (after weights+screening)   ... 255122 (   0.5 sec)
nearest neighbour list constructed           ...    0.0 sec
Grid point re-assignment to atoms done       ...    0.1 sec
Grid point division into batches done        ...    2.0 sec
Reduced shell lists constructed in    2.4 sec

Total number of grid points                  ...   255122
Total number of batches                      ...     4006
Average number of points per batch           ...       63
Average number of grid points per atom       ...     7087
Average number of shells per batch           ...    87.93 (38.57%)
Average number of basis functions per batch  ...   169.23 (32.80%)
Average number of large shells per batch     ...    55.59 (63.22%)
Average number of large basis fcns per batch ...   105.14 (62.13%)
Maximum spatial batch extension              ...  14.85, 13.63, 12.73 au
Average spatial batch extension              ...   0.14,  0.15,  0.16 au

Final grid set up in    2.9 sec
Final integration                            ... done (   1.3 sec)
Change in XC energy                          ...    -0.001266794
Integrated number of electrons               ...   120.000542794
Previous integrated no of electrons          ...   119.999063051
Old exchange energy                            =    -33.946161832 Eh
New exchange energy                            =    -33.945119717 Eh
Exchange energy change after final integration =      0.001042115 Eh
Total energy after final integration           =   -917.445372162 Eh
Final COS-X integration done in                =     7.396 sec

----------------
TOTAL SCF ENERGY
----------------

Total Energy       :         -917.44537216 Eh          -24964.95777 eV

Components:
Nuclear Repulsion  :         1057.89921519 Eh           28786.90114 eV
Electronic Energy  :        -1975.34458735 Eh          -53751.85891 eV

One Electron Energy:        -3371.85483373 Eh          -91752.83465 eV
Two Electron Energy:         1396.51024638 Eh           38000.97574 eV

Virial components:
Potential Energy   :        -1830.82585057 Eh          -49819.30416 eV
Kinetic Energy     :          913.38047841 Eh           24854.34639 eV
Virial Ratio       :            2.00445038


DFT components:
N(Alpha)           :       60.000271397165 electrons
N(Beta)            :       60.000271397165 electrons
N(Total)           :      120.000542794330 electrons
E(XC)              :      -77.932628751389 Eh       

---------------
SCF CONVERGENCE
---------------

  Last Energy change         ...   -5.1609e-08  Tolerance :   1.0000e-08
  Last MAX-Density change    ...    1.9407e-14  Tolerance :   1.0000e-07
  Last RMS-Density change    ...    4.1640e-16  Tolerance :   5.0000e-09
  Last Orbital Gradient      ...    1.6175e-06  Tolerance :   1.0000e-05
  Last Orbital Rotation      ...    1.6778e-06  Tolerance :   1.0000e-05

             **** THE GBW FILE WAS UPDATED (2_wB97X_GasPhase_onBP86_12_waters.gbw) ****
             **** DENSITY FILE WAS UPDATED (2_wB97X_GasPhase_onBP86_12_waters.scfp.tmp) ****
             **** ENERGY FILE WAS UPDATED (2_wB97X_GasPhase_onBP86_12_waters.en.tmp) ****
----------------
ORBITAL ENERGIES
----------------

  NO   OCC          E(Eh)            E(eV) 
   0   2.0000     -19.249960      -523.8180 
   1   2.0000     -19.249632      -523.8091 
   2   2.0000     -19.249371      -523.8020 
   3   2.0000     -19.249314      -523.8005 
   4   2.0000     -19.234880      -523.4077 
   5   2.0000     -19.234836      -523.4065 
   6   2.0000     -19.234281      -523.3914 
   7   2.0000     -19.234105      -523.3866 
   8   2.0000     -19.234019      -523.3843 
   9   2.0000     -19.233665      -523.3746 
  10   2.0000     -19.233581      -523.3724 
  11   2.0000     -19.233396      -523.3673 
  12   2.0000      -1.157168       -31.4881 
  13   2.0000      -1.147773       -31.2325 
  14   2.0000      -1.138336       -30.9757 
  15   2.0000      -1.138157       -30.9708 
  16   2.0000      -1.132852       -30.8265 
  17   2.0000      -1.124860       -30.6090 
  18   2.0000      -1.124385       -30.5961 
  19   2.0000      -1.113276       -30.2938 
  20   2.0000      -1.110495       -30.2181 
  21   2.0000      -1.109997       -30.2046 
  22   2.0000      -1.105817       -30.0908 
  23   2.0000      -1.090637       -29.6777 
  24   2.0000      -0.656547       -17.8655 
  25   2.0000      -0.654447       -17.8084 
  26   2.0000      -0.653221       -17.7751 
  27   2.0000      -0.652902       -17.7664 
  28   2.0000      -0.647136       -17.6095 
  29   2.0000      -0.639447       -17.4002 
  30   2.0000      -0.637270       -17.3410 
  31   2.0000      -0.636673       -17.3248 
  32   2.0000      -0.622541       -16.9402 
  33   2.0000      -0.618736       -16.8367 
  34   2.0000      -0.616661       -16.7802 
  35   2.0000      -0.616331       -16.7712 
  36   2.0000      -0.590331       -16.0637 
  37   2.0000      -0.555558       -15.1175 
  38   2.0000      -0.543893       -14.8001 
  39   2.0000      -0.542711       -14.7679 
  40   2.0000      -0.515734       -14.0338 
  41   2.0000      -0.513709       -13.9787 
  42   2.0000      -0.513492       -13.9728 
  43   2.0000      -0.506482       -13.7821 
  44   2.0000      -0.482399       -13.1267 
  45   2.0000      -0.481853       -13.1119 
  46   2.0000      -0.479513       -13.0482 
  47   2.0000      -0.450868       -12.2687 
  48   2.0000      -0.434298       -11.8178 
  49   2.0000      -0.434069       -11.8116 
  50   2.0000      -0.431862       -11.7515 
  51   2.0000      -0.431267       -11.7354 
  52   2.0000      -0.421644       -11.4735 
  53   2.0000      -0.421283       -11.4637 
  54   2.0000      -0.418570       -11.3899 
  55   2.0000      -0.417498       -11.3607 
  56   2.0000      -0.416427       -11.3315 
  57   2.0000      -0.416216       -11.3258 
  58   2.0000      -0.415284       -11.3004 
  59   2.0000      -0.413648       -11.2559 
  60   0.0000       0.082157         2.2356 
  61   0.0000       0.104161         2.8344 
  62   0.0000       0.118985         3.2378 
  63   0.0000       0.119194         3.2434 
  64   0.0000       0.159877         4.3505 
  65   0.0000       0.178810         4.8657 
  66   0.0000       0.178951         4.8695 
  67   0.0000       0.194572         5.2946 
  68   0.0000       0.226137         6.1535 
  69   0.0000       0.232421         6.3245 
  70   0.0000       0.232930         6.3384 
  71   0.0000       0.237594         6.4653 
  72   0.0000       0.263819         7.1789 
  73   0.0000       0.276958         7.5364 
  74   0.0000       0.283242         7.7074 
  75   0.0000       0.287903         7.8342 
  76   0.0000       0.290735         7.9113 
  77   0.0000       0.291387         7.9290 
  78   0.0000       0.298844         8.1320 
  79   0.0000       0.300117         8.1666 
  80   0.0000       0.309830         8.4309 
  81   0.0000       0.310701         8.4546 
  82   0.0000       0.326373         8.8811 
  83   0.0000       0.327779         8.9193 
  84   0.0000       0.340623         9.2688 
  85   0.0000       0.367338         9.9958 
  86   0.0000       0.385584        10.4923 
  87   0.0000       0.386213        10.5094 
  88   0.0000       0.391923        10.6648 
  89   0.0000       0.400603        10.9010 
  90   0.0000       0.411574        11.1995 
  91   0.0000       0.415617        11.3095 
  92   0.0000       0.418801        11.3961 
  93   0.0000       0.419723        11.4212 
  94   0.0000       0.431681        11.7466 
  95   0.0000       0.434663        11.8278 
  96   0.0000       0.435283        11.8447 
  97   0.0000       0.453474        12.3397 
  98   0.0000       0.454839        12.3768 
  99   0.0000       0.455124        12.3846 
 100   0.0000       0.469209        12.7678 
 101   0.0000       0.469686        12.7808 
 102   0.0000       0.471005        12.8167 
 103   0.0000       0.508032        13.8242 
 104   0.0000       0.508561        13.8387 
 105   0.0000       0.514111        13.9897 
 106   0.0000       0.518407        14.1066 
 107   0.0000       0.550192        14.9715 
 108   0.0000       0.562837        15.3156 
 109   0.0000       0.571711        15.5571 
 110   0.0000       0.572329        15.5739 
 111   0.0000       0.583208        15.8699 
 112   0.0000       0.591724        16.1016 
 113   0.0000       0.592526        16.1234 
 114   0.0000       0.597258        16.2522 
 115   0.0000       0.606279        16.4977 
 116   0.0000       0.642196        17.4750 
 117   0.0000       0.642951        17.4956 
 118   0.0000       0.645258        17.5584 
 119   0.0000       0.652715        17.7613 
 120   0.0000       0.679904        18.5011 
 121   0.0000       0.698672        19.0118 
 122   0.0000       0.705816        19.2062 
 123   0.0000       0.706966        19.2375 
 124   0.0000       0.718370        19.5478 
 125   0.0000       0.723727        19.6936 
 126   0.0000       0.724186        19.7061 
 127   0.0000       0.725862        19.7517 
 128   0.0000       0.746311        20.3082 
 129   0.0000       0.747279        20.3345 
 130   0.0000       0.756950        20.5977 
 131   0.0000       0.769470        20.9384 
 132   0.0000       0.770581        20.9686 
 133   0.0000       0.770886        20.9769 
 134   0.0000       0.777085        21.1456 
 135   0.0000       0.798573        21.7303 
 136   0.0000       0.803330        21.8597 
 137   0.0000       0.843644        22.9567 
 138   0.0000       0.846877        23.0447 
 139   0.0000       0.847473        23.0609 
 140   0.0000       0.876077        23.8393 
 141   0.0000       0.911279        24.7972 
 142   0.0000       0.912250        24.8236 
 143   0.0000       0.936789        25.4913 
 144   0.0000       0.953633        25.9497 
 145   0.0000       0.963505        26.2183 
 146   0.0000       0.964792        26.2533 
 147   0.0000       0.982113        26.7247 
 148   0.0000       0.989400        26.9229 
 149   0.0000       0.998388        27.1675 
 150   0.0000       1.000137        27.2151 
 151   0.0000       1.079015        29.3615 
 152   0.0000       1.082761        29.4634 
 153   0.0000       1.085483        29.5375 
 154   0.0000       1.115691        30.3595 
 155   0.0000       1.161474        31.6053 
 156   0.0000       1.225656        33.3518 
 157   0.0000       1.226028        33.3619 
 158   0.0000       1.228418        33.4269 
 159   0.0000       1.228838        33.4384 
 160   0.0000       1.230993        33.4970 
 161   0.0000       1.255537        34.1649 
 162   0.0000       1.256010        34.1778 
 163   0.0000       1.265288        34.4302 
 164   0.0000       1.270439        34.5704 
 165   0.0000       1.278845        34.7991 
 166   0.0000       1.280067        34.8324 
 167   0.0000       1.287630        35.0382 
 168   0.0000       1.288565        35.0636 
 169   0.0000       1.289355        35.0851 
 170   0.0000       1.312243        35.7079 
 171   0.0000       1.364174        37.1211 
 172   0.0000       1.371471        37.3196 
 173   0.0000       1.372489        37.3473 
 174   0.0000       1.394030        37.9335 
 175   0.0000       1.406126        38.2626 
 176   0.0000       1.418001        38.5858 
 177   0.0000       1.425147        38.7802 
 178   0.0000       1.426717        38.8230 
 179   0.0000       1.442834        39.2615 
 180   0.0000       1.455176        39.5973 
 181   0.0000       1.456180        39.6247 
 182   0.0000       1.462709        39.8023 
 183   0.0000       1.472409        40.0663 
 184   0.0000       1.478982        40.2452 
 185   0.0000       1.480107        40.2758 
 186   0.0000       1.494887        40.6779 
 187   0.0000       1.510092        41.0917 
 188   0.0000       1.511566        41.1318 
 189   0.0000       1.514194        41.2033 
 190   0.0000       1.522764        41.4365 
 191   0.0000       1.547903        42.1206 
 192   0.0000       1.656878        45.0859 
 193   0.0000       1.665108        45.3099 
 194   0.0000       1.740605        47.3643 
 195   0.0000       1.740883        47.3718 
 196   0.0000       1.743501        47.4431 
 197   0.0000       1.747012        47.5386 
 198   0.0000       1.750571        47.6355 
 199   0.0000       1.769332        48.1460 
 200   0.0000       1.770411        48.1753 
 201   0.0000       1.775144        48.3041 
 202   0.0000       1.779031        48.4099 
 203   0.0000       1.789273        48.6886 
 204   0.0000       1.796268        48.8789 
 205   0.0000       1.797355        48.9085 
 206   0.0000       1.810162        49.2570 
 207   0.0000       1.811825        49.3023 
 208   0.0000       1.840541        50.0837 
 209   0.0000       1.853119        50.4259 
 210   0.0000       1.854181        50.4548 
 211   0.0000       1.857216        50.5374 
 212   0.0000       1.858812        50.5808 
 213   0.0000       1.877937        51.1013 
 214   0.0000       1.896454        51.6051 
 215   0.0000       1.915016        52.1102 
 216   0.0000       1.917283        52.1719 
 217   0.0000       1.930792        52.5395 
 218   0.0000       1.969565        53.5946 
 219   0.0000       1.973212        53.6938 
 220   0.0000       1.974928        53.7405 
 221   0.0000       2.009793        54.6893 
 222   0.0000       2.013607        54.7930 
 223   0.0000       2.014387        54.8142 
 224   0.0000       2.036992        55.4294 
 225   0.0000       2.054016        55.8926 
 226   0.0000       2.055143        55.9233 
 227   0.0000       2.068422        56.2846 
 228   0.0000       2.071524        56.3690 
 229   0.0000       2.072354        56.3916 
 230   0.0000       2.090457        56.8842 
 231   0.0000       2.116448        57.5915 
 232   0.0000       2.116717        57.5988 
 233   0.0000       2.126564        57.8668 
 234   0.0000       2.131539        58.0021 
 235   0.0000       2.157979        58.7216 
 236   0.0000       2.182886        59.3994 
 237   0.0000       2.202541        59.9342 
 238   0.0000       2.202865        59.9430 
 239   0.0000       2.203272        59.9541 
 240   0.0000       2.204514        59.9879 
 241   0.0000       2.222185        60.4687 
 242   0.0000       2.233641        60.7805 
 243   0.0000       2.234454        60.8026 
 244   0.0000       2.250090        61.2281 
 245   0.0000       2.266363        61.6709 
 246   0.0000       2.270881        61.7938 
 247   0.0000       2.283953        62.1495 
 248   0.0000       2.285562        62.1933 
 249   0.0000       2.330970        63.4289 
 250   0.0000       2.336581        63.5816 
 251   0.0000       2.338444        63.6323 
 252   0.0000       2.349368        63.9296 
 253   0.0000       2.350837        63.9695 
 254   0.0000       2.352240        64.0077 
 255   0.0000       2.393175        65.1216 
 256   0.0000       2.408306        65.5333 
 257   0.0000       2.410096        65.5820 
 258   0.0000       2.411255        65.6136 
 259   0.0000       2.417130        65.7735 
 260   0.0000       2.418154        65.8013 
 261   0.0000       2.419490        65.8377 
 262   0.0000       2.423479        65.9462 
 263   0.0000       2.425083        65.9899 
 264   0.0000       2.464453        67.0612 
 265   0.0000       2.470136        67.2158 
 266   0.0000       2.473156        67.2980 
 267   0.0000       2.475838        67.3710 
 268   0.0000       2.490557        67.7715 
 269   0.0000       2.492109        67.8137 
 270   0.0000       2.492497        67.8243 
 271   0.0000       2.504330        68.1463 
 272   0.0000       2.505599        68.1808 
 273   0.0000       2.509088        68.2757 
 274   0.0000       2.513867        68.4058 
 275   0.0000       2.536165        69.0126 
 276   0.0000       2.537310        69.0437 
 277   0.0000       2.538535        69.0770 
 278   0.0000       2.541013        69.1445 
 279   0.0000       2.565875        69.8210 
 280   0.0000       2.566459        69.8369 
 281   0.0000       2.598088        70.6976 
 282   0.0000       2.600222        70.7556 
 283   0.0000       2.620000        71.2938 
 284   0.0000       2.621438        71.3329 
 285   0.0000       2.627541        71.4990 
 286   0.0000       2.628229        71.5178 
 287   0.0000       2.636392        71.7399 
 288   0.0000       2.668424        72.6115 
 289   0.0000       2.705485        73.6200 
 290   0.0000       2.710787        73.7643 
 291   0.0000       2.720880        74.0389 
 292   0.0000       2.728960        74.2588 
 293   0.0000       2.732297        74.3496 
 294   0.0000       2.758390        75.0596 
 295   0.0000       2.760827        75.1259 
 296   0.0000       2.766068        75.2685 
 297   0.0000       2.783768        75.7502 
 298   0.0000       2.784079        75.7587 
 299   0.0000       2.788501        75.8790 
 300   0.0000       2.794351        76.0382 
 301   0.0000       2.813294        76.5536 
 302   0.0000       2.828849        76.9769 
 303   0.0000       2.844723        77.4089 
 304   0.0000       2.847766        77.4917 
 305   0.0000       2.876958        78.2860 
 306   0.0000       2.880379        78.3791 
 307   0.0000       2.882002        78.4233 
 308   0.0000       2.907024        79.1042 
 309   0.0000       2.976897        81.0055 
 310   0.0000       2.980909        81.1147 
 311   0.0000       3.013317        81.9965 
 312   0.0000       3.037678        82.6594 
 313   0.0000       3.039716        82.7149 
 314   0.0000       3.046777        82.9070 
 315   0.0000       3.083740        83.9128 
 316   0.0000       3.085462        83.9597 
 317   0.0000       3.096271        84.2538 
 318   0.0000       3.112099        84.6845 
 319   0.0000       3.132600        85.2424 
 320   0.0000       3.133881        85.2772 
 321   0.0000       3.137058        85.3637 
 322   0.0000       3.157779        85.9275 
 323   0.0000       3.174628        86.3860 
 324   0.0000       3.175249        86.4029 
 325   0.0000       3.183969        86.6402 
 326   0.0000       3.191509        86.8454 
 327   0.0000       3.237199        88.0887 
 328   0.0000       3.267312        88.9081 
 329   0.0000       3.292230        89.5861 
 330   0.0000       3.298396        89.7539 
 331   0.0000       3.314647        90.1961 
 332   0.0000       3.317572        90.2757 
 333   0.0000       3.354424        91.2785 
 334   0.0000       3.374521        91.8254 
 335   0.0000       3.381914        92.0266 
 336   0.0000       3.847553       104.6972 
 337   0.0000       3.853496       104.8590 
 338   0.0000       3.853898       104.8699 
 339   0.0000       3.868599       105.2699 
 340   0.0000       3.868821       105.2760 
 341   0.0000       3.870566       105.3235 
 342   0.0000       3.883229       105.6680 
 343   0.0000       3.888088       105.8003 
 344   0.0000       3.964929       107.8912 
 345   0.0000       3.993533       108.6695 
 346   0.0000       3.995271       108.7169 
 347   0.0000       4.010493       109.1311 
 348   0.0000       4.013089       109.2017 
 349   0.0000       4.014513       109.2405 
 350   0.0000       4.048678       110.1701 
 351   0.0000       4.051168       110.2379 
 352   0.0000       4.067795       110.6903 
 353   0.0000       4.075523       110.9006 
 354   0.0000       4.099138       111.5432 
 355   0.0000       4.101894       111.6182 
 356   0.0000       4.125893       112.2712 
 357   0.0000       4.156075       113.0926 
 358   0.0000       4.161159       113.2309 
 359   0.0000       4.199229       114.2668 
 360   0.0000       5.189737       141.2199 
 361   0.0000       5.190258       141.2341 
 362   0.0000       5.190875       141.2509 
 363   0.0000       5.191574       141.2699 
 364   0.0000       5.192673       141.2998 
 365   0.0000       5.192938       141.3070 
 366   0.0000       5.194057       141.3375 
 367   0.0000       5.198321       141.4535 
 368   0.0000       5.201165       141.5309 
 369   0.0000       5.202086       141.5560 
 370   0.0000       5.202722       141.5733 
 371   0.0000       5.204029       141.6088 
 372   0.0000       5.285047       143.8134 
 373   0.0000       5.289679       143.9395 
 374   0.0000       5.294359       144.0668 
 375   0.0000       5.296632       144.1287 
 376   0.0000       5.307750       144.4312 
 377   0.0000       5.327078       144.9572 
 378   0.0000       5.328894       145.0066 
 379   0.0000       5.333862       145.1418 
 380   0.0000       5.349712       145.5731 
 381   0.0000       5.358293       145.8066 
 382   0.0000       5.360992       145.8800 
 383   0.0000       5.361305       145.8885 
 384   0.0000       5.394702       146.7973 
 385   0.0000       5.396564       146.8480 
 386   0.0000       5.398031       146.8879 
 387   0.0000       5.401580       146.9845 
 388   0.0000       5.429727       147.7504 
 389   0.0000       5.439014       148.0031 
 390   0.0000       5.439811       148.0248 
 391   0.0000       5.442215       148.0902 
 392   0.0000       5.444106       148.1417 
 393   0.0000       5.453839       148.4065 
 394   0.0000       5.455697       148.4571 
 395   0.0000       5.476321       149.0183 
 396   0.0000       5.479661       149.1092 
 397   0.0000       5.479858       149.1145 
 398   0.0000       5.492015       149.4453 
 399   0.0000       5.497070       149.5829 
 400   0.0000       5.501900       149.7143 
 401   0.0000       5.502677       149.7355 
 402   0.0000       5.507488       149.8664 
 403   0.0000       5.517781       150.1464 
 404   0.0000       5.518393       150.1631 
 405   0.0000       5.519203       150.1852 
 406   0.0000       5.521693       150.2529 
 407   0.0000       5.524359       150.3255 
 408   0.0000       5.536509       150.6561 
 409   0.0000       5.537359       150.6792 
 410   0.0000       5.539890       150.7481 
 411   0.0000       5.541032       150.7792 
 412   0.0000       5.542798       150.8272 
 413   0.0000       5.543206       150.8383 
 414   0.0000       5.545193       150.8924 
 415   0.0000       5.546872       150.9381 
 416   0.0000       5.571122       151.5979 
 417   0.0000       5.575727       151.7233 
 418   0.0000       5.576789       151.7521 
 419   0.0000       5.594988       152.2474 
 420   0.0000       5.994042       163.1062 
 421   0.0000       6.006014       163.4319 
 422   0.0000       6.006609       163.4481 
 423   0.0000       6.034765       164.2143 
 424   0.0000       6.049946       164.6274 
 425   0.0000       6.051627       164.6732 
 426   0.0000       6.053075       164.7125 
 427   0.0000       6.058214       164.8524 
 428   0.0000       6.072665       165.2456 
 429   0.0000       6.073224       165.2608 
 430   0.0000       6.090136       165.7210 
 431   0.0000       6.092060       165.7734 
 432   0.0000       6.176847       168.0805 
 433   0.0000       6.237948       169.7432 
 434   0.0000       6.247177       169.9943 
 435   0.0000       6.271598       170.6589 
 436   0.0000       6.272844       170.6928 
 437   0.0000       6.316049       171.8684 
 438   0.0000       6.320568       171.9914 
 439   0.0000       6.322785       172.0517 
 440   0.0000       6.379792       173.6030 
 441   0.0000       6.381836       173.6586 
 442   0.0000       6.383179       173.6951 
 443   0.0000       6.385485       173.7579 
 444   0.0000       6.391574       173.9236 
 445   0.0000       6.421935       174.7497 
 446   0.0000       6.449254       175.4931 
 447   0.0000       6.454581       175.6381 
 448   0.0000       6.454821       175.6446 
 449   0.0000       6.465741       175.9418 
 450   0.0000       6.468814       176.0254 
 451   0.0000       6.473958       176.1654 
 452   0.0000       6.497106       176.7952 
 453   0.0000       6.500270       176.8813 
 454   0.0000       6.504907       177.0075 
 455   0.0000       6.510267       177.1534 
 456   0.0000       6.510832       177.1687 
 457   0.0000       6.514645       177.2725 
 458   0.0000       6.517643       177.3541 
 459   0.0000       6.540160       177.9668 
 460   0.0000       6.541802       178.0115 
 461   0.0000       6.553981       178.3429 
 462   0.0000       6.554988       178.3703 
 463   0.0000       6.576576       178.9577 
 464   0.0000       6.587734       179.2614 
 465   0.0000       6.594617       179.4487 
 466   0.0000       6.606590       179.7744 
 467   0.0000       6.611368       179.9045 
 468   0.0000       6.634960       180.5464 
 469   0.0000       6.637208       180.6076 
 470   0.0000       6.641809       180.7328 
 471   0.0000       6.660598       181.2441 
 472   0.0000       6.721147       182.8917 
 473   0.0000       6.722420       182.9263 
 474   0.0000       6.755797       183.8346 
 475   0.0000       6.787212       184.6894 
 476   0.0000       6.828827       185.8218 
 477   0.0000       6.855476       186.5470 
 478   0.0000       6.858314       186.6242 
 479   0.0000       6.883910       187.3207 
 480   0.0000       6.981304       189.9709 
 481   0.0000       6.992670       190.2802 
 482   0.0000       7.035361       191.4419 
 483   0.0000       7.037560       191.5018 
 484   0.0000       7.038491       191.5271 
 485   0.0000       7.095132       193.0684 
 486   0.0000       7.103028       193.2832 
 487   0.0000       7.121091       193.7747 
 488   0.0000       7.123856       193.8500 
 489   0.0000       7.154244       194.6769 
 490   0.0000       7.154790       194.6917 
 491   0.0000       7.163485       194.9283 
 492   0.0000       7.165124       194.9729 
 493   0.0000       7.184766       195.5074 
 494   0.0000       7.186045       195.5422 
 495   0.0000       7.236240       196.9081 
 496   0.0000       7.237412       196.9400 
 497   0.0000       7.242186       197.0699 
 498   0.0000       7.244509       197.1331 
 499   0.0000       7.244738       197.1393 
 500   0.0000       7.286036       198.2631 
 501   0.0000       7.319882       199.1841 
 502   0.0000       7.329318       199.4409 
 503   0.0000       7.331660       199.5046 
 504   0.0000      43.522030      1184.2946 
 505   0.0000      43.523645      1184.3386 
 506   0.0000      43.569874      1185.5965 
 507   0.0000      43.571064      1185.6289 
 508   0.0000      43.622456      1187.0274 
 509   0.0000      43.624548      1187.0843 
 510   0.0000      43.678787      1188.5602 
 511   0.0000      43.679082      1188.5682 
 512   0.0000      43.794042      1191.6965 
 513   0.0000      43.799384      1191.8418 
 514   0.0000      43.802755      1191.9336 
 515   0.0000      44.069155      1199.1827 

                    ********************************
                    * MULLIKEN POPULATION ANALYSIS *
                    ********************************

-----------------------
MULLIKEN ATOMIC CHARGES
-----------------------
   0 O :   -0.771241
   1 H :    0.356248
   2 H :    0.370323
   3 O :   -0.691541
   4 H :    0.393539
   5 H :    0.366618
   6 O :   -0.772452
   7 H :    0.371745
   8 H :    0.356212
   9 O :   -0.771969
  10 H :    0.369613
  11 H :    0.355833
  12 O :   -0.692865
  13 H :    0.393176
  14 H :    0.367097
  15 O :   -0.761862
  16 H :    0.353798
  17 H :    0.386186
  18 O :   -0.764542
  19 H :    0.386876
  20 H :    0.353956
  21 O :   -0.765160
  22 H :    0.387310
  23 H :    0.353712
  24 O :   -0.690516
  25 H :    0.393473
  26 H :    0.367556
  27 O :   -0.771714
  28 H :    0.369696
  29 H :    0.355545
  30 O :   -0.761779
  31 H :    0.352550
  32 H :    0.387301
  33 O :   -0.692899
  34 H :    0.393432
  35 H :    0.366744
Sum of atomic charges:   -0.0000000

--------------------------------
MULLIKEN REDUCED ORBITAL CHARGES
--------------------------------
  0 O s       :     3.798707  s :     3.798707
      pz      :     1.866835  p :     4.953660
      px      :     1.490300
      py      :     1.596525
      dz2     :     0.002763  d :     0.017812
      dxz     :     0.001860
      dyz     :     0.002185
      dx2y2   :     0.002648
      dxy     :     0.008357
      f0      :     0.000191  f :     0.001062
      f+1     :     0.000156
      f-1     :     0.000166
      f+2     :     0.000091
      f-2     :     0.000127
      f+3     :     0.000236
      f-3     :     0.000095
  1 H s       :     0.599429  s :     0.599429
      pz      :     0.014353  p :     0.044323
      px      :     0.014162
      py      :     0.015808
  2 H s       :     0.567785  s :     0.567785
      pz      :     0.015412  p :     0.061892
      px      :     0.035518
      py      :     0.010962
  3 O s       :     3.778359  s :     3.778359
      pz      :     1.876372  p :     4.891238
      px      :     1.394124
      py      :     1.620742
      dz2     :     0.002704  d :     0.020963
      dxz     :     0.003559
      dyz     :     0.005697
      dx2y2   :     0.002802
      dxy     :     0.006200
      f0      :     0.000212  f :     0.000981
      f+1     :     0.000181
      f-1     :     0.000064
      f+2     :     0.000041
      f-2     :     0.000188
      f+3     :     0.000129
      f-3     :     0.000166
  4 H s       :     0.554738  s :     0.554738
      pz      :     0.017050  p :     0.051722
      px      :     0.015535
      py      :     0.019138
  5 H s       :     0.579497  s :     0.579497
      pz      :     0.013811  p :     0.053885
      px      :     0.027628
      py      :     0.012447
  6 O s       :     3.798898  s :     3.798898
      pz      :     1.439884  p :     4.954711
      px      :     1.624006
      py      :     1.890820
      dz2     :     0.009202  d :     0.017779
      dxz     :     0.001589
      dyz     :     0.001036
      dx2y2   :     0.003828
      dxy     :     0.002124
      f0      :     0.000587  f :     0.001064
      f+1     :    -0.000004
      f-1     :     0.000091
      f+2     :     0.000071
      f-2     :     0.000052
      f+3     :     0.000111
      f-3     :     0.000157
  7 H s       :     0.566153  s :     0.566153
      pz      :     0.012411  p :     0.062103
      px      :     0.036473
      py      :     0.013218
  8 H s       :     0.599507  s :     0.599507
      pz      :     0.017989  p :     0.044281
      px      :     0.011714
      py      :     0.014578
  9 O s       :     3.799238  s :     3.799238
      pz      :     1.667553  p :     4.953822
      px      :     1.562034
      py      :     1.724234
      dz2     :     0.000940  d :     0.017853
      dxz     :     0.003824
      dyz     :     0.005090
      dx2y2   :     0.006726
      dxy     :     0.001273
      f0      :     0.000184  f :     0.001056
      f+1     :     0.000038
      f-1     :     0.000148
      f+2     :     0.000477
      f-2     :     0.000043
      f+3     :     0.000156
      f-3     :     0.000009
 10 H s       :     0.567870  s :     0.567870
      pz      :     0.025811  p :     0.062517
      px      :     0.008134
      py      :     0.028572
 11 H s       :     0.599825  s :     0.599825
      pz      :     0.014399  p :     0.044342
      px      :     0.017197
      py      :     0.012746
 12 O s       :     3.779296  s :     3.779296
      pz      :     1.620559  p :     4.891626
      px      :     1.864749
      py      :     1.406317
      dz2     :     0.002571  d :     0.020962
      dxz     :     0.002832
      dyz     :     0.011620
      dx2y2   :     0.002549
      dxy     :     0.001390
      f0      :     0.000042  f :     0.000981
      f+1     :     0.000013
      f-1     :     0.000068
      f+2     :     0.000406
      f-2     :     0.000112
      f+3     :     0.000165
      f-3     :     0.000175
 13 H s       :     0.555095  s :     0.555095
      pz      :     0.016860  p :     0.051729
      px      :     0.014929
      py      :     0.019939
 14 H s       :     0.579200  s :     0.579200
      pz      :     0.019539  p :     0.053703
      px      :     0.012447
      py      :     0.021718
 15 O s       :     3.787575  s :     3.787575
      pz      :     1.714600  p :     4.954909
      px      :     1.615423
      py      :     1.624887
      dz2     :     0.001404  d :     0.018417
      dxz     :     0.003679
      dyz     :     0.004485
      dx2y2   :     0.005654
      dxy     :     0.003195
      f0      :     0.000211  f :     0.000961
      f+1     :     0.000010
      f-1     :     0.000115
      f+2     :     0.000326
      f-2     :     0.000176
      f+3     :     0.000068
      f-3     :     0.000054
 16 H s       :     0.589082  s :     0.589082
      pz      :     0.014269  p :     0.057120
      px      :     0.030307
      py      :     0.012544
 17 H s       :     0.559631  s :     0.559631
      pz      :     0.020512  p :     0.054183
      px      :     0.012367
      py      :     0.021304
 18 O s       :     3.788515  s :     3.788515
      pz      :     1.729237  p :     4.956663
      px      :     1.747294
      py      :     1.480132
      dz2     :     0.001921  d :     0.018401
      dxz     :     0.003351
      dyz     :     0.008672
      dx2y2   :     0.001226
      dxy     :     0.003231
      f0      :     0.000104  f :     0.000963
      f+1     :     0.000031
      f-1     :     0.000093
      f+2     :     0.000201
      f-2     :     0.000196
      f+3     :     0.000219
      f-3     :     0.000118
 19 H s       :     0.559020  s :     0.559020
      pz      :     0.016137  p :     0.054103
      px      :     0.016841
      py      :     0.021124
 20 H s       :     0.588675  s :     0.588675
      pz      :     0.022510  p :     0.057369
      px      :     0.010690
      py      :     0.024169
 21 O s       :     3.788441  s :     3.788441
      pz      :     1.461714  p :     4.957387
      px      :     1.869939
      py      :     1.625735
      dz2     :     0.000648  d :     0.018371
      dxz     :     0.001883
      dyz     :     0.009985
      dx2y2   :     0.003885
      dxy     :     0.001970
      f0      :     0.000053  f :     0.000961
      f+1     :     0.000188
      f-1     :     0.000270
      f+2     :     0.000201
      f-2     :     0.000130
      f+3     :     0.000041
      f-3     :     0.000079
 22 H s       :     0.558405  s :     0.558405
      pz      :     0.021874  p :     0.054286
      px      :     0.016365
      py      :     0.016047
 23 H s       :     0.588898  s :     0.588898
      pz      :     0.022781  p :     0.057390
      px      :     0.011521
      py      :     0.023088
 24 O s       :     3.777825  s :     3.777825
      pz      :     1.544819  p :     4.890796
      px      :     1.648343
      py      :     1.697633
      dz2     :     0.002708  d :     0.020911
      dxz     :     0.004823
      dyz     :     0.004343
      dx2y2   :     0.004148
      dxy     :     0.004889
      f0      :     0.000074  f :     0.000984
      f+1     :     0.000078
      f-1     :     0.000328
      f+2     :     0.000059
      f-2     :     0.000209
      f+3     :     0.000012
      f-3     :     0.000224
 25 H s       :     0.554838  s :     0.554838
      pz      :     0.021189  p :     0.051689
      px      :     0.012858
      py      :     0.017643
 26 H s       :     0.578857  s :     0.578857
      pz      :     0.013137  p :     0.053587
      px      :     0.025877
      py      :     0.014573
 27 O s       :     3.799420  s :     3.799420
      pz      :     1.646862  p :     4.953400
      px      :     1.895003
      py      :     1.411535
      dz2     :     0.002539  d :     0.017837
      dxz     :     0.001570
      dyz     :     0.009826
      dx2y2   :     0.002601
      dxy     :     0.001301
      f0      :     0.000058  f :     0.001056
      f+1     :     0.000011
      f-1     :     0.000091
      f+2     :     0.000360
      f-2     :     0.000084
      f+3     :     0.000212
      f-3     :     0.000240
 28 H s       :     0.568115  s :     0.568115
      pz      :     0.025254  p :     0.062188
      px      :     0.010509
      py      :     0.026425
 29 H s       :     0.600068  s :     0.600068
      pz      :     0.012954  p :     0.044387
      px      :     0.014966
      py      :     0.016467
 30 O s       :     3.787553  s :     3.787553
      pz      :     1.674214  p :     4.954807
      px      :     1.423327
      py      :     1.857266
      dz2     :     0.001391  d :     0.018459
      dxz     :     0.006721
      dyz     :     0.004247
      dx2y2   :     0.002195
      dxy     :     0.003905
      f0      :     0.000104  f :     0.000959
      f+1     :     0.000045
      f-1     :     0.000078
      f+2     :     0.000174
      f-2     :     0.000259
      f+3     :     0.000137
      f-3     :     0.000162
 31 H s       :     0.590444  s :     0.590444
      pz      :     0.012954  p :     0.057006
      px      :     0.030797
      py      :     0.013255
 32 H s       :     0.558397  s :     0.558397
      pz      :     0.018996  p :     0.054303
      px      :     0.017248
      py      :     0.018059
 33 O s       :     3.779465  s :     3.779465
      pz      :     1.450866  p :     4.891480
      px      :     1.675577
      py      :     1.765036
      dz2     :     0.000387  d :     0.020973
      dxz     :     0.003353
      dyz     :     0.009331
      dx2y2   :     0.003376
      dxy     :     0.004526
      f0      :     0.000039  f :     0.000982
      f+1     :     0.000135
      f-1     :     0.000306
      f+2     :     0.000200
      f-2     :     0.000182
      f+3     :     0.000034
      f-3     :     0.000087
 34 H s       :     0.554893  s :     0.554893
      pz      :     0.018587  p :     0.051675
      px      :     0.017276
      py      :     0.015812
 35 H s       :     0.579667  s :     0.579667
      pz      :     0.021702  p :     0.053590
      px      :     0.011230
      py      :     0.020658


                     *******************************
                     * LOEWDIN POPULATION ANALYSIS *
                     *******************************

----------------------
LOEWDIN ATOMIC CHARGES
----------------------
   0 O :   -0.318248
   1 H :    0.164115
   2 H :    0.145154
   3 O :   -0.270840
   4 H :    0.156331
   5 H :    0.147491
   6 O :   -0.318911
   7 H :    0.144889
   8 H :    0.163930
   9 O :   -0.319281
  10 H :    0.144168
  11 H :    0.163665
  12 O :   -0.271723
  13 H :    0.156237
  14 H :    0.148075
  15 O :   -0.306772
  16 H :    0.137159
  17 H :    0.148961
  18 O :   -0.310736
  19 H :    0.148801
  20 H :    0.136862
  21 O :   -0.310420
  22 H :    0.148572
  23 H :    0.136794
  24 O :   -0.268934
  25 H :    0.156817
  26 H :    0.148331
  27 O :   -0.320200
  28 H :    0.144859
  29 H :    0.163675
  30 O :   -0.306588
  31 H :    0.137262
  32 H :    0.148895
  33 O :   -0.272906
  34 H :    0.156313
  35 H :    0.148201

-------------------------------
LOEWDIN REDUCED ORBITAL CHARGES
-------------------------------
  0 O s       :     3.470465  s :     3.470465
      pz      :     1.789523  p :     4.817183
      px      :     1.451707
      py      :     1.575953
      dz2     :     0.003789  d :     0.028600
      dxz     :     0.003458
      dyz     :     0.003922
      dx2y2   :     0.004266
      dxy     :     0.013166
      f0      :     0.000218  f :     0.002000
      f+1     :     0.000179
      f-1     :     0.000302
      f+2     :     0.000166
      f-2     :     0.000244
      f+3     :     0.000576
      f-3     :     0.000314
  1 H s       :     0.676434  s :     0.676434
      pz      :     0.042771  p :     0.159451
      px      :     0.049156
      py      :     0.067524
  2 H s       :     0.635945  s :     0.635945
      pz      :     0.051109  p :     0.218901
      px      :     0.129507
      py      :     0.038285
  3 O s       :     3.457948  s :     3.457948
      pz      :     1.801825  p :     4.780955
      px      :     1.381838
      py      :     1.597292
      dz2     :     0.002629  d :     0.029955
      dxz     :     0.004413
      dyz     :     0.007281
      dx2y2   :     0.005549
      dxy     :     0.010083
      f0      :     0.000250  f :     0.001983
      f+1     :     0.000227
      f-1     :     0.000102
      f+2     :     0.000188
      f-2     :     0.000456
      f+3     :     0.000319
      f-3     :     0.000441
  4 H s       :     0.666182  s :     0.666182
      pz      :     0.055504  p :     0.177487
      px      :     0.050795
      py      :     0.071189
  5 H s       :     0.670091  s :     0.670091
      pz      :     0.043565  p :     0.182417
      px      :     0.098089
      py      :     0.040764
  6 O s       :     3.470471  s :     3.470471
      pz      :     1.417153  p :     4.817869
      px      :     1.586253
      py      :     1.814463
      dz2     :     0.014712  d :     0.028574
      dxz     :     0.002898
      dyz     :     0.002450
      dx2y2   :     0.005328
      dxy     :     0.003187
      f0      :     0.001195  f :     0.001997
      f+1     :     0.000082
      f-1     :     0.000069
      f+2     :     0.000147
      f-2     :     0.000096
      f+3     :     0.000157
      f-3     :     0.000249
  7 H s       :     0.635469  s :     0.635469
      pz      :     0.038843  p :     0.219641
      px      :     0.138015
      py      :     0.042783
  8 H s       :     0.676607  s :     0.676607
      pz      :     0.082303  p :     0.159464
      px      :     0.034060
      py      :     0.043100
  9 O s       :     3.471545  s :     3.471545
      pz      :     1.611849  p :     4.817006
      px      :     1.536464
      py      :     1.668692
      dz2     :     0.001142  d :     0.028728
      dxz     :     0.007167
      dyz     :     0.008692
      dx2y2   :     0.010485
      dxy     :     0.001241
      f0      :     0.000337  f :     0.002002
      f+1     :     0.000004
      f-1     :     0.000225
      f+2     :     0.000928
      f-2     :     0.000038
      f+3     :     0.000391
      f-3     :     0.000079
 10 H s       :     0.634845  s :     0.634845
      pz      :     0.091797  p :     0.220987
      px      :     0.024171
      py      :     0.105019
 11 H s       :     0.676744  s :     0.676744
      pz      :     0.046556  p :     0.159590
      px      :     0.075740
      py      :     0.037294
 12 O s       :     3.458446  s :     3.458446
      pz      :     1.609170  p :     4.781382
      px      :     1.784641
      py      :     1.387572
      dz2     :     0.001458  d :     0.029918
      dxz     :     0.003769
      dyz     :     0.017790
      dx2y2   :     0.004690
      dxy     :     0.002210
      f0      :     0.000193  f :     0.001976
      f+1     :     0.000021
      f-1     :     0.000392
      f+2     :     0.000748
      f-2     :     0.000234
      f+3     :     0.000180
      f-3     :     0.000209
 13 H s       :     0.666360  s :     0.666360
      pz      :     0.059064  p :     0.177403
      px      :     0.046676
      py      :     0.071663
 14 H s       :     0.670069  s :     0.670069
      pz      :     0.069967  p :     0.181856
      px      :     0.039617
      py      :     0.072272
 15 O s       :     3.465003  s :     3.465003
      pz      :     1.647207  p :     4.811089
      px      :     1.592996
      py      :     1.570886
      dz2     :     0.001374  d :     0.028860
      dxz     :     0.005758
      dyz     :     0.009100
      dx2y2   :     0.008343
      dxy     :     0.004286
      f0      :     0.000352  f :     0.001820
      f+1     :     0.000021
      f-1     :     0.000119
      f+2     :     0.000610
      f-2     :     0.000240
      f+3     :     0.000263
      f-3     :     0.000215
 16 H s       :     0.660230  s :     0.660230
      pz      :     0.048289  p :     0.202611
      px      :     0.115714
      py      :     0.038607
 17 H s       :     0.665477  s :     0.665477
      pz      :     0.066296  p :     0.185562
      px      :     0.038352
      py      :     0.080915
 18 O s       :     3.466459  s :     3.466459
      pz      :     1.677729  p :     4.813751
      px      :     1.695136
      py      :     1.440886
      dz2     :     0.002155  d :     0.028728
      dxz     :     0.003590
      dyz     :     0.013406
      dx2y2   :     0.003190
      dxy     :     0.006387
      f0      :     0.000229  f :     0.001798
      f+1     :     0.000034
      f-1     :     0.000265
      f+2     :     0.000402
      f-2     :     0.000398
      f+3     :     0.000290
      f-3     :     0.000179
 19 H s       :     0.665718  s :     0.665718
      pz      :     0.052503  p :     0.185481
      px      :     0.061317
      py      :     0.071660
 20 H s       :     0.659649  s :     0.659649
      pz      :     0.083205  p :     0.203489
      px      :     0.033198
      py      :     0.087086
 21 O s       :     3.466188  s :     3.466188
      pz      :     1.419057  p :     4.813731
      px      :     1.789062
      py      :     1.605613
      dz2     :     0.002322  d :     0.028700
      dxz     :     0.003482
      dyz     :     0.015774
      dx2y2   :     0.004143
      dxy     :     0.002980
      f0      :     0.000090  f :     0.001801
      f+1     :     0.000213
      f-1     :     0.000601
      f+2     :     0.000474
      f-2     :     0.000238
      f+3     :     0.000045
      f-3     :     0.000138
 22 H s       :     0.665525  s :     0.665525
      pz      :     0.080910  p :     0.185903
      px      :     0.051126
      py      :     0.053867
 23 H s       :     0.659614  s :     0.659614
      pz      :     0.078576  p :     0.203591
      px      :     0.036212
      py      :     0.088803
 24 O s       :     3.457259  s :     3.457259
      pz      :     1.510645  p :     4.779699
      px      :     1.629000
      py      :     1.640054
      dz2     :     0.004666  d :     0.029987
      dxz     :     0.006038
      dyz     :     0.008234
      dx2y2   :     0.004423
      dxy     :     0.006625
      f0      :     0.000152  f :     0.001989
      f+1     :     0.000280
      f-1     :     0.000553
      f+2     :     0.000175
      f-2     :     0.000339
      f+3     :     0.000021
      f-3     :     0.000468
 25 H s       :     0.665996  s :     0.665996
      pz      :     0.080570  p :     0.177187
      px      :     0.041249
      py      :     0.055368
 26 H s       :     0.670034  s :     0.670034
      pz      :     0.038300  p :     0.181635
      px      :     0.093196
      py      :     0.050139
 27 O s       :     3.471694  s :     3.471694
      pz      :     1.619520  p :     4.817880
      px      :     1.817680
      py      :     1.380679
      dz2     :     0.002575  d :     0.028630
      dxz     :     0.002345
      dyz     :     0.015697
      dx2y2   :     0.005652
      dxy     :     0.002361
      f0      :     0.000210  f :     0.001997
      f+1     :     0.000015
      f-1     :     0.000376
      f+2     :     0.000655
      f-2     :     0.000194
      f+3     :     0.000270
      f-3     :     0.000277
 28 H s       :     0.635298  s :     0.635298
      pz      :     0.095565  p :     0.219843
      px      :     0.031833
      py      :     0.092446
 29 H s       :     0.676777  s :     0.676777
      pz      :     0.045166  p :     0.159547
      px      :     0.046388
      py      :     0.067993
 30 O s       :     3.465126  s :     3.465126
      pz      :     1.639607  p :     4.810773
      px      :     1.396218
      py      :     1.774947
      dz2     :     0.001506  d :     0.028871
      dxz     :     0.010890
      dyz     :     0.006631
      dx2y2   :     0.004282
      dxy     :     0.005563
      f0      :     0.000205  f :     0.001819
      f+1     :     0.000150
      f-1     :     0.000130
      f+2     :     0.000389
      f-2     :     0.000544
      f+3     :     0.000150
      f-3     :     0.000251
 31 H s       :     0.660563  s :     0.660563
      pz      :     0.046368  p :     0.202175
      px      :     0.112129
      py      :     0.043678
 32 H s       :     0.665010  s :     0.665010
      pz      :     0.068622  p :     0.186094
      px      :     0.059240
      py      :     0.058232
 33 O s       :     3.458939  s :     3.458939
      pz      :     1.428017  p :     4.782125
      px      :     1.630784
      py      :     1.723324
      dz2     :     0.001433  d :     0.029872
      dxz     :     0.006677
      dyz     :     0.013046
      dx2y2   :     0.004667
      dxy     :     0.004050
      f0      :     0.000114  f :     0.001969
      f+1     :     0.000171
      f-1     :     0.000580
      f+2     :     0.000420
      f-2     :     0.000424
      f+3     :     0.000052
      f-3     :     0.000209
 34 H s       :     0.666319  s :     0.666319
      pz      :     0.060315  p :     0.177368
      px      :     0.064582
      py      :     0.052471
 35 H s       :     0.670314  s :     0.670314
      pz      :     0.077282  p :     0.181485
      px      :     0.033267
      py      :     0.070936


                      *****************************
                      * MAYER POPULATION ANALYSIS *
                      *****************************

  NA   - Mulliken gross atomic population
  ZA   - Total nuclear charge
  QA   - Mulliken gross atomic charge
  VA   - Mayer's total valence
  BVA  - Mayer's bonded valence
  FA   - Mayer's free valence

  ATOM       NA         ZA         QA         VA         BVA        FA
  0 O      8.7712     8.0000    -0.7712     1.7441     1.7441    -0.0000
  1 H      0.6438     1.0000     0.3562     0.8947     0.8947    -0.0000
  2 H      0.6297     1.0000     0.3703     0.9323     0.9323    -0.0000
  3 O      8.6915     8.0000    -0.6915     1.8468     1.8468     0.0000
  4 H      0.6065     1.0000     0.3935     0.8855     0.8855     0.0000
  5 H      0.6334     1.0000     0.3666     0.9207     0.9207     0.0000
  6 O      8.7725     8.0000    -0.7725     1.7439     1.7439    -0.0000
  7 H      0.6283     1.0000     0.3717     0.9308     0.9308    -0.0000
  8 H      0.6438     1.0000     0.3562     0.8947     0.8947    -0.0000
  9 O      8.7720     8.0000    -0.7720     1.7425     1.7425     0.0000
 10 H      0.6304     1.0000     0.3696     0.9332     0.9332     0.0000
 11 H      0.6442     1.0000     0.3558     0.8949     0.8949     0.0000
 12 O      8.6929     8.0000    -0.6929     1.8452     1.8452    -0.0000
 13 H      0.6068     1.0000     0.3932     0.8857     0.8857    -0.0000
 14 H      0.6329     1.0000     0.3671     0.9201     0.9201    -0.0000
 15 O      8.7619     8.0000    -0.7619     1.7542     1.7542     0.0000
 16 H      0.6462     1.0000     0.3538     0.9445     0.9445    -0.0000
 17 H      0.6138     1.0000     0.3862     0.9118     0.9118     0.0000
 18 O      8.7645     8.0000    -0.7645     1.7514     1.7514    -0.0000
 19 H      0.6131     1.0000     0.3869     0.9109     0.9109    -0.0000
 20 H      0.6460     1.0000     0.3540     0.9447     0.9447     0.0000
 21 O      8.7652     8.0000    -0.7652     1.7505     1.7505    -0.0000
 22 H      0.6127     1.0000     0.3873     0.9109     0.9109    -0.0000
 23 H      0.6463     1.0000     0.3537     0.9451     0.9451     0.0000
 24 O      8.6905     8.0000    -0.6905     1.8481     1.8481     0.0000
 25 H      0.6065     1.0000     0.3935     0.8853     0.8853     0.0000
 26 H      0.6324     1.0000     0.3676     0.9195     0.9195     0.0000
 27 O      8.7717     8.0000    -0.7717     1.7427     1.7427     0.0000
 28 H      0.6303     1.0000     0.3697     0.9329     0.9329     0.0000
 29 H      0.6445     1.0000     0.3555     0.8951     0.8951     0.0000
 30 O      8.7618     8.0000    -0.7618     1.7539     1.7539     0.0000
 31 H      0.6474     1.0000     0.3526     0.9462     0.9462    -0.0000
 32 H      0.6127     1.0000     0.3873     0.9109     0.9109     0.0000
 33 O      8.6929     8.0000    -0.6929     1.8452     1.8452    -0.0000
 34 H      0.6066     1.0000     0.3934     0.8854     0.8854    -0.0000
 35 H      0.6333     1.0000     0.3667     0.9202     0.9202    -0.0000

  Mayer bond orders larger than 0.1
B(  0-O ,  1-H ) :   0.8770 B(  0-O ,  2-H ) :   0.6990 B(  0-O , 19-H ) :   0.1019 
B(  2-H , 33-O ) :   0.2169 B(  3-O ,  4-H ) :   0.8144 B(  3-O ,  5-H ) :   0.8133 
B(  3-O , 28-H ) :   0.2194 B(  6-O ,  7-H ) :   0.6983 B(  6-O ,  8-H ) :   0.8769 
B(  6-O , 22-H ) :   0.1025 B(  7-H , 12-O ) :   0.2163 B(  9-O , 10-H ) :   0.6959 
B(  9-O , 11-H ) :   0.8773 B(  9-O , 32-H ) :   0.1034 B( 10-H , 24-O ) :   0.2207 
B( 12-O , 13-H ) :   0.8148 B( 12-O , 14-H ) :   0.8133 B( 15-O , 16-H ) :   0.7547 
B( 15-O , 17-H ) :   0.7940 B( 15-O , 20-H ) :   0.1673 B( 16-H , 21-O ) :   0.1661 
B( 17-H , 27-O ) :   0.1028 B( 18-O , 19-H ) :   0.7939 B( 18-O , 20-H ) :   0.7527 
B( 18-O , 31-H ) :   0.1664 B( 21-O , 22-H ) :   0.7933 B( 21-O , 23-H ) :   0.7526 
B( 23-H , 30-O ) :   0.1679 B( 24-O , 25-H ) :   0.8145 B( 24-O , 26-H ) :   0.8134 
B( 27-O , 28-H ) :   0.6972 B( 27-O , 29-H ) :   0.8775 B( 30-O , 31-H ) :   0.7555 
B( 30-O , 32-H ) :   0.7926 B( 33-O , 34-H ) :   0.8146 B( 33-O , 35-H ) :   0.8136 


-------
TIMINGS
-------

Total SCF time: 0 days 0 hours 1 min 14 sec 

Total time                  ....      74.496 sec
Sum of individual times     ....      69.404 sec  ( 93.2%)

Fock matrix formation       ....      56.260 sec  ( 75.5%)
  Coulomb formation         ....      47.017 sec  ( 83.6% of F)
  Split-RI-J                ....       6.543 sec  ( 11.6% of F)
  Chain of spheres X        ....      46.720 sec  ( 83.0% of F)
  COS-X 1 center corr.      ....       0.000 sec  (  0.0% of F)
  XC integration            ....       8.853 sec  ( 15.7% of F)
    Basis function eval.    ....       1.209 sec  ( 13.7% of XC)
    Density eval.           ....       1.162 sec  ( 13.1% of XC)
    XC-Functional eval.     ....       0.610 sec  (  6.9% of XC)
    XC-Potential eval.      ....       2.086 sec  ( 23.6% of XC)
Diagonalization             ....       1.133 sec  (  1.5%)
Density matrix formation    ....       0.463 sec  (  0.6%)
Population analysis         ....       0.439 sec  (  0.6%)
Initial guess               ....       2.799 sec  (  3.8%)
Orbital Transformation      ....       0.000 sec  (  0.0%)
Orbital Orthonormalization  ....       0.000 sec  (  0.0%)
DIIS solution               ....       0.403 sec  (  0.5%)
SOSCF solution              ....       1.852 sec  (  2.5%)
Grid generation             ....       6.056 sec  (  8.1%)
           ************************************************************
           *              Shut down parallel processing               *
           ************************************************************

Entering the calculation of the dispersion correction...

Checking the input atom types...

Done


-------------------------------------------------------------------------------
                          DFT DISPERSION CORRECTION                            
                                                                               
                                DFTD3 V2.1  Rev 6                               
                              USING zero damping                               
-------------------------------------------------------------------------------
The omegaB97X-D3 functional is recognized. Fit by Chai et al.
Active option DFTDOPT                   ...         3   

molecular C6(AA) [au] = 6404.973774 


            DFT-D V3
 parameters
 s6 scaling factor         :     1.0000 
 rs6 scaling factor        :     1.2810 
 s8 scaling factor         :     1.0000 
 rs8 scaling factor        :     1.0940 
 Damping factor alpha6     :    14.0000 
 Damping factor alpha8     :    16.0000 
 ad hoc parameters k1-k3   :    16.0000     1.3333    -4.0000 

 Edisp/kcal,au: -14.358634235755  -0.022881937720 
 E6   /kcal   :  -7.624484249 
 E8   /kcal   :  -6.734149986 
 % E8         :  46.899655468 

-------------------------   ----------------
Dispersion correction           -0.022881938
-------------------------   ----------------


-------------------------   --------------------
FINAL SINGLE POINT ENERGY      -917.468254099568
-------------------------   --------------------


                            ***************************************
                            *     ORCA property calculations      *
                            ***************************************

                                    ---------------------
                                    Active property flags
                                    ---------------------
   (+) Dipole Moment


------------------------------------------------------------------------------
                       ORCA ELECTRIC PROPERTIES CALCULATION
------------------------------------------------------------------------------

Dipole Moment Calculation                       ... on
Quadrupole Moment Calculation                   ... off
Polarizability Calculation                      ... off
GBWName                                         ... 2_wB97X_GasPhase_onBP86_12_waters.gbw
Electron density file                           ... 2_wB97X_GasPhase_onBP86_12_waters.scfp.tmp

-------------
DIPOLE MOMENT
-------------
                                X             Y             Z
Electronic contribution:     -0.00332      -0.00039      -0.00243
Nuclear contribution   :      0.00360      -0.00796       0.00231
                        -----------------------------------------
Total Dipole Moment    :      0.00028      -0.00834      -0.00013
                        -----------------------------------------
Magnitude (a.u.)       :      0.00835
Magnitude (Debye)      :      0.02122

smp-n107.crc.pitt.edu.370641hfi_wait_for_device: The /dev/hfi1_0 device failed to appear after 15.0 seconds: Connection timed out
smp-n107.crc.pitt.edu.370646hfi_wait_for_device: The /dev/hfi1_0 device failed to appear after 15.0 seconds: Connection timed out
smp-n107.crc.pitt.edu.370637hfi_wait_for_device: The /dev/hfi1_0 device failed to appear after 15.0 seconds: Connection timed out
smp-n107.crc.pitt.edu.370640hfi_wait_for_device: The /dev/hfi1_0 device failed to appear after 15.0 seconds: Connection timed out
smp-n107.crc.pitt.edu.370648hfi_wait_for_device: The /dev/hfi1_0 device failed to appear after 15.0 seconds: Connection timed out
smp-n107.crc.pitt.edu.370651hfi_wait_for_device: The /dev/hfi1_0 device failed to appear after 15.0 seconds: Connection timed out
smp-n107.crc.pitt.edu.370653hfi_wait_for_device: The /dev/hfi1_0 device failed to appear after 15.0 seconds: Connection timed out
smp-n107.crc.pitt.edu.370636hfi_wait_for_device: The /dev/hfi1_0 device failed to appear after 15.0 seconds: Connection timed out
smp-n107.crc.pitt.edu.370639hfi_wait_for_device: The /dev/hfi1_0 device failed to appear after 15.0 seconds: Connection timed out
smp-n107.crc.pitt.edu.370642hfi_wait_for_device: The /dev/hfi1_0 device failed to appear after 15.0 seconds: Connection timed out
smp-n107.crc.pitt.edu.370652hfi_wait_for_device: The /dev/hfi1_0 device failed to appear after 15.0 seconds: Connection timed out
smp-n107.crc.pitt.edu.370638hfi_wait_for_device: The /dev/hfi1_0 device failed to appear after 15.0 seconds: Connection timed out

Timings for individual modules:

Sum of individual times         ...      109.966 sec (=   1.833 min)
GTO integral calculation        ...       16.289 sec (=   0.271 min)  14.8 %
SCF iterations                  ...       93.677 sec (=   1.561 min)  85.2 %
                             ****ORCA TERMINATED NORMALLY****
TOTAL RUN TIME: 0 days 0 hours 2 minutes 5 seconds 733 msec
cp: cannot stat /scratch/slurm-1321624/*.{prop}: No such file or directory
