
                                 *****************
                                 * O   R   C   A *
                                 *****************

           --- An Ab Initio, DFT and Semiempirical electronic structure package ---

                  #######################################################
                  #                        -***-                        #
                  #  Department of molecular theory and spectroscopy    #
                  #              Directorship: Frank Neese              #
                  # Max Planck Institute for Chemical Energy Conversion #
                  #                  D-45470 Muelheim/Ruhr              #
                  #                       Germany                       #
                  #                                                     #
                  #                  All rights reserved                #
                  #                        -***-                        #
                  #######################################################


                         Program Version 3.0.3 - RELEASE   -


 With contributions from (in alphabetic order):
   Ute Becker             : Parallelization
   Dmytro Bykov           : SCF Hessian
   Dmitry Ganyushin       : Spin-Orbit,Spin-Spin,Magnetic field MRCI
   Andreas Hansen         : Spin unrestricted coupled pair/coupled cluster methods
   Dimitrios Liakos       : Extrapolation schemes; parallel MDCI
   Robert Izsak           : Overlap fitted RIJCOSX, COSX-SCS-MP3
   Christian Kollmar      : KDIIS, OOCD, Brueckner-CCSD(T), CCSD density
   Simone Kossmann        : Meta GGA functionals, TD-DFT gradient, OOMP2, MP2 Hessian
   Taras Petrenko         : DFT Hessian,TD-DFT gradient, ASA and ECA modules, normal mode analysis, Resonance Raman, ABS, FL, XAS/XES, NRVS
   Christoph Reimann      : Effective Core Potentials
   Michael Roemelt        : Restricted open shell CIS
   Christoph Riplinger    : Improved optimizer, TS searches, QM/MM, DLPNO-CCSD
   Barbara Sandhoefer     : DKH picture change effects
   Igor Schapiro          : Molecular dynamics
   Kantharuban Sivalingam : CASSCF convergence, NEVPT2
   Boris Wezisla          : Elementary symmetry handling
   Frank Wennmohs         : Technical directorship


 We gratefully acknowledge several colleagues who have allowed us to
 interface, adapt or use parts of their codes:
   Stefan Grimme, W. Hujo, H. Kruse, T. Risthaus : VdW corrections, initial TS optimization,
                                                   DFT functionals, gCP
   Ed Valeev                                     : LibInt (2-el integral package), F12 methods
   Garnet Chan, S. Sharma, R. Olivares           : DMRG
   Ulf Ekstrom                                   : XCFun DFT Library
   Mihaly Kallay                                 : mrcc  (arbitrary order and MRCC methods)
   Andreas Klamt, Michael Diedenhofen            : otool_cosmo (COSMO solvation model)
   Frank Weinhold                                : gennbo (NPA and NBO analysis)
   Christopher J. Cramer and Donald G. Truhlar   : smd solvation model


 Your calculation uses the libint2 library for the computation of 2-el integrals
 For citations please refer to: http://libint.valeyev.net

 This ORCA versions uses:
   CBLAS   interface :  Fast vector & matrix operations
   LAPACKE interface :  Fast linear algebra routines
   SCALAPACK package :  Parallel linear algebra routines


Your calculation utilizes the basis: ma-def2-TZVP
Cite in your paper:
        def2-TZVP: F. Weigend, R. Ahlrichs, Phys. Chem. Chem. Phys. 2005, 7, 3297.
        Minimal augmentation of diffuse functions: J. Zheng, X. Xu, D. G. Truhlar, Theor. Chem. Acc. 2011, 128, 295.

Your calculation utilizes the atom-pairwise dispersion correction
with the zero-damping scheme (D30)
Cite in your paper:
S.Grimme, J.Antony, S.Ehrlich and H.Krieg, J.Chem.Phys., 132, (2010), 154104 
   

XCFun DFT library Copyright 2009-2010 Ulf Ekstrom and contributors.
See http://admol.org/xcfun for more information. This is free soft-
ware; see the source code for copying conditions. There is ABSOLUTELY
NO WARRANTY; not even for MERCHANTABILITY or FITNESS FOR A PARTICULAR
PURPOSE. For details see the documentation. Scientific users of this 
library should cite U. Ekstrom, L. Visscher, R. Bast, A. J. Thorvald-
sen and K. Ruud; J.Chem.Theor.Comp. 2010, DOI: 10.1021/ct100117s
XCFun Version 0.99 
================================================================================
                                        WARNINGS
                       Please study these warnings very carefully!
================================================================================
Now building the actual basis set


INFO   : the flag for use of LIBINT has been found!

================================================================================
                                       INPUT FILE
================================================================================
NAME = 2_wb98x-ma-def2-TZVP-SMD_onB3LYP_SMD_12_waters.inp
|  1> ! wB97X-D3 MA-Def2-TZVP def2-TZVP/J RIJCOSX TightSCF Grid4 
|  2> 
|  3> %pal nprocs 1 end
|  4> 
|  5> %scf
|  6>         maxiter 400
|  7> end
|  8> 
|  9> %cosmo
| 10>         SMD true
| 11>         solvent "WATER"
| 12> end
| 13> 
| 14> * xyz  0  1
| 15> O  2.342734	2.348307	-0.317083
| 16> H  2.958459	3.091679	-0.231729
| 17> H  1.486626	2.731282	-0.670327
| 18> O  -0.058335	-1.094787	3.212954
| 19> H  0.493328	-0.421761	2.762264
| 20> H  -0.980336	-0.805315	3.008123
| 21> O  0.221313	1.096878	-3.204349
| 22> H  1.131168	0.787350	-2.924211
| 23> H  0.241175	1.169618	-4.170497
| 24> O  -2.470610	-0.412268	2.171581
| 25> H  -2.589343	-1.120549	1.475093
| 26> H  -3.317965	-0.357617	2.639553
| 27> O  2.515752	0.319251	-2.120870
| 28> H  2.281899	-0.446807	-1.557245
| 29> H  2.608974	1.065821	-1.482084
| 30> O  1.249585	-1.457084	-0.413030
| 31> H  0.398365	-1.183297	-0.852645
| 32> H  0.956704	-2.186289	0.185206
| 33> O  1.145980	0.600180	1.335405
| 34> H  1.716070	1.304192	0.941212
| 35> H  1.269471	-0.172566	0.720856
| 36> O  -1.032881	-0.519935	-1.428530
| 37> H  -0.740349	-0.030078	-2.234194
| 38> H  -1.197284	0.196085	-0.758142
| 39> O  -2.477781	-2.260892	0.228847
| 40> H  -2.130598	-1.757580	-0.536764
| 41> H  -1.667461	-2.691113	0.595560
| 42> O  -0.097606	-2.972961	1.333744
| 43> H  -0.051198	-2.347230	2.114372
| 44> H  0.086354	-3.854457	1.693595
| 45> O  -1.284081	1.328628	0.492030
| 46> H  -0.388664	1.118463	0.875791
| 47> H  -1.903682	0.886858	1.120946
| 48> O  -0.034271	3.025842	-1.277021
| 49> H  -0.655318	2.585351	-0.659768
| 50> H  -0.026188	2.436800	-2.068642
| 51> **                         ****END OF INPUT****
================================================================================

                       ****************************
                       * Single Point Calculation *
                       ****************************

---------------------------------
CARTESIAN COORDINATES (ANGSTROEM)
---------------------------------
  O      2.342734    2.348307   -0.317083
  H      2.958459    3.091679   -0.231729
  H      1.486626    2.731282   -0.670327
  O     -0.058335   -1.094787    3.212954
  H      0.493328   -0.421761    2.762264
  H     -0.980336   -0.805315    3.008123
  O      0.221313    1.096878   -3.204349
  H      1.131168    0.787350   -2.924211
  H      0.241175    1.169618   -4.170497
  O     -2.470610   -0.412268    2.171581
  H     -2.589343   -1.120549    1.475093
  H     -3.317965   -0.357617    2.639553
  O      2.515752    0.319251   -2.120870
  H      2.281899   -0.446807   -1.557245
  H      2.608974    1.065821   -1.482084
  O      1.249585   -1.457084   -0.413030
  H      0.398365   -1.183297   -0.852645
  H      0.956704   -2.186289    0.185206
  O      1.145980    0.600180    1.335405
  H      1.716070    1.304192    0.941212
  H      1.269471   -0.172566    0.720856
  O     -1.032881   -0.519935   -1.428530
  H     -0.740349   -0.030078   -2.234194
  H     -1.197284    0.196085   -0.758142
  O     -2.477781   -2.260892    0.228847
  H     -2.130598   -1.757580   -0.536764
  H     -1.667461   -2.691113    0.595560
  O     -0.097606   -2.972961    1.333744
  H     -0.051198   -2.347230    2.114372
  H      0.086354   -3.854457    1.693595
  O     -1.284081    1.328628    0.492030
  H     -0.388664    1.118463    0.875791
  H     -1.903682    0.886858    1.120946
  O     -0.034271    3.025842   -1.277021
  H     -0.655318    2.585351   -0.659768
  H     -0.026188    2.436800   -2.068642

----------------------------
CARTESIAN COORDINATES (A.U.)
----------------------------
  NO LB      ZA    FRAG    MASS        X           Y           Z
   0 O     8.0000    0    15.999          4.427125664625870          4.437657108370213         -0.599200031722152
   1 H     1.0000    0     1.008          5.590677288434533          5.842426603995522         -0.437904347287438
   2 H     1.0000    0     1.008          2.809316003566815          5.161374974508704         -1.266734450173031
   3 O     8.0000    0    15.999         -0.110237174022296         -2.068847604977245          6.071603140886821
   4 H     1.0000    0     1.008          0.932254814195103         -0.797012783968761          5.219922469589853
   5 H     1.0000    0     1.008         -1.852566559223824         -1.521824801538793          5.684528647149597
   6 O     8.0000    0    15.999          0.418220959876514          2.072799022323275         -6.055342047504429
   7 H     1.0000    0     1.008          2.137597731455434          1.487875871542897         -5.525957947799998
   8 H     1.0000    0     1.008          0.455754700348458          2.210257701304707         -7.881097172340178
   9 O     8.0000    0    15.999         -4.668776283727184         -0.779073613779447          4.103693367626846
  10 H     1.0000    0     1.008         -4.893149136786056         -2.117530729639325          2.787521792064301
  11 H     1.0000    0     1.008         -6.270045171936026         -0.675798190834516          4.988032285970241
  12 O     8.0000    0    15.999          4.754082300864657          0.603296957980494         -4.007863465649565
  13 H     1.0000    0     1.008          4.312164175268770         -0.844342864718953         -2.942766573418199
  14 H     1.0000    0     1.008          4.930246350521063          2.014109797782082         -2.800732867466544
  15 O     8.0000    0    15.999          2.361373431055987         -2.753489714118513         -0.780513585093495
  16 H     1.0000    0     1.008          0.752800751339539         -2.236107265090615         -1.611265539457286
  17 H     1.0000    0     1.008          1.807908551226997         -4.131487459604560          0.349988618359019
  18 O     8.0000    0    15.999          2.165588354951076          1.134175831056857          2.523549727869109
  19 H     1.0000    0     1.008          3.242902326638242          2.464565706051025          1.778632913960289
  20 H     1.0000    0     1.008          2.398952524955145         -0.326102480026255          1.362220421993938
  21 O     8.0000    0    15.999         -1.951862218930716         -0.982534757440346         -2.699530474090526
  22 H     1.0000    0     1.008         -1.399056853522465         -0.056839182656083         -4.222014790050057
  23 H     1.0000    0     1.008         -2.262538864525772          0.370546948969949         -1.432680750623325
  24 O     8.0000    0    15.999         -4.682327509833533         -4.272466698373487          0.432458156569477
  25 H     1.0000    0     1.008         -4.026246721480351         -3.321344858457314         -1.014336958548107
  26 H     1.0000    0     1.008         -3.151044628994464         -5.085466565435222          1.125445296318140
  27 O     8.0000    0    15.999         -0.184448609027518         -5.618082096828658          2.520410892760666
  28 H     1.0000    0     1.008         -0.096750198604500         -4.435621873323980          3.995584025231345
  29 H     1.0000    0     1.008          0.163185410568636         -7.283868124975706          3.200430731778362
  30 O     8.0000    0    15.999         -2.426561423771735          2.510743053859525          0.929801949673273
  31 H     1.0000    0     1.008         -0.734468518114369          2.113588760923965          1.655005140553027
  32 H     1.0000    0     1.008         -3.597437626075477          1.675918739677134          2.118280950914492
  33 O     8.0000    0    15.999         -0.064762804335615          5.718012704516548         -2.413219957266250
  34 H     1.0000    0     1.008         -1.238371550629007          4.885605350059442         -1.246780831924956
  35 H     1.0000    0     1.008         -0.049488147995130          4.604884643139306         -3.909166849127126

--------------------------------
INTERNAL COORDINATES (ANGSTROEM)
--------------------------------
 O      0   0   0   0.000000     0.000     0.000
 H      1   0   0   0.969022     0.000     0.000
 H      1   2   0   1.002184   106.301     0.000
 O      1   2   3   5.484632   134.673   244.845
 H      4   1   2   0.980009    13.207   349.100
 H      4   1   2   0.987844    95.232   117.083
 O      3   1   2   3.270101   114.373   131.710
 H      7   3   1   1.001060    65.544   352.662
 H      7   3   1   0.969086   136.645   264.262
 O      6   4   1   1.753626   163.290    55.291
 H     10   6   4   1.000427   105.919    38.948
 H     10   6   4   0.969533   121.676   159.519
 O      8   7   3   1.667797   167.455    40.611
 H     13   8   7   0.979390   107.368    59.406
 H     13   8   7   0.986967   100.245   311.110
 O     14  13   8   1.842704   156.918   320.020
 H     16  14  13   0.996392    93.094    36.545
 H     16  14  13   0.987626   161.273   183.231
 O      5   4   6   1.872497   157.138   302.541
 H     19   5   4   0.987939   153.392   177.620
 H     19   5   4   0.995016    95.166   312.703
 O     17  16  14   1.679333   171.093   271.994
 H     22  17  16   0.987233   102.904    98.626
 H     22  17  16   0.994552   101.193   351.273
 O     11  10   6   1.692914   168.984   312.882
 H     25  11  10   0.979806   104.629   306.372
 H     25  11  10   0.988022    94.251    50.885
 O     18  16  14   1.746300   155.510   171.835
 H     28  18  16   1.001535   101.725   297.567
 H     28  18  16   0.969726   122.617   180.175
 O     24  22  17   1.689117   171.934   356.259
 H     31  24  22   0.996601    95.592    10.628
 H     31  24  22   0.987219   101.755   266.121
 O      3   1   2   1.663722   167.715   173.469
 H     34   3   1   0.980170   105.665    55.423
 H     34   3   1   0.986762   100.333   307.560

---------------------------
INTERNAL COORDINATES (A.U.)
---------------------------
 O      0   0   0   0.000000     0.000     0.000
 H      1   0   0   1.831187     0.000     0.000
 H      1   2   0   1.893853   106.301     0.000
 O      1   2   3  10.364453   134.673   244.845
 H      4   1   2   1.851949    13.207   349.100
 H      4   1   2   1.866754    95.232   117.083
 O      3   1   2   6.179595   114.373   131.710
 H      7   3   1   1.891729    65.544   352.662
 H      7   3   1   1.831307   136.645   264.262
 O      6   4   1   3.313873   163.290    55.291
 H     10   6   4   1.890534   105.919    38.948
 H     10   6   4   1.832153   121.676   159.519
 O      8   7   3   3.151679   167.455    40.611
 H     13   8   7   1.850779   107.368    59.406
 H     13   8   7   1.865098   100.245   311.110
 O     14  13   8   3.482207   156.918   320.020
 H     16  14  13   1.882907    93.094    36.545
 H     16  14  13   1.866343   161.273   183.231
 O      5   4   6   3.538506   157.138   302.541
 H     19   5   4   1.866934   153.392   177.620
 H     19   5   4   1.880308    95.166   312.703
 O     17  16  14   3.173479   171.093   271.994
 H     22  17  16   1.865600   102.904    98.626
 H     22  17  16   1.879430   101.193   351.273
 O     11  10   6   3.199144   168.984   312.882
 H     25  11  10   1.851564   104.629   306.372
 H     25  11  10   1.867091    94.251    50.885
 O     18  16  14   3.300028   155.510   171.835
 H     28  18  16   1.892628   101.725   297.567
 H     28  18  16   1.832517   122.617   180.175
 O     24  22  17   3.191969   171.934   356.259
 H     31  24  22   1.883303    95.592    10.628
 H     31  24  22   1.865574   101.755   266.121
 O      3   1   2   3.143979   167.715   173.469
 H     34   3   1   1.852253   105.665    55.423
 H     34   3   1   1.864710   100.333   307.560

---------------------
BASIS SET INFORMATION
---------------------
There are 2 groups of distinct atoms

 Group   1 Type O   : 12s7p2d1f contracted to 6s4p2d1f pattern {621111/4111/11/1}
 Group   2 Type H   : 5s1p contracted to 3s1p pattern {311/1}

Atom   0O    basis set group =>   1
Atom   1H    basis set group =>   2
Atom   2H    basis set group =>   2
Atom   3O    basis set group =>   1
Atom   4H    basis set group =>   2
Atom   5H    basis set group =>   2
Atom   6O    basis set group =>   1
Atom   7H    basis set group =>   2
Atom   8H    basis set group =>   2
Atom   9O    basis set group =>   1
Atom  10H    basis set group =>   2
Atom  11H    basis set group =>   2
Atom  12O    basis set group =>   1
Atom  13H    basis set group =>   2
Atom  14H    basis set group =>   2
Atom  15O    basis set group =>   1
Atom  16H    basis set group =>   2
Atom  17H    basis set group =>   2
Atom  18O    basis set group =>   1
Atom  19H    basis set group =>   2
Atom  20H    basis set group =>   2
Atom  21O    basis set group =>   1
Atom  22H    basis set group =>   2
Atom  23H    basis set group =>   2
Atom  24O    basis set group =>   1
Atom  25H    basis set group =>   2
Atom  26H    basis set group =>   2
Atom  27O    basis set group =>   1
Atom  28H    basis set group =>   2
Atom  29H    basis set group =>   2
Atom  30O    basis set group =>   1
Atom  31H    basis set group =>   2
Atom  32H    basis set group =>   2
Atom  33O    basis set group =>   1
Atom  34H    basis set group =>   2
Atom  35H    basis set group =>   2
-------------------------------
AUXILIARY BASIS SET INFORMATION
-------------------------------
There are 2 groups of distinct atoms

 Group   1 Type O   : 12s5p4d2f1g contracted to 6s4p3d1f1g pattern {711111/2111/211/2/1}
 Group   2 Type H   : 5s2p1d contracted to 3s1p1d pattern {311/2/1}

Atom   0O    basis set group =>   1
Atom   1H    basis set group =>   2
Atom   2H    basis set group =>   2
Atom   3O    basis set group =>   1
Atom   4H    basis set group =>   2
Atom   5H    basis set group =>   2
Atom   6O    basis set group =>   1
Atom   7H    basis set group =>   2
Atom   8H    basis set group =>   2
Atom   9O    basis set group =>   1
Atom  10H    basis set group =>   2
Atom  11H    basis set group =>   2
Atom  12O    basis set group =>   1
Atom  13H    basis set group =>   2
Atom  14H    basis set group =>   2
Atom  15O    basis set group =>   1
Atom  16H    basis set group =>   2
Atom  17H    basis set group =>   2
Atom  18O    basis set group =>   1
Atom  19H    basis set group =>   2
Atom  20H    basis set group =>   2
Atom  21O    basis set group =>   1
Atom  22H    basis set group =>   2
Atom  23H    basis set group =>   2
Atom  24O    basis set group =>   1
Atom  25H    basis set group =>   2
Atom  26H    basis set group =>   2
Atom  27O    basis set group =>   1
Atom  28H    basis set group =>   2
Atom  29H    basis set group =>   2
Atom  30O    basis set group =>   1
Atom  31H    basis set group =>   2
Atom  32H    basis set group =>   2
Atom  33O    basis set group =>   1
Atom  34H    basis set group =>   2
Atom  35H    basis set group =>   2
------------------------------------------------------------------------------
                           ORCA GTO INTEGRAL CALCULATION
                           -- RI-GTO INTEGRALS CHOSEN --
------------------------------------------------------------------------------

                         BASIS SET STATISTICS AND STARTUP INFO

Gaussian basis set:
 # of primitive gaussian shells          ...  408
 # of primitive gaussian functions       ...  792
 # of contracted shells                  ...  252
 # of contracted basis functions         ...  564
 Highest angular momentum                ...    3
 Maximum contraction depth               ...    6
Auxiliary gaussian basis set:
 # of primitive gaussian shells          ...  480
 # of primitive gaussian functions       ... 1224
 # of contracted shells                  ...  300
 # of contracted aux-basis functions     ...  852
 Highest angular momentum                ...    4
 Maximum contraction depth               ...    7
Ratio of auxiliary to basis functions    ...  1.51
Integral package used                  ... LIBINT
 One Electron integrals                  ... done
 Ordering auxiliary basis shells         ... done
 Integral threshhold             Thresh  ...  2.500e-11
 Primitive cut-off               TCut    ...  2.500e-12
 Pre-screening matrix                    ... done
 Shell pair data                         ... 
 Ordering of the shell pairs             ... done (   0.004 sec) 25453 of 31878 pairs
 Determination of significant pairs      ... done (   0.000 sec)
 Creation of shell pair data             ... done (   0.006 sec)
 Storage of shell pair data              ... done (   0.004 sec)
 Shell pair data done in (   0.014 sec)
 Computing two index integrals           ... done
 Cholesky decomposition of the V-matrix  ... done


Timings:
 Total evaluation time                   ...   0.515 sec (  0.009 min)
 One electron matrix time                ...   0.159 sec (  0.003 min) = 30.9%
 Schwartz matrix evaluation time         ...   0.288 sec (  0.005 min) = 55.9%
 Two index repulsion integral time       ...   0.017 sec (  0.000 min) =  3.4%
 Cholesky decomposition of V             ...   0.022 sec (  0.000 min) =  4.3%
 Three index repulsion integral time     ...   0.000 sec (  0.000 min) =  0.0%

-------------------------------------------------------------------------------
                                 ORCA SCF
-------------------------------------------------------------------------------

------------
SCF SETTINGS
------------
Hamiltonian:
 Density Functional     Method          .... DFT(GTOs)
 Exchange Functional    Exchange        .... WB97X-D3
 Correlation Functional Correlation     .... WB97X-D3
 Gradients option       PostSCFGGA      .... off
 Hybrid DFT is turned on
   Fraction HF Exchange ScalHFX         ....  0.195728
   Scaling of DF-GGA-X  ScalDFX         ....  0.000000
   Scaling of DF-GGA-C  ScalDFC         ....  1.000000
   Scaling of DF-LDA-C  ScalLDAC        ....  1.000000
   Perturbative correction              ....  0.000000
 Long-range corrected/Screened/Range-Separated Hybrid DFT is turned on
   Amount of maximum screened exact exchange              ....  0.804272
   Range separation parameter mu (erf(mu*r12)/r12)        ....  0.250000
 RI-approximation to the Coulomb term is turned on
   Number of auxiliary basis functions  .... 852
   RIJ-COSX (HFX calculated with COS-X)).... on


General Settings:
 Integral files         IntName         .... 2_wb98x-ma-def2-TZVP-SMD_onB3LYP_SMD_12_waters
 Hartree-Fock type      HFTyp           .... RHF
 Total Charge           Charge          ....    0
 Multiplicity           Mult            ....    1
 Number of Electrons    NEL             ....  120
 Basis Dimension        Dim             ....  564
 Nuclear Repulsion      ENuc            ....   1042.4799635780 Eh

Convergence Acceleration:
 DIIS                   CNVDIIS         .... on
   Start iteration      DIISMaxIt       ....    12
   Startup error        DIISStart       ....  0.200000
   # of expansion vecs  DIISMaxEq       ....     5
   Bias factor          DIISBfac        ....   1.050
   Max. coefficient     DIISMaxC        ....  10.000
 Newton-Raphson         CNVNR           .... off
 SOSCF                  CNVSOSCF        .... on
   Start iteration      SOSCFMaxIt      ....   150
   Startup grad/error   SOSCFStart      ....  0.003300
 Level Shifting         CNVShift        .... on
   Level shift para.    LevelShift      ....    0.2500
   Turn off err/grad.   ShiftErr        ....    0.0010
 Zerner damping         CNVZerner       .... off
 Static damping         CNVDamp         .... on
   Fraction old density DampFac         ....    0.7000
   Max. Damping (<1)    DampMax         ....    0.9800
   Min. Damping (>=0)   DampMin         ....    0.0000
   Turn off err/grad.   DampErr         ....    0.1000
 Fernandez-Rico         CNVRico         .... off

SCF Procedure:
 Maximum # iterations   MaxIter         ....   400
 SCF integral mode      SCFMode         .... Direct
   Integral package                     .... LIBINT
 Reset frequeny         DirectResetFreq ....    20
 Integral Threshold     Thresh          ....  2.500e-11 Eh
 Primitive CutOff       TCut            ....  2.500e-12 Eh

Convergence Tolerance:
 Convergence Check Mode ConvCheckMode   .... Total+1el-Energy
 Energy Change          TolE            ....  1.000e-08 Eh
 1-El. energy change                    ....  1.000e-05 Eh
 Orbital Gradient       TolG            ....  1.000e-05
 Orbital Rotation angle TolX            ....  1.000e-05
 DIIS Error             TolErr          ....  5.000e-07


Diagonalization of the overlap matrix:
Smallest eigenvalue                        ... 2.516e-04
Time for diagonalization                   ...    0.073 sec
Threshold for overlap eigenvalues          ... 1.000e-08
Number of eigenvalues below threshold      ... 0
Time for construction of square roots      ...    0.033 sec
Total time needed                          ...    0.107 sec

-------------------
DFT GRID GENERATION
-------------------

General Integration Accuracy     IntAcc      ...  4.670
Radial Grid Type                 RadialGrid  ... Gauss-Chebyshev
Angular Grid (max. acc.)         AngularGrid ... Lebedev-302
Angular grid pruning method      GridPruning ... 3 (G Style)
Weight generation scheme         WeightScheme... Becke
Basis function cutoff            BFCut       ...    1.0000e-11
Integration weight cutoff        WCut        ...    1.0000e-14
Grids for H and He will be reduced by one unit

# of grid points (after initial pruning)     ... 156000 (   0.1 sec)
# of grid points (after weights+screening)   ... 137647 (   1.1 sec)
nearest neighbour list constructed           ...    0.0 sec
Grid point re-assignment to atoms done       ...    0.0 sec
Grid point division into batches done        ...    0.3 sec
Reduced shell lists constructed in    5.1 sec

Total number of grid points                  ...   137647
Total number of batches                      ...     2165
Average number of points per batch           ...       63
Average number of grid points per atom       ...     3824
Average number of shells per batch           ...   125.57 (49.83%)
Average number of basis functions per batch  ...   247.75 (43.93%)
Average number of large shells per batch     ...    89.26 (71.08%)
Average number of large basis fcns per batch ...   171.66 (69.29%)
Maximum spatial batch extension              ...  16.74, 17.92, 19.67 au
Average spatial batch extension              ...   2.05,  2.08,  2.02 au

Time for grid setup =    6.385 sec

------------------------------
INITIAL GUESS: MODEL POTENTIAL
------------------------------
Loading Hartree-Fock densities                     ... done
Calculating cut-offs                               ... done
Setting up the integral package                    ... done
Initializing the effective Hamiltonian             ... done
Starting the Coulomb interaction                   ... done (   2.2 sec)
Reading the grid                                   ... done
Mapping shells                                     ... done
Starting the XC term evaluation                    ... done (   6.9 sec)
  promolecular density results
     # of electrons  =    119.985072973
     EX              =   -104.959049910
     EC              =     -3.954713417
     EX+EC           =   -108.913763327
Transforming the Hamiltonian                       ... done (   0.0 sec)
Diagonalizing the Hamiltonian                      ... done (   0.1 sec)
Back transforming the eigenvectors                 ... done (   0.0 sec)
Now organizing SCF variables                       ... done
                      ------------------
                      INITIAL GUESS DONE (  15.8 sec)
                      ------------------
--------------------
COSX GRID GENERATION
--------------------

General Integration Accuracy     IntAcc      ...  3.340
Radial Grid Type                 RadialGrid  ... Gauss-Chebyshev
Angular Grid (max. acc.)         AngularGrid ... Lebedev-50
Angular grid pruning method      GridPruning ... 3 (G Style)
Weight generation scheme         WeightScheme... Becke
Basis function cutoff            BFCut       ...    1.0000e-11
Integration weight cutoff        WCut        ...    1.0000e-14
Grids for H and He will be reduced by one unit

# of grid points (after initial pruning)     ...  14640 (   0.0 sec)
# of grid points (after weights+screening)   ...  13101 (   0.1 sec)
nearest neighbour list constructed           ...    0.0 sec
Grid point re-assignment to atoms done       ...    0.0 sec
Grid point division into batches done        ...    0.0 sec
Reduced shell lists constructed in    0.5 sec

Total number of grid points                  ...    13101
Total number of batches                      ...      219
Average number of points per batch           ...       59
Average number of grid points per atom       ...      364
Average number of shells per batch           ...   144.80 (57.46%)
Average number of basis functions per batch  ...   295.09 (52.32%)
Average number of large shells per batch     ...   104.46 (72.15%)
Average number of large basis fcns per batch ...   204.12 (69.17%)
Maximum spatial batch extension              ...  17.07, 18.36, 18.30 au
Average spatial batch extension              ...   4.49,  4.51,  4.37 au

Overlap Fitting                  UseSFitting ... on
Constructing numerical overlap ... done (      0.4 sec)
Inverting numerical overlap    ... done (      0.0 sec)
Obtaining analytic overlap     ... done (      0.0 sec)
Final contraction and storage  ... done (      0.0 sec)


General Integration Accuracy     IntAcc      ...  3.670
Radial Grid Type                 RadialGrid  ... Gauss-Chebyshev
Angular Grid (max. acc.)         AngularGrid ... Lebedev-50
Angular grid pruning method      GridPruning ... 3 (G Style)
Weight generation scheme         WeightScheme... Becke
Basis function cutoff            BFCut       ...    1.0000e-11
Integration weight cutoff        WCut        ...    1.0000e-14
Grids for H and He will be reduced by one unit

# of grid points (after initial pruning)     ...  19224 (   0.0 sec)
# of grid points (after weights+screening)   ...  17180 (   0.1 sec)
nearest neighbour list constructed           ...    0.0 sec
Grid point re-assignment to atoms done       ...    0.0 sec
Grid point division into batches done        ...    0.0 sec
Reduced shell lists constructed in    0.7 sec

Total number of grid points                  ...    17180
Total number of batches                      ...      286
Average number of points per batch           ...       60
Average number of grid points per atom       ...      477
Average number of shells per batch           ...   142.07 (56.38%)
Average number of basis functions per batch  ...   287.98 (51.06%)
Average number of large shells per batch     ...   102.47 (72.13%)
Average number of large basis fcns per batch ...   199.51 (69.28%)
Maximum spatial batch extension              ...  18.77, 18.51, 18.57 au
Average spatial batch extension              ...   4.03,  4.09,  3.95 au

Overlap Fitting                  UseSFitting ... on
Constructing numerical overlap ... done (      0.5 sec)
Inverting numerical overlap    ... done (      0.0 sec)
Obtaining analytic overlap     ... done (      0.0 sec)
Final contraction and storage  ... done (      0.0 sec)


General Integration Accuracy     IntAcc      ...  4.010
Radial Grid Type                 RadialGrid  ... Gauss-Chebyshev
Angular Grid (max. acc.)         AngularGrid ... Lebedev-110
Angular grid pruning method      GridPruning ... 3 (G Style)
Weight generation scheme         WeightScheme... Becke
Basis function cutoff            BFCut       ...    1.0000e-11
Integration weight cutoff        WCut        ...    1.0000e-14
Grids for H and He will be reduced by one unit

# of grid points (after initial pruning)     ...  33096 (   0.0 sec)
# of grid points (after weights+screening)   ...  29780 (   0.2 sec)
nearest neighbour list constructed           ...    0.0 sec
Grid point re-assignment to atoms done       ...    0.0 sec
Grid point division into batches done        ...    0.0 sec
Reduced shell lists constructed in    1.2 sec

Total number of grid points                  ...    29780
Total number of batches                      ...      483
Average number of points per batch           ...       61
Average number of grid points per atom       ...      827
Average number of shells per batch           ...   137.73 (54.65%)
Average number of basis functions per batch  ...   277.32 (49.17%)
Average number of large shells per batch     ...    98.58 (71.57%)
Average number of large basis fcns per batch ...   191.40 (69.02%)
Maximum spatial batch extension              ...  19.90, 18.85, 16.51 au
Average spatial batch extension              ...   3.39,  3.35,  3.30 au

Overlap Fitting                  UseSFitting ... on
Constructing numerical overlap ... done (      0.8 sec)
Inverting numerical overlap    ... done (      0.0 sec)
Obtaining analytic overlap     ... done (      0.0 sec)
Final contraction and storage  ... done (      0.0 sec)

Time for X-Grid setup             =    4.736 sec

--------------------
COSMO INITIALIZATION
--------------------

Epsilon                                      ...   78.3550
Refractive Index                             ...    1.0000
Potential Evaluation                         ...  ANALYTIC
Technical COSMO parameters:
  rsolv                                      ...    1.3000
  routf                                      ...    0.8500
  disex                                      ...   10.0000
  nppa                                       ... 1082   
  nspa                                       ...   92   
Solvent:                                     ... WATER
Solvent:                                     ... WATER
SMD-CDS solvent descriptors:
  Soln                                       ...    1.3328
  Soln25                                     ...    1.3323
  Sola                                       ...    0.0000
  Solb                                       ...    0.0000
  Solg                                       ...    0.0000
  Solc                                       ...    0.0000
  Solh                                       ...    0.0000
Radii:
 Radius for O  used is    2.8724 Bohr (=   1.5200 Ang.)
 Radius for H  used is    2.2677 Bohr (=   1.2000 Ang.)
Initializing COSMO package            ... done
Setting COSMO radii                   ... done
Setting atoms and making cavity       ...  USING 1082 GRID
done (   6.8 sec)
  promolecular density results
     # of electrons  =    119.985072973
     EX              =   -104.959049910
     EC              =     -3.954713417
     EX+EC           =   -108.913763327
Transforming the Hamiltonian                       ... done (   0.0 sec)
Diagonalizing the Hamiltonian                      ... done (   0.1 sec)
Back transforming the eigenvectors                 ... done (   0.0 sec)
Now organizing SCF variables                       ... done
                      ------------------
                      INITIAL GUESS DONE (  15.7 sec)
                      ------------------
--------------------
COSX GRID GENERATION
--------------------

General Integration Accuracy     IntAcc      ...  3.340
Radial Grid Type                 RadialGrid  ... Gauss-Chebyshev
Angular Grid (max. acc.)         AngularGrid ... Lebedev-50
Angular grid pruning method      GridPruning ... 3 (G Style)
Weight generation scheme         WeightScheme... Becke
Basis function cutoff            BFCut       ...    1.0000e-11
Integration weight cutoff        WCut        ...    1.0000e-14
Grids for H and He will be reduced by one unit

# of grid points (after initial pruning)     ...  14640 (   0.0 sec)
# of grid points (after weights+screening)   ...  13101 (   0.1 sec)
nearest neighbour list constructed           ...    0.0 sec
Grid point re-assignment to atoms done       ...    0.0 sec
Grid point division into batches done        ...    0.0 sec
Reduced shell lists constructed in    0.5 sec

Total number of grid points                  ...    13101
Total number of batches                      ...      219
Average number of points per batch           ...       59
Average number of grid points per atom       ...      364
Average number of shells per batch           ...   144.80 (57.46%)
Average number of basis functions per batch  ...   295.09 (52.32%)
Average number of large shells per batch     ...   104.46 (72.15%)
Average number of large basis fcns per batch ...   204.12 (69.17%)
Maximum spatial batch extension              ...  17.07, 18.36, 18.30 au
Average spatial batch extension              ...   4.49,  4.51,  4.37 au

Overlap Fitting                  UseSFitting ... on
Constructing numerical overlap ... done (      0.4 sec)
Inverting numerical overlap    ... done (      0.0 sec)
Obtaining analytic overlap     ... done (      0.0 sec)
Final contraction and storage  ... done (      0.0 sec)


General Integration Accuracy     IntAcc      ...  3.670
Radial Grid Type                 RadialGrid  ... Gauss-Chebyshev
Angular Grid (max. acc.)         AngularGrid ... Lebedev-50
Angular grid pruning method      GridPruning ... 3 (G Style)
Weight generation scheme         WeightScheme... Becke
Basis function cutoff            BFCut       ...    1.0000e-11
Integration weight cutoff        WCut        ...    1.0000e-14
Grids for H and He will be reduced by one unit

# of grid points (after initial pruning)     ...  19224 (   0.0 sec)
# of grid points (after weights+screening)   ...  17180 (   0.1 sec)
nearest neighbour list constructed           ...    0.0 sec
Grid point re-assignment to atoms done       ...    0.0 sec
Grid point division into batches done        ...    0.0 sec
Reduced shell lists constructed in    0.7 sec

Total number of grid points                  ...    17180
Total number of batches                      ...      286
Average number of points per batch           ...       60
Average number of grid points per atom       ...      477
Average number of shells per batch           ...   142.07 (56.38%)
Average number of basis functions per batch  ...   287.98 (51.06%)
Average number of large shells per batch     ...   102.47 (72.13%)
Average number of large basis fcns per batch ...   199.51 (69.28%)
Maximum spatial batch extension              ...  18.77, 18.51, 18.57 au
Average spatial batch extension              ...   4.03,  4.09,  3.95 au

Overlap Fitting                  UseSFitting ... on
Constructing numerical overlap ... done (      0.5 sec)
Inverting numerical overlap    ... done (      0.0 sec)
Obtaining analytic overlap     ... done (      0.0 sec)
Final contraction and storage  ... done (      0.0 sec)


General Integration Accuracy     IntAcc      ...  4.010
Radial Grid Type                 RadialGrid  ... Gauss-Chebyshev
Angular Grid (max. acc.)         AngularGrid ... Lebedev-110
Angular grid pruning method      GridPruning ... 3 (G Style)
Weight generation scheme         WeightScheme... Becke
Basis function cutoff            BFCut       ...    1.0000e-11
Integration weight cutoff        WCut        ...    1.0000e-14
Grids for H and He will be reduced by one unit

# of grid points (after initial pruning)     ...  33096 (   0.0 sec)
# of grid points (after weights+screening)   ...  29780 (   0.2 sec)
nearest neighbour list constructed           ...    0.0 sec
Grid point re-assignment to atoms done       ...    0.0 sec
Grid point division into batches done        ...    0.0 sec
Reduced shell lists constructed in    1.2 sec

Total number of grid points                  ...    29780
Total number of batches                      ...      483
Average number of points per batch           ...       61
Average number of grid points per atom       ...      827
Average number of shells per batch           ...   137.73 (54.65%)
Average number of basis functions per batch  ...   277.32 (49.17%)
Average number of large shells per batch     ...    98.58 (71.57%)
Average number of large basis fcns per batch ...   191.40 (69.02%)
Maximum spatial batch extension              ...  19.90, 18.85, 16.51 au
Average spatial batch extension              ...   3.39,  3.35,  3.30 au

Overlap Fitting                  UseSFitting ... on
Constructing numerical overlap ... done (      0.8 sec)
Inverting numerical overlap    ... done (      0.0 sec)
Obtaining analytic overlap     ... done (      0.0 sec)
Final contraction and storage  ... done (      0.0 sec)

Time for X-Grid setup             =    4.697 sec

--------------------
COSMO INITIALIZATION
--------------------

Epsilon                                      ...   78.3550
Refractive Index                             ...    1.0000
Potential Evaluation                         ...  ANALYTIC
Technical COSMO parameters:
  rsolv                                      ...    1.3000
  routf                                      ...    0.8500
  disex                                      ...   10.0000
  nppa                                       ... 1082   
  nspa                                       ...   92   
Solvent:                                     ... WATER
Solvent:                                     ... WATER
SMD-CDS solvent descriptors:
  Soln                                       ...    1.3328
  Soln25                                     ...    1.3323
  Sola                                       ...    0.0000
  Solb                                       ...    0.0000
  Solg                                       ...    0.0000
  Solc                                       ...    0.0000
  Solh                                       ...    0.0000
Radii:
 Radius for O  used is    2.8724 Bohr (=   1.5200 Ang.)
 Radius for H  used is    2.2677 Bohr (=   1.2000 Ang.)
Initializing COSMO package            ... done
Setting COSMO radii                   ... done
Setting atoms and making cavity       ...  USING 1082 GRID
done
Cholesky decomposition of A           ... done
--------------
SCF ITERATIONS
--------------
ITER       Energy         Delta-E        Max-DP      RMS-DP      [F,P]     Damp
               ***  Starting incremental Fock matrix formation  ***
  0   -916.7516628308   0.000000000000 0.04096449  0.00073050  0.2871294 0.7000
  1   -917.0934521911  -0.341789360316 0.02427139  0.00047468  0.1460959 0.7000
                               ***Turning on DIIS***
  2   -917.2398200436  -0.146367852447 0.03735502  0.00077450  0.0594622 0.0000
  3   -917.4672294733  -0.227409429704 0.01731022  0.00031488  0.0706241 0.0000
                                                                                  4   -917.5114400971  -0.044210623815 0.00485521  0.00007712  0.0097535 0.0000
                                                                                                                                                                                                                                                                                                                                                                                                                                                                                *** Initiating the SOSCF procedure ***
                           *** Shutting down DIIS ***
                      *** Re-Reading the Fockian *** 
                      *** Removing any level shift *** 
ITER      Energy       Delta-E        Grad      Rot      Max-DP    RMS-DP
  5   -917.51237546  -0.0009353592  0.000469  0.000469  0.002376  0.000034
               *** Restarting incremental Fock matrix formation ***
  6   -917.51243410  -0.0000586392  0.000243  0.000438  0.001158  0.000020
  7   -917.51243961  -0.0000055156  0.000126  0.000255  0.000597  0.000008
  8   -917.51244260  -0.0000029863  0.000017  0.000033  0.000191  0.000002
  9   -917.51244270  -0.0000001053  0.000011  0.000013  0.000061  0.000001
 10   -917.51244278  -0.0000000730  0.000003  0.000002  0.000043  0.000000
                  ***Gradient check signals convergence***
              ***Rediagonalizing the Fockian in SOSCF/NRSCF***

               *****************************************************
               *                     SUCCESS                       *
               *           SCF CONVERGED AFTER  11 CYCLES          *
               *****************************************************

Setting up the final grid:

General Integration Accuracy     IntAcc      ...  5.010
Radial Grid Type                 RadialGrid  ... Gauss-Chebyshev
Angular Grid (max. acc.)         AngularGrid ... Lebedev-434
Angular grid pruning method      GridPruning ... 3 (G Style)
Weight generation scheme         WeightScheme... Becke
Basis function cutoff            BFCut       ...    1.0000e-11
Integration weight cutoff        WCut        ...    1.0000e-14
Grids for H and He will be reduced by one unit

# of grid points (after initial pruning)     ... 290712 (   0.2 sec)
# of grid points (after weights+screening)   ... 255663 (   2.1 sec)
nearest neighbour list constructed           ...    0.0 sec
Grid point re-assignment to atoms done       ...    0.0 sec
Grid point division into batches done        ...    1.2 sec
Reduced shell lists constructed in    9.7 sec

Total number of grid points                  ...   255663
Total number of batches                      ...     4013
Average number of points per batch           ...       63
Average number of grid points per atom       ...     7102
Average number of shells per batch           ...   122.37 (48.56%)
Average number of basis functions per batch  ...   240.06 (42.56%)
Average number of large shells per batch     ...    86.90 (71.01%)
Average number of large basis fcns per batch ...   166.69 (69.44%)
Maximum spatial batch extension              ...  17.42, 17.58, 19.44 au
Average spatial batch extension              ...   1.64,  1.66,  1.65 au

Final grid set up in   12.0 sec
Final integration                            ... done (  13.7 sec)
Change in XC energy                          ...    -0.001235713
Integrated number of electrons               ...   120.000154422
Previous integrated no of electrons          ...   119.998676652
                                                                                                                                                                                                                                                                                                                                                                                                                                                                                                                                                                                                                                                                                                                                                                                                                                                                                                                                                                                                         Old exchange energy                            =    -33.969891073 Eh
New exchange energy                            =    -33.968885909 Eh
Exchange energy change after final integration =      0.001005163 Eh
Total energy after final integration           =   -917.512673297 Eh
Final COS-X integration done in                =   128.566 sec
   3.54741527991667        2.04094659328996       0.557373626791754     
  1.060733839431713E-003  0.134165169442770       7.906178957156135E-003
Total Energy after outlying charge correction =   -917.517501550 Eh

SMD CDS free energy correction energy :                 6.85400     Kcal/mol
Total Energy after SMD CDS correction =              -917.501750754 Eh

----------------
TOTAL SCF ENERGY
----------------

Total Energy       :         -917.50175075 Eh          -24966.49191 eV
Total Energy       :         -917.50175075 Eh          -24966.49191 eV
COSMO(ediel)       :           -0.05572814 Eh              -1.51644 eV
SMD CDS (Gcds)     :            0.01092254 Eh               0.29722 eV

Components:
Nuclear Repulsion  :         1042.47996358 Eh           28367.32198 eV
Electronic Energy  :        -1959.98171433 Eh          -53333.81389 eV

One Electron Energy:        -3340.49143845 Eh          -90899.39328 eV
Two Electron Energy:         1380.50972412 Eh           37565.57939 eV

Virial components:
Potential Energy   :        -1831.11543127 Eh          -49827.18405 eV
Kinetic Energy     :          913.61368051 Eh           24860.69214 eV
Virial Ratio       :            2.00425570


DFT components:
N(Alpha)           :       60.000077211221 electrons
N(Beta)            :       60.000077211221 electrons
N(Total)           :      120.000154422441 electrons
E(XC)              :      -77.981862193258 Eh       

---------------
SCF CONVERGENCE
---------------

  Last Energy change         ...    2.8658e-08  Tolerance :   1.0000e-08
  Last MAX-Density change    ...    1.7084e-14  Tolerance :   1.0000e-07
  Last RMS-Density change    ...    2.9925e-16  Tolerance :   5.0000e-09
  Last Orbital Gradient      ...    5.0047e-07  Tolerance :   1.0000e-05
  Last Orbital Rotation      ...    9.0723e-07  Tolerance :   1.0000e-05

             **** THE GBW FILE WAS UPDATED (2_wb98x-ma-def2-TZVP-SMD_onB3LYP_SMD_12_waters.gbw) ****
             **** DENSITY FILE WAS UPDATED (2_wb98x-ma-def2-TZVP-SMD_onB3LYP_SMD_12_waters.scfp.tmp) ****
             **** ENERGY FILE WAS UPDATED (2_wb98x-ma-def2-TZVP-SMD_onB3LYP_SMD_12_waters.en.tmp) ****
----------------
ORBITAL ENERGIES
----------------

  NO   OCC          E(Eh)            E(eV) 
   0   2.0000     -19.243306      -523.6370 
   1   2.0000     -19.241936      -523.5997 
   2   2.0000     -19.241457      -523.5867 
   3   2.0000     -19.240520      -523.5612 
   4   2.0000     -19.234679      -523.4022 
   5   2.0000     -19.233893      -523.3808 
   6   2.0000     -19.233807      -523.3785 
   7   2.0000     -19.233186      -523.3616 
   8   2.0000     -19.232977      -523.3559 
   9   2.0000     -19.232321      -523.3381 
  10   2.0000     -19.231924      -523.3273 
  11   2.0000     -19.231047      -523.3034 
  12   2.0000      -1.154271       -31.4093 
  13   2.0000      -1.144216       -31.1357 
  14   2.0000      -1.136856       -30.9354 
  15   2.0000      -1.135911       -30.9097 
  16   2.0000      -1.132839       -30.8261 
  17   2.0000      -1.125878       -30.6367 
  18   2.0000      -1.125389       -30.6234 
  19   2.0000      -1.116614       -30.3846 
  20   2.0000      -1.115113       -30.3438 
  21   2.0000      -1.113999       -30.3135 
  22   2.0000      -1.109431       -30.1892 
  23   2.0000      -1.097457       -29.8633 
  24   2.0000      -0.653720       -17.7886 
  25   2.0000      -0.650592       -17.7035 
  26   2.0000      -0.648828       -17.6555 
  27   2.0000      -0.646459       -17.5910 
  28   2.0000      -0.644985       -17.5509 
  29   2.0000      -0.636430       -17.3182 
  30   2.0000      -0.634853       -17.2752 
  31   2.0000      -0.634203       -17.2575 
  32   2.0000      -0.623561       -16.9680 
  33   2.0000      -0.620518       -16.8851 
  34   2.0000      -0.618053       -16.8181 
  35   2.0000      -0.617911       -16.8142 
  36   2.0000      -0.579777       -15.7765 
  37   2.0000      -0.546493       -14.8708 
  38   2.0000      -0.541565       -14.7367 
  39   2.0000      -0.536719       -14.6049 
  40   2.0000      -0.513269       -13.9668 
  41   2.0000      -0.511041       -13.9061 
  42   2.0000      -0.507375       -13.8064 
  43   2.0000      -0.505842       -13.7647 
  44   2.0000      -0.485406       -13.2086 
  45   2.0000      -0.480990       -13.0884 
  46   2.0000      -0.479827       -13.0568 
  47   2.0000      -0.457186       -12.4407 
  48   2.0000      -0.430328       -11.7098 
  49   2.0000      -0.429789       -11.6952 
  50   2.0000      -0.428883       -11.6705 
  51   2.0000      -0.428350       -11.6560 
  52   2.0000      -0.423982       -11.5371 
  53   2.0000      -0.423042       -11.5115 
  54   2.0000      -0.422666       -11.5013 
  55   2.0000      -0.420763       -11.4495 
  56   2.0000      -0.420548       -11.4437 
  57   2.0000      -0.420406       -11.4398 
  58   2.0000      -0.419527       -11.4159 
  59   2.0000      -0.416870       -11.3436 
  60   0.0000       0.063157         1.7186 
  61   0.0000       0.081742         2.2243 
  62   0.0000       0.094352         2.5674 
  63   0.0000       0.095001         2.5851 
  64   0.0000       0.110400         3.0041 
  65   0.0000       0.112525         3.0620 
  66   0.0000       0.118907         3.2356 
  67   0.0000       0.122922         3.3449 
  68   0.0000       0.140918         3.8346 
  69   0.0000       0.143020         3.8918 
  70   0.0000       0.144226         3.9246 
  71   0.0000       0.144489         3.9318 
  72   0.0000       0.162757         4.4288 
  73   0.0000       0.165120         4.4932 
  74   0.0000       0.172266         4.6876 
  75   0.0000       0.178766         4.8645 
  76   0.0000       0.181910         4.9500 
  77   0.0000       0.183095         4.9823 
  78   0.0000       0.198381         5.3982 
  79   0.0000       0.200126         5.4457 
  80   0.0000       0.202945         5.5224 
  81   0.0000       0.204057         5.5527 
  82   0.0000       0.204966         5.5774 
  83   0.0000       0.206772         5.6266 
  84   0.0000       0.211794         5.7632 
  85   0.0000       0.221401         6.0246 
  86   0.0000       0.226604         6.1662 
  87   0.0000       0.234877         6.3913 
  88   0.0000       0.246502         6.7077 
  89   0.0000       0.248498         6.7620 
  90   0.0000       0.251140         6.8339 
  91   0.0000       0.257689         7.0121 
  92   0.0000       0.260676         7.0933 
  93   0.0000       0.265011         7.2113 
  94   0.0000       0.266397         7.2490 
  95   0.0000       0.271921         7.3993 
  96   0.0000       0.272337         7.4107 
  97   0.0000       0.273723         7.4484 
  98   0.0000       0.284331         7.7370 
  99   0.0000       0.298216         8.1149 
 100   0.0000       0.305328         8.3084 
 101   0.0000       0.309531         8.4228 
 102   0.0000       0.311216         8.4686 
 103   0.0000       0.319287         8.6883 
 104   0.0000       0.324814         8.8386 
 105   0.0000       0.327744         8.9184 
 106   0.0000       0.334313         9.0971 
 107   0.0000       0.334693         9.1075 
 108   0.0000       0.341755         9.2996 
 109   0.0000       0.344644         9.3782 
 110   0.0000       0.347013         9.4427 
 111   0.0000       0.351316         9.5598 
 112   0.0000       0.356456         9.6997 
 113   0.0000       0.362686         9.8692 
 114   0.0000       0.366540         9.9740 
 115   0.0000       0.369907        10.0657 
 116   0.0000       0.377320        10.2674 
 117   0.0000       0.381467        10.3803 
 118   0.0000       0.392104        10.6697 
 119   0.0000       0.393166        10.6986 
 120   0.0000       0.399333        10.8664 
 121   0.0000       0.413676        11.2567 
 122   0.0000       0.414952        11.2914 
 123   0.0000       0.419719        11.4211 
 124   0.0000       0.421157        11.4603 
 125   0.0000       0.435109        11.8399 
 126   0.0000       0.438675        11.9370 
 127   0.0000       0.440321        11.9817 
 128   0.0000       0.448046        12.1920 
 129   0.0000       0.452770        12.3205 
 130   0.0000       0.457186        12.4407 
 131   0.0000       0.467624        12.7247 
 132   0.0000       0.518550        14.1105 
 133   0.0000       0.520955        14.1759 
 134   0.0000       0.526289        14.3211 
 135   0.0000       0.531014        14.4496 
 136   0.0000       0.542702        14.7677 
 137   0.0000       0.547903        14.9092 
 138   0.0000       0.552056        15.0222 
 139   0.0000       0.555077        15.1044 
 140   0.0000       0.564545        15.3621 
 141   0.0000       0.572851        15.5881 
 142   0.0000       0.575629        15.6637 
 143   0.0000       0.580782        15.8039 
 144   0.0000       0.591416        16.0932 
 145   0.0000       0.597981        16.2719 
 146   0.0000       0.603991        16.4354 
 147   0.0000       0.620033        16.8719 
 148   0.0000       0.631322        17.1791 
 149   0.0000       0.636644        17.3240 
 150   0.0000       0.647917        17.6307 
 151   0.0000       0.677935        18.4475 
 152   0.0000       0.680055        18.5052 
 153   0.0000       0.686492        18.6804 
 154   0.0000       0.688532        18.7359 
 155   0.0000       0.710977        19.3467 
 156   0.0000       0.721847        19.6424 
 157   0.0000       0.723744        19.6941 
 158   0.0000       0.727898        19.8071 
 159   0.0000       0.731555        19.9066 
 160   0.0000       0.738503        20.0957 
 161   0.0000       0.745398        20.2833 
 162   0.0000       0.747546        20.3418 
 163   0.0000       0.773855        21.0577 
 164   0.0000       0.779189        21.2028 
 165   0.0000       0.784943        21.3594 
 166   0.0000       0.794051        21.6072 
 167   0.0000       0.803150        21.8548 
 168   0.0000       0.807733        21.9795 
 169   0.0000       0.821581        22.3564 
 170   0.0000       0.822693        22.3866 
 171   0.0000       0.830326        22.5943 
 172   0.0000       0.837458        22.7884 
 173   0.0000       0.842696        22.9309 
 174   0.0000       0.861181        23.4339 
 175   0.0000       0.879934        23.9442 
 176   0.0000       0.883341        24.0369 
 177   0.0000       0.887367        24.1465 
 178   0.0000       0.893521        24.3139 
 179   0.0000       0.896093        24.3839 
 180   0.0000       0.897440        24.4206 
 181   0.0000       0.901796        24.5391 
 182   0.0000       0.907849        24.7038 
 183   0.0000       0.918366        24.9900 
 184   0.0000       0.923508        25.1299 
 185   0.0000       0.931665        25.3519 
 186   0.0000       0.948296        25.8044 
 187   0.0000       0.973877        26.5005 
 188   0.0000       0.982783        26.7429 
 189   0.0000       0.986291        26.8383 
 190   0.0000       0.987895        26.8820 
 191   0.0000       0.996932        27.1279 
 192   0.0000       1.022652        27.8278 
 193   0.0000       1.033944        28.1350 
 194   0.0000       1.040848        28.3229 
 195   0.0000       1.050560        28.5872 
 196   0.0000       1.055546        28.7229 
 197   0.0000       1.057904        28.7870 
 198   0.0000       1.091947        29.7134 
 199   0.0000       1.095319        29.8052 
 200   0.0000       1.102671        30.0052 
 201   0.0000       1.130772        30.7699 
 202   0.0000       1.199448        32.6386 
 203   0.0000       1.229242        33.4494 
 204   0.0000       1.240038        33.7432 
 205   0.0000       1.254039        34.1241 
 206   0.0000       1.265684        34.4410 
 207   0.0000       1.273844        34.6630 
 208   0.0000       1.277092        34.7514 
 209   0.0000       1.289613        35.0922 
 210   0.0000       1.296349        35.2754 
 211   0.0000       1.300088        35.3772 
 212   0.0000       1.307835        35.5880 
 213   0.0000       1.314345        35.7651 
 214   0.0000       1.319397        35.9026 
 215   0.0000       1.325708        36.0743 
 216   0.0000       1.328654        36.1545 
 217   0.0000       1.349992        36.7351 
 218   0.0000       1.372739        37.3541 
 219   0.0000       1.391884        37.8751 
 220   0.0000       1.395701        37.9790 
 221   0.0000       1.419656        38.6308 
 222   0.0000       1.423821        38.7441 
 223   0.0000       1.428323        38.8667 
 224   0.0000       1.440077        39.1865 
 225   0.0000       1.444797        39.3149 
 226   0.0000       1.447848        39.3980 
 227   0.0000       1.453389        39.5487 
 228   0.0000       1.473479        40.0954 
 229   0.0000       1.479581        40.2614 
 230   0.0000       1.481487        40.3133 
 231   0.0000       1.483752        40.3749 
 232   0.0000       1.507677        41.0260 
 233   0.0000       1.510178        41.0940 
 234   0.0000       1.520564        41.3766 
 235   0.0000       1.532440        41.6998 
 236   0.0000       1.534572        41.7578 
 237   0.0000       1.539301        41.8865 
 238   0.0000       1.541053        41.9342 
 239   0.0000       1.556642        42.3584 
 240   0.0000       1.706029        46.4234 
 241   0.0000       1.747997        47.5654 
 242   0.0000       1.783670        48.5361 
 243   0.0000       1.792536        48.7774 
 244   0.0000       1.802717        49.0544 
 245   0.0000       1.815159        49.3930 
 246   0.0000       1.825705        49.6800 
 247   0.0000       1.835819        49.9552 
 248   0.0000       1.840987        50.0958 
 249   0.0000       1.850351        50.3506 
 250   0.0000       1.854740        50.4700 
 251   0.0000       1.859332        50.5950 
 252   0.0000       1.866617        50.7932 
 253   0.0000       1.867959        50.8297 
 254   0.0000       1.870336        50.8944 
 255   0.0000       1.882860        51.2352 
 256   0.0000       1.891457        51.4692 
 257   0.0000       1.900464        51.7143 
 258   0.0000       1.904134        51.8141 
 259   0.0000       1.913675        52.0737 
 260   0.0000       1.919976        52.2452 
 261   0.0000       1.946273        52.9608 
 262   0.0000       1.956999        53.2526 
 263   0.0000       1.960576        53.3500 
 264   0.0000       1.970969        53.6328 
 265   0.0000       1.981697        53.9247 
 266   0.0000       2.023067        55.0505 
 267   0.0000       2.043873        55.6166 
 268   0.0000       2.055408        55.9305 
 269   0.0000       2.061592        56.0988 
 270   0.0000       2.079661        56.5904 
 271   0.0000       2.094450        56.9929 
 272   0.0000       2.100654        57.1617 
 273   0.0000       2.103066        57.2273 
 274   0.0000       2.120800        57.7099 
 275   0.0000       2.123869        57.7934 
 276   0.0000       2.136591        58.1396 
 277   0.0000       2.142551        58.3018 
 278   0.0000       2.151515        58.5457 
 279   0.0000       2.171548        59.0908 
 280   0.0000       2.172057        59.1047 
 281   0.0000       2.179949        59.3194 
 282   0.0000       2.186963        59.5103 
 283   0.0000       2.188986        59.5653 
 284   0.0000       2.225236        60.5518 
 285   0.0000       2.233068        60.7649 
 286   0.0000       2.256450        61.4011 
 287   0.0000       2.257207        61.4217 
 288   0.0000       2.274203        61.8842 
 289   0.0000       2.277098        61.9630 
 290   0.0000       2.290821        62.3364 
 291   0.0000       2.308027        62.8046 
 292   0.0000       2.313012        62.9402 
 293   0.0000       2.345548        63.8256 
 294   0.0000       2.354250        64.0624 
 295   0.0000       2.362979        64.2999 
 296   0.0000       2.377562        64.6967 
 297   0.0000       2.382843        64.8405 
 298   0.0000       2.393706        65.1360 
 299   0.0000       2.394227        65.1502 
 300   0.0000       2.410444        65.5915 
 301   0.0000       2.430346        66.1331 
 302   0.0000       2.437935        66.3396 
 303   0.0000       2.464014        67.0492 
 304   0.0000       2.465514        67.0900 
 305   0.0000       2.469232        67.1912 
 306   0.0000       2.485334        67.6294 
 307   0.0000       2.497642        67.9643 
 308   0.0000       2.501533        68.0702 
 309   0.0000       2.503906        68.1347 
 310   0.0000       2.514512        68.4233 
 311   0.0000       2.526166        68.7405 
 312   0.0000       2.532452        68.9115 
 313   0.0000       2.536971        69.0345 
 314   0.0000       2.551277        69.4238 
 315   0.0000       2.552917        69.4684 
 316   0.0000       2.559597        69.6502 
 317   0.0000       2.562953        69.7415 
 318   0.0000       2.571632        69.9777 
 319   0.0000       2.576225        70.1027 
 320   0.0000       2.583952        70.3129 
 321   0.0000       2.598714        70.7146 
 322   0.0000       2.602890        70.8282 
 323   0.0000       2.613437        71.1152 
 324   0.0000       2.620650        71.3115 
 325   0.0000       2.626480        71.4701 
 326   0.0000       2.628548        71.5264 
 327   0.0000       2.672458        72.7213 
 328   0.0000       2.680024        72.9272 
 329   0.0000       2.688476        73.1571 
 330   0.0000       2.690834        73.2213 
 331   0.0000       2.710102        73.7456 
 332   0.0000       2.722475        74.0823 
 333   0.0000       2.724261        74.1309 
 334   0.0000       2.740623        74.5761 
 335   0.0000       2.758528        75.0634 
 336   0.0000       2.773512        75.4711 
 337   0.0000       2.778971        75.6196 
 338   0.0000       2.789064        75.8943 
 339   0.0000       2.790126        75.9232 
 340   0.0000       2.801943        76.2447 
 341   0.0000       2.807184        76.3874 
 342   0.0000       2.821400        76.7742 
 343   0.0000       2.828611        76.9704 
 344   0.0000       2.857348        77.7524 
 345   0.0000       2.867459        78.0275 
 346   0.0000       2.878158        78.3187 
 347   0.0000       2.883212        78.4562 
 348   0.0000       2.891727        78.6879 
 349   0.0000       2.901507        78.9540 
 350   0.0000       2.907003        79.1036 
 351   0.0000       2.918598        79.4191 
 352   0.0000       2.928192        79.6802 
 353   0.0000       2.932098        79.7865 
 354   0.0000       2.959255        80.5254 
 355   0.0000       2.969950        80.8165 
 356   0.0000       2.991524        81.4035 
 357   0.0000       3.014964        82.0414 
 358   0.0000       3.017627        82.1138 
 359   0.0000       3.026970        82.3680 
 360   0.0000       3.066884        83.4542 
 361   0.0000       3.075579        83.6907 
 362   0.0000       3.093004        84.1649 
 363   0.0000       3.104569        84.4796 
 364   0.0000       3.117041        84.8190 
 365   0.0000       3.128275        85.1247 
 366   0.0000       3.142442        85.5102 
 367   0.0000       3.152468        85.7830 
 368   0.0000       3.162587        86.0584 
 369   0.0000       3.185539        86.6829 
 370   0.0000       3.190387        86.8148 
 371   0.0000       3.196702        86.9867 
 372   0.0000       3.200190        87.0816 
 373   0.0000       3.212160        87.4073 
 374   0.0000       3.226616        87.8007 
 375   0.0000       3.266676        88.8908 
 376   0.0000       3.273898        89.0873 
 377   0.0000       3.281024        89.2812 
 378   0.0000       3.286729        89.4365 
 379   0.0000       3.311541        90.1116 
 380   0.0000       3.326470        90.5178 
 381   0.0000       3.342459        90.9529 
 382   0.0000       3.357352        91.3582 
 383   0.0000       3.394341        92.3647 
 384   0.0000       3.868096       105.2562 
 385   0.0000       3.896118       106.0188 
 386   0.0000       3.897270       106.0501 
 387   0.0000       3.910033       106.3974 
 388   0.0000       3.925477       106.8177 
 389   0.0000       3.936009       107.1042 
 390   0.0000       3.952677       107.5578 
 391   0.0000       3.962533       107.8260 
 392   0.0000       4.027049       109.5816 
 393   0.0000       4.029201       109.6401 
 394   0.0000       4.035637       109.8153 
 395   0.0000       4.045639       110.0874 
 396   0.0000       4.058254       110.4307 
 397   0.0000       4.063425       110.5714 
 398   0.0000       4.075784       110.9077 
 399   0.0000       4.081292       111.0576 
 400   0.0000       4.092576       111.3647 
 401   0.0000       4.109407       111.8227 
 402   0.0000       4.111333       111.8751 
 403   0.0000       4.118362       112.0663 
 404   0.0000       4.144873       112.7877 
 405   0.0000       4.155130       113.0668 
 406   0.0000       4.177767       113.6828 
 407   0.0000       4.201032       114.3159 
 408   0.0000       5.187324       141.1543 
 409   0.0000       5.187433       141.1572 
 410   0.0000       5.187827       141.1680 
 411   0.0000       5.188931       141.1980 
 412   0.0000       5.189749       141.2202 
 413   0.0000       5.190893       141.2514 
 414   0.0000       5.191400       141.2652 
 415   0.0000       5.192852       141.3047 
 416   0.0000       5.205277       141.6428 
 417   0.0000       5.205464       141.6479 
 418   0.0000       5.206538       141.6771 
 419   0.0000       5.207515       141.7037 
 420   0.0000       5.295359       144.0941 
 421   0.0000       5.300625       144.2373 
 422   0.0000       5.302085       144.2771 
 423   0.0000       5.308009       144.4383 
 424   0.0000       5.319836       144.7601 
 425   0.0000       5.322723       144.8387 
 426   0.0000       5.328487       144.9955 
 427   0.0000       5.335144       145.1766 
 428   0.0000       5.340874       145.3326 
 429   0.0000       5.344792       145.4392 
 430   0.0000       5.350660       145.5989 
 431   0.0000       5.351481       145.6212 
 432   0.0000       5.434825       147.8891 
 433   0.0000       5.440343       148.0393 
 434   0.0000       5.442201       148.0898 
 435   0.0000       5.448970       148.2740 
 436   0.0000       5.450060       148.3037 
 437   0.0000       5.455258       148.4451 
 438   0.0000       5.456428       148.4770 
 439   0.0000       5.458313       148.5283 
 440   0.0000       5.464892       148.7073 
 441   0.0000       5.471604       148.8899 
 442   0.0000       5.477757       149.0573 
 443   0.0000       5.482788       149.1943 
 444   0.0000       5.484297       149.2353 
 445   0.0000       5.487078       149.3110 
 446   0.0000       5.488356       149.3458 
 447   0.0000       5.511301       149.9701 
 448   0.0000       5.515363       150.0807 
 449   0.0000       5.516274       150.1055 
 450   0.0000       5.516627       150.1150 
 451   0.0000       5.523753       150.3090 
 452   0.0000       5.526524       150.3844 
 453   0.0000       5.532690       150.5521 
 454   0.0000       5.537875       150.6932 
 455   0.0000       5.538304       150.7049 
 456   0.0000       5.544446       150.8721 
 457   0.0000       5.546774       150.9354 
 458   0.0000       5.547031       150.9424 
 459   0.0000       5.551079       151.0526 
 460   0.0000       5.555065       151.1610 
 461   0.0000       5.557237       151.2201 
 462   0.0000       5.565728       151.4512 
 463   0.0000       5.566680       151.4771 
 464   0.0000       5.571557       151.6098 
 465   0.0000       5.572694       151.6407 
 466   0.0000       5.581782       151.8880 
 467   0.0000       5.587712       152.0494 
 468   0.0000       6.027084       164.0053 
 469   0.0000       6.034123       164.1968 
 470   0.0000       6.042652       164.4289 
 471   0.0000       6.058364       164.8565 
 472   0.0000       6.059914       164.8986 
 473   0.0000       6.072926       165.2527 
 474   0.0000       6.077266       165.3708 
 475   0.0000       6.080176       165.4500 
 476   0.0000       6.091908       165.7692 
 477   0.0000       6.103988       166.0979 
 478   0.0000       6.118566       166.4946 
 479   0.0000       6.129153       166.7827 
 480   0.0000       6.201819       168.7601 
 481   0.0000       6.266449       170.5187 
 482   0.0000       6.273844       170.7200 
 483   0.0000       6.284829       171.0189 
 484   0.0000       6.285505       171.0373 
 485   0.0000       6.322173       172.0351 
 486   0.0000       6.323458       172.0701 
 487   0.0000       6.338691       172.4845 
 488   0.0000       6.389210       173.8592 
 489   0.0000       6.395639       174.0342 
 490   0.0000       6.406593       174.3323 
 491   0.0000       6.410930       174.4503 
 492   0.0000       6.417141       174.6193 
 493   0.0000       6.424572       174.8215 
 494   0.0000       6.458767       175.7520 
 495   0.0000       6.461265       175.8199 
 496   0.0000       6.465363       175.9315 
 497   0.0000       6.472275       176.1195 
 498   0.0000       6.479937       176.3280 
 499   0.0000       6.486196       176.4984 
 500   0.0000       6.488641       176.5649 
 501   0.0000       6.503142       176.9595 
 502   0.0000       6.505250       177.0169 
 503   0.0000       6.509879       177.1428 
 504   0.0000       6.514608       177.2715 
 505   0.0000       6.520904       177.4428 
 506   0.0000       6.528377       177.6462 
 507   0.0000       6.533114       177.7751 
 508   0.0000       6.534973       177.8257 
 509   0.0000       6.551644       178.2793 
 510   0.0000       6.561957       178.5599 
 511   0.0000       6.568033       178.7253 
 512   0.0000       6.574982       178.9144 
 513   0.0000       6.584224       179.1659 
 514   0.0000       6.594962       179.4580 
 515   0.0000       6.604735       179.7240 
 516   0.0000       6.629018       180.3848 
 517   0.0000       6.632617       180.4827 
 518   0.0000       6.640040       180.6847 
 519   0.0000       6.644414       180.8037 
 520   0.0000       6.684293       181.8889 
 521   0.0000       6.695039       182.1813 
 522   0.0000       6.745169       183.5454 
 523   0.0000       6.754368       183.7957 
 524   0.0000       6.809459       185.2948 
 525   0.0000       6.824204       185.6960 
 526   0.0000       6.832526       185.9225 
 527   0.0000       6.859270       186.6502 
 528   0.0000       6.960928       189.4165 
 529   0.0000       6.993198       190.2946 
 530   0.0000       7.059815       192.1073 
 531   0.0000       7.078729       192.6220 
 532   0.0000       7.082928       192.7363 
 533   0.0000       7.109787       193.4671 
 534   0.0000       7.113599       193.5709 
 535   0.0000       7.117861       193.6869 
 536   0.0000       7.124536       193.8685 
 537   0.0000       7.150316       194.5700 
 538   0.0000       7.154888       194.6944 
 539   0.0000       7.189201       195.6281 
 540   0.0000       7.203696       196.0225 
 541   0.0000       7.206194       196.0905 
 542   0.0000       7.214940       196.3285 
 543   0.0000       7.228765       196.7047 
 544   0.0000       7.232138       196.7965 
 545   0.0000       7.238493       196.9694 
 546   0.0000       7.242341       197.0741 
 547   0.0000       7.261238       197.5883 
 548   0.0000       7.303647       198.7423 
 549   0.0000       7.323756       199.2895 
 550   0.0000       7.340079       199.7337 
 551   0.0000       7.353909       200.1100 
 552   0.0000      43.714989      1189.5453 
 553   0.0000      43.739407      1190.2098 
 554   0.0000      43.756281      1190.6689 
 555   0.0000      43.759733      1190.7629 
 556   0.0000      43.764825      1190.9014 
 557   0.0000      43.772401      1191.1076 
 558   0.0000      43.796592      1191.7659 
 559   0.0000      43.839886      1192.9439 
 560   0.0000      43.872960      1193.8439 
 561   0.0000      43.887805      1194.2479 
 562   0.0000      43.911314      1194.8876 
 563   0.0000      44.113727      1200.3955 

                    ********************************
                    * MULLIKEN POPULATION ANALYSIS *
                    ********************************

-----------------------
MULLIKEN ATOMIC CHARGES
-----------------------
   0 O :   -0.846268
   1 H :    0.416560
   2 H :    0.432823
   3 O :   -0.802143
   4 H :    0.429904
   5 H :    0.424320
   6 O :   -0.849355
   7 H :    0.434300
   8 H :    0.416665
   9 O :   -0.856353
  10 H :    0.423875
  11 H :    0.417070
  12 O :   -0.838180
  13 H :    0.432795
  14 H :    0.424415
  15 O :   -0.842582
  16 H :    0.430400
  17 H :    0.427619
  18 O :   -0.921549
  19 H :    0.439688
  20 H :    0.421876
  21 O :   -0.927148
  22 H :    0.437927
  23 H :    0.423877
  24 O :   -0.806132
  25 H :    0.426380
  26 H :    0.419724
  27 O :   -0.862866
  28 H :    0.422012
  29 H :    0.416139
  30 O :   -0.844921
  31 H :    0.424623
  32 H :    0.428761
  33 O :   -0.836784
  34 H :    0.434283
  35 H :    0.428247
Sum of atomic charges:   -0.0000000

--------------------------------
MULLIKEN REDUCED ORBITAL CHARGES
--------------------------------
  0 O s       :     3.808757  s :     3.808757
      pz      :     1.890733  p :     5.018660
      px      :     1.481242
      py      :     1.646684
      dz2     :     0.002851  d :     0.017725
      dxz     :     0.001814
      dyz     :     0.002004
      dx2y2   :     0.002274
      dxy     :     0.008781
      f0      :     0.000197  f :     0.001126
      f+1     :     0.000194
      f-1     :     0.000178
      f+2     :     0.000091
      f-2     :     0.000118
      f+3     :     0.000201
      f-3     :     0.000146
  1 H s       :     0.539821  s :     0.539821
      pz      :     0.013399  p :     0.043619
      px      :     0.014243
      py      :     0.015977
  2 H s       :     0.510711  s :     0.510711
      pz      :     0.015197  p :     0.056466
      px      :     0.030305
      py      :     0.010964
  3 O s       :     3.789267  s :     3.789267
      pz      :     1.898881  p :     4.992493
      px      :     1.412707
      py      :     1.680905
      dz2     :     0.002189  d :     0.019371
      dxz     :     0.003464
      dyz     :     0.005214
      dx2y2   :     0.003149
      dxy     :     0.005356
      f0      :     0.000213  f :     0.001012
      f+1     :     0.000151
      f-1     :     0.000045
      f+2     :     0.000045
      f-2     :     0.000248
      f+3     :     0.000169
      f-3     :     0.000141
  4 H s       :     0.519939  s :     0.519939
      pz      :     0.017007  p :     0.050157
      px      :     0.014674
      py      :     0.018476
  5 H s       :     0.521222  s :     0.521222
      pz      :     0.013712  p :     0.054458
      px      :     0.028434
      py      :     0.012313
  6 O s       :     3.810833  s :     3.810833
      pz      :     1.511619  p :     5.019806
      px      :     1.607772
      py      :     1.900414
      dz2     :     0.009154  d :     0.017578
      dxz     :     0.001340
      dyz     :     0.000871
      dx2y2   :     0.003793
      dxy     :     0.002419
      f0      :     0.000587  f :     0.001138
      f+1     :    -0.000006
      f-1     :     0.000085
      f+2     :     0.000079
      f-2     :     0.000062
      f+3     :     0.000117
      f-3     :     0.000213
  7 H s       :     0.509350  s :     0.509350
      pz      :     0.012102  p :     0.056350
      px      :     0.029779
      py      :     0.014469
  8 H s       :     0.539641  s :     0.539641
      pz      :     0.019305  p :     0.043694
      px      :     0.010801
      py      :     0.013588
  9 O s       :     3.822451  s :     3.822451
      pz      :     1.646062  p :     5.014845
      px      :     1.633826
      py      :     1.734957
      dz2     :     0.000986  d :     0.017943
      dxz     :     0.004356
      dyz     :     0.004981
      dx2y2   :     0.006217
      dxy     :     0.001403
      f0      :     0.000154  f :     0.001114
      f+1     :     0.000023
      f-1     :     0.000240
      f+2     :     0.000482
      f-2     :     0.000066
[...]
LOEWDIN ATOMIC CHARGES
----------------------
   0 O :   -0.376246
   1 H :    0.214876
   2 H :    0.195171
   3 O :   -0.398361
   4 H :    0.200257
   5 H :    0.194049
   6 O :   -0.381628
   7 H :    0.194951
   8 H :    0.214374
   9 O :   -0.373157
  10 H :    0.196741
  11 H :    0.216274
  12 O :   -0.398763
  13 H :    0.199212
  14 H :    0.192643
  15 O :   -0.421240
  16 H :    0.188327
  17 H :    0.195544
  18 O :   -0.412416
  19 H :    0.198377
  20 H :    0.190921
  21 O :   -0.412563
  22 H :    0.198733
  23 H :    0.187541
  24 O :   -0.403637
  25 H :    0.200206
  26 H :    0.193735
  27 O :   -0.372942
  28 H :    0.193449
  29 H :    0.215919
  30 O :   -0.413184
  31 H :    0.189283
  32 H :    0.197577
  33 O :   -0.397177
  34 H :    0.197840
  35 H :    0.195314

-------------------------------
LOEWDIN REDUCED ORBITAL CHARGES
-------------------------------
  0 O s       :     3.464684  s :     3.464684
      pz      :     1.814519  p :     4.882102
      px      :     1.451985
      py      :     1.615598
      dz2     :     0.003558  d :     0.027425
      dxz     :     0.003192
      dyz     :     0.003388
      dx2y2   :     0.003775
      dxy     :     0.013512
      f0      :     0.000212  f :     0.002035
      f+1     :     0.000228
      f-1     :     0.000288
      f+2     :     0.000165
      f-2     :     0.000223
      f+3     :     0.000514
      f-3     :     0.000406
  1 H s       :     0.625336  s :     0.625336
      pz      :     0.041317  p :     0.159787
      px      :     0.050631
      py      :     0.067839
  2 H s       :     0.607627  s :     0.607627
      pz      :     0.049279  p :     0.197202
      px      :     0.108087
      py      :     0.039836
  3 O s       :     3.480472  s :     3.480472
      pz      :     1.810129  p :     4.888064
      px      :     1.413579
      py      :     1.664356
      dz2     :     0.002209  d :     0.027857
      dxz     :     0.004784
      dyz     :     0.006444
      dx2y2   :     0.005861
      dxy     :     0.008560
      f0      :     0.000266  f :     0.001967
      f+1     :     0.000196
      f-1     :     0.000045
      f+2     :     0.000167
      f-2     :     0.000576
      f+3     :     0.000363
      f-3     :     0.000354
  4 H s       :     0.626549  s :     0.626549
      pz      :     0.057268  p :     0.173195
      px      :     0.047067
      py      :     0.068860
  5 H s       :     0.620956  s :     0.620956
      pz      :     0.043569  p :     0.184995
      px      :     0.101621
      py      :     0.039805
  6 O s       :     3.465232  s :     3.465232
      pz      :     1.463792  p :     4.887263
      px      :     1.595509
      py      :     1.827963
      dz2     :     0.014021  d :     0.027112
      dxz     :     0.002481
      dyz     :     0.002197
      dx2y2   :     0.005030
      dxy     :     0.003382
      f0      :     0.001125  f :     0.002022
      f+1     :     0.000099
      f-1     :     0.000063
      f+2     :     0.000150
      f-2     :     0.000108
      f+3     :     0.000151
      f-3     :     0.000325
  7 H s       :     0.608375  s :     0.608375
      pz      :     0.037166  p :     0.196674
      px      :     0.113285
      py      :     0.046223
  8 H s       :     0.625940  s :     0.625940
      pz      :     0.086162  p :     0.159686
      px      :     0.031897
      py      :     0.041627
  9 O s       :     3.465083  s :     3.465083
      pz      :     1.598080  p :     4.878593
      px      :     1.587391
      py      :     1.693122
      dz2     :     0.001198  d :     0.027438
      dxz     :     0.007280
      dyz     :     0.008583
      dx2y2   :     0.009172
      dxy     :     0.001205
      f0      :     0.000297  f :     0.002043
      f+1     :     0.000015
      f-1     :     0.000354
      f+2     :     0.000879
      f-2     :     0.000078
      f+3     :     0.000361
      f-3     :     0.000059
 10 H s       :     0.610152  s :     0.610152
      pz      :     0.082146  p :     0.193106
      px      :     0.028424
      py      :     0.082536
 11 H s       :     0.624272  s :     0.624272
      pz      :     0.046254  p :     0.159454
      px      :     0.077183
      py      :     0.036018
 12 O s       :     3.475784  s :     3.475784
      pz      :     1.644313  p :     4.893612
      px      :     1.842374
      py      :     1.406925
      dz2     :     0.000935  d :     0.027378
      dxz     :     0.002655
      dyz     :     0.017991
      dx2y2   :     0.004192
      dxy     :     0.001605
      f0      :     0.000191  f :     0.001990
      f+1     :     0.000017
      f-1     :     0.000396
      f+2     :     0.000794
      f-2     :     0.000207
      f+3     :     0.000152
      f-3     :     0.000232
 13 H s       :     0.625694  s :     0.625694
      pz      :     0.058705  p :     0.175094
      px      :     0.046777
      py      :     0.069613
 14 H s       :     0.621261  s :     0.621261
      pz      :     0.069363  p :     0.186096
      px      :     0.040130
      py      :     0.076603
 15 O s       :     3.478409  s :     3.478409
      pz      :     1.653078  p :     4.913134
      px      :     1.629067
      py      :     1.630989
      dz2     :     0.000996  d :     0.027803
      dxz     :     0.006963
      dyz     :     0.008032
      dx2y2   :     0.006880
      dxy     :     0.004933
      f0      :     0.000356  f :     0.001893
      f+1     :     0.000023
      f-1     :     0.000151
      f+2     :     0.000531
      f-2     :     0.000369
      f+3     :     0.000265
      f-3     :     0.000198
 16 H s       :     0.613872  s :     0.613872
      pz      :     0.050510  p :     0.197801
      px      :     0.105946
      py      :     0.041345
 17 H s       :     0.618252  s :     0.618252
      pz      :     0.067376  p :     0.186204
      px      :     0.042801
      py      :     0.076027
 18 O s       :     3.474583  s :     3.474583
      pz      :     1.725539  p :     4.908368
      px      :     1.729812
      py      :     1.453017
      dz2     :     0.001494  d :     0.027547
      dxz     :     0.003337
      dyz     :     0.012995
      dx2y2   :     0.003480
      dxy     :     0.006241
      f0      :     0.000277  f :     0.001917
      f+1     :     0.000030
      f-1     :     0.000179
      f+2     :     0.000446
      f-2     :     0.000486
      f+3     :     0.000303
      f-3     :     0.000196
 19 H s       :     0.616757  s :     0.616757
      pz      :     0.053122  p :     0.184866
      px      :     0.062375
      py      :     0.069369
 20 H s       :     0.615359  s :     0.615359
      pz      :     0.072466  p :     0.193720
      px      :     0.035793
      py      :     0.085460
 21 O s       :     3.473376  s :     3.473376
      pz      :     1.454065  p :     4.909691
      px      :     1.815791
      py      :     1.639834
      dz2     :     0.002021  d :     0.027566
      dxz     :     0.002931
      dyz     :     0.016098
      dx2y2   :     0.003552
      dxy     :     0.002964
      f0      :     0.000080  f :     0.001930
      f+1     :     0.000213
      f-1     :     0.000671
      f+2     :     0.000489
      f-2     :     0.000295
      f+3     :     0.000075
      f-3     :     0.000106
 22 H s       :     0.618066  s :     0.618066
      pz      :     0.079335  p :     0.183201
      px      :     0.048794
      py      :     0.055072
 23 H s       :     0.614900  s :     0.614900
      pz      :     0.075315  p :     0.197559
      px      :     0.040041
      py      :     0.082203
 24 O s       :     3.481841  s :     3.481841
      pz      :     1.560620  p :     4.892215
      px      :     1.647274
      py      :     1.684322
      dz2     :     0.003439  d :     0.027614
      dxz     :     0.007413
      dyz     :     0.006672
      dx2y2   :     0.003703
      dxy     :     0.006387
      f0      :     0.000171  f :     0.001968
      f+1     :     0.000247
      f-1     :     0.000475
      f+2     :     0.000150
      f-2     :     0.000479
      f+3     :     0.000042
      f-3     :     0.000403
 25 H s       :     0.627136  s :     0.627136
      pz      :     0.073930  p :     0.172658
      px      :     0.043110
      py      :     0.055618
 26 H s       :     0.621390  s :     0.621390
      pz      :     0.042934  p :     0.184875
      px      :     0.093771
      py      :     0.048169
 27 O s       :     3.465147  s :     3.465147
      pz      :     1.630265  p :     4.878157
      px      :     1.842789
      py      :     1.405103
      dz2     :     0.003715  d :     0.027588
      dxz     :     0.002109
      dyz     :     0.014307
      dx2y2   :     0.005740
      dxy     :     0.001717
      f0      :     0.000201  f :     0.002051
      f+1     :     0.000017
      f-1     :     0.000527
      f+2     :     0.000625
      f-2     :     0.000117
      f+3     :     0.000170
      f-3     :     0.000393
 28 H s       :     0.608889  s :     0.608889
      pz      :     0.089667  p :     0.197662
      px      :     0.036982
      py      :     0.071013
 29 H s       :     0.624493  s :     0.624493
      pz      :     0.041526  p :     0.159587
      px      :     0.044237
      py      :     0.073824
 30 O s       :     3.475541  s :     3.475541
      pz      :     1.680234  p :     4.907667
      px      :     1.425776
      py      :     1.801657
      dz2     :     0.001593  d :     0.028065
      dxz     :     0.010515
      dyz     :     0.006163
      dx2y2   :     0.004697
      dxy     :     0.005097
      f0      :     0.000220  f :     0.001911
      f+1     :     0.000155
      f-1     :     0.000135
      f+2     :     0.000358
      f-2     :     0.000603
      f+3     :     0.000218
      f-3     :     0.000222
 31 H s       :     0.613426  s :     0.613426
      pz      :     0.045788  p :     0.197291
      px      :     0.109548
      py      :     0.041955
 32 H s       :     0.618095  s :     0.618095
      pz      :     0.069547  p :     0.184327
      px      :     0.054696
      py      :     0.060084
 33 O s       :     3.476155  s :     3.476155
      pz      :     1.461463  p :     4.891590
      px      :     1.693086
      py      :     1.737041
      dz2     :     0.001743  d :     0.027450
      dxz     :     0.005501
      dyz     :     0.012836
      dx2y2   :     0.003453
      dxy     :     0.003917
      f0      :     0.000116  f :     0.001982
      f+1     :     0.000156
      f-1     :     0.000638
      f+2     :     0.000355
      f-2     :     0.000481
      f+3     :     0.000044
      f-3     :     0.000192
 34 H s       :     0.624857  s :     0.624857
      pz      :     0.058433  p :     0.177303
      px      :     0.065110
      py      :     0.053761
 35 H s       :     0.621593  s :     0.621593
      pz      :     0.080481  p :     0.183093
      px      :     0.034675
      py      :     0.067937


                      *****************************
                      * MAYER POPULATION ANALYSIS *
                      *****************************

  NA   - Mulliken gross atomic population
  ZA   - Total nuclear charge
  QA   - Mulliken gross atomic charge
  VA   - Mayer's total valence
  BVA  - Mayer's bonded valence
  FA   - Mayer's free valence

  ATOM       NA         ZA         QA         VA         BVA        FA
  0 O      8.8463     8.0000    -0.8463     1.6886     1.6886     0.0000
  1 H      0.5834     1.0000     0.4166     0.8518     0.8518    -0.0000
  2 H      0.5672     1.0000     0.4328     0.8331     0.8331     0.0000
  3 O      8.8021     8.0000    -0.8021     1.7718     1.7718     0.0000
  4 H      0.5701     1.0000     0.4299     0.8311     0.8311     0.0000
  5 H      0.5757     1.0000     0.4243     0.8458     0.8458     0.0000
  6 O      8.8494     8.0000    -0.8494     1.6791     1.6791     0.0000
  7 H      0.5657     1.0000     0.4343     0.8293     0.8293     0.0000
  8 H      0.5833     1.0000     0.4167     0.8521     0.8521     0.0000
  9 O      8.8564     8.0000    -0.8564     1.7374     1.7374    -0.0000
 10 H      0.5761     1.0000     0.4239     0.8441     0.8441    -0.0000
 11 H      0.5829     1.0000     0.4171     0.8497     0.8497    -0.0000
 12 O      8.8382     8.0000    -0.8382     1.7500     1.7500    -0.0000
 13 H      0.5672     1.0000     0.4328     0.8260     0.8260    -0.0000
 14 H      0.5756     1.0000     0.4244     0.8437     0.8437    -0.0000
 15 O      8.8426     8.0000    -0.8426     1.6801     1.6801    -0.0000
 16 H      0.5696     1.0000     0.4304     0.8360     0.8360    -0.0000
 17 H      0.5724     1.0000     0.4276     0.8669     0.8669    -0.0000
 18 O      8.9215     8.0000    -0.9215     1.7483     1.7483     0.0000
 19 H      0.5603     1.0000     0.4397     0.8472     0.8472    -0.0000
 20 H      0.5781     1.0000     0.4219     0.8502     0.8502     0.0000
 21 O      8.9271     8.0000    -0.9271     1.7576     1.7576     0.0000
 22 H      0.5621     1.0000     0.4379     0.8460     0.8460     0.0000
 23 H      0.5761     1.0000     0.4239     0.8447     0.8447     0.0000
 24 O      8.8061     8.0000    -0.8061     1.7578     1.7578     0.0000
 25 H      0.5736     1.0000     0.4264     0.8353     0.8353     0.0000
 26 H      0.5803     1.0000     0.4197     0.8501     0.8501     0.0000
 27 O      8.8629     8.0000    -0.8629     1.7415     1.7415     0.0000
 28 H      0.5780     1.0000     0.4220     0.8491     0.8491    -0.0000
 29 H      0.5839     1.0000     0.4161     0.8496     0.8496     0.0000
 30 O      8.8449     8.0000    -0.8449     1.6795     1.6795     0.0000
 31 H      0.5754     1.0000     0.4246     0.8436     0.8436    -0.0000
 32 H      0.5712     1.0000     0.4288     0.8664     0.8664    -0.0000
 33 O      8.8368     8.0000    -0.8368     1.7573     1.7573    -0.0000
 34 H      0.5657     1.0000     0.4343     0.8253     0.8253    -0.0000
 35 H      0.5718     1.0000     0.4282     0.8380     0.8380    -0.0000

  Mayer bond orders larger than 0.1
B(  0-O ,  1-H ) :   0.8320 B(  0-O ,  2-H ) :   0.7770 B(  3-O ,  4-H ) :   0.8291 
B(  3-O ,  5-H ) :   0.8178 B(  6-O ,  7-H ) :   0.7775 B(  6-O ,  8-H ) :   0.8323 
B(  9-O , 10-H ) :   0.7820 B(  9-O , 11-H ) :   0.8325 B( 12-O , 13-H ) :   0.8233 
B( 12-O , 14-H ) :   0.8140 B( 15-O , 16-H ) :   0.7951 B( 15-O , 17-H ) :   0.8009 
B( 18-O , 19-H ) :   0.7990 B( 18-O , 20-H ) :   0.7988 B( 21-O , 22-H ) :   0.8021 
B( 21-O , 23-H ) :   0.7970 B( 24-O , 25-H ) :   0.8293 B( 24-O , 26-H ) :   0.8178 
B( 27-O , 28-H ) :   0.7769 B( 27-O , 29-H ) :   0.8336 B( 30-O , 31-H ) :   0.7948 
B( 30-O , 32-H ) :   0.8000 B( 33-O , 34-H ) :   0.8219 B( 33-O , 35-H ) :   0.8172 


-------
TIMINGS
-------

Total SCF time: 0 days 0 hours 17 min 3 sec 

Total time                  ....    1023.798 sec
Sum of individual times     ....     936.907 sec  ( 91.5%)

Fock matrix formation       ....     855.831 sec  ( 83.6%)
  Coulomb formation         ....     767.239 sec  ( 89.6% of F)
  Split-RI-J                ....      32.391 sec  (  3.8% of F)
  Chain of spheres X        ....     825.626 sec  ( 96.5% of F)
  COS-X 1 center corr.      ....       0.000 sec  (  0.0% of F)
  XC integration            ....      88.511 sec  ( 10.3% of F)
    Basis function eval.    ....      36.223 sec  ( 40.9% of XC)
    Density eval.           ....      14.843 sec  ( 16.8% of XC)
    XC-Functional eval.     ....       7.192 sec  (  8.1% of XC)
    XC-Potential eval.      ....      29.076 sec  ( 32.9% of XC)
Diagonalization             ....       0.647 sec  (  0.1%)
Density matrix formation    ....       0.100 sec  (  0.0%)
Population analysis         ....       0.544 sec  (  0.1%)
Initial guess               ....      15.665 sec  (  1.5%)
Orbital Transformation      ....       0.000 sec  (  0.0%)
Orbital Orthonormalization  ....       0.000 sec  (  0.0%)
DIIS solution               ....       0.200 sec  (  0.0%)
SOSCF solution              ....       0.505 sec  (  0.0%)
Grid generation             ....      23.041 sec  (  2.3%)
COSMO(total)                ....      40.373 sec  (  3.9%)
   Initialization           ....       2.110 sec  (  5.2% of COSMO)
   Potential evaluation     ....      22.786 sec  ( 56.4% of COSMO)
   Charge calculation       ....       1.096 sec  (  2.7% of COSMO)
   Fock-Matrix contrib.     ....      15.204 sec  ( 37.7% of COSMO)
   Outer-lying charge       ....       0.915 sec  (  2.3% of COSMO)

Entering the calculation of the dispersion correction...

Checking the input atom types...

Done


-------------------------------------------------------------------------------
                          DFT DISPERSION CORRECTION                            
                                                                               
                                DFTD3 V2.1  Rev 6                               
                              USING zero damping                               
-------------------------------------------------------------------------------
The omegaB97X-D3 functional is recognized. Fit by Chai et al.
Active option DFTDOPT                   ...         3   

molecular C6(AA) [au] = 6407.277354 


            DFT-D V3
 parameters
 s6 scaling factor         :     1.0000 
 rs6 scaling factor        :     1.2810 
 s8 scaling factor         :     1.0000 
 rs8 scaling factor        :     1.0940 
 Damping factor alpha6     :    14.0000 
 Damping factor alpha8     :    16.0000 
 ad hoc parameters k1-k3   :    16.0000     1.3333    -4.0000 

 Edisp/kcal,au: -13.919967026474  -0.022182877099 
 E6   /kcal   :  -7.537591259 
 E8   /kcal   :  -6.382375767 
 % E8         :  45.850509238 

-------------------------   ----------------
Dispersion correction           -0.022182877
-------------------------   ----------------


-------------------------   --------------------
FINAL SINGLE POINT ENERGY      -917.523933630818
-------------------------   --------------------


                            ***************************************
                            *     ORCA property calculations      *
                            ***************************************

                                    ---------------------
                                    Active property flags
                                    ---------------------
   (+) Dipole Moment


------------------------------------------------------------------------------
                       ORCA ELECTRIC PROPERTIES CALCULATION
------------------------------------------------------------------------------

Dipole Moment Calculation                       ... on
Quadrupole Moment Calculation                   ... off
Polarizability Calculation                      ... off
GBWName                                         ... 2_wb98x-ma-def2-TZVP-SMD_onB3LYP_SMD_12_waters.gbw
Electron density file                           ... 2_wb98x-ma-def2-TZVP-SMD_onB3LYP_SMD_12_waters.scfp.tmp

-------------
DIPOLE MOMENT
-------------
                                X             Y             Z
Electronic contribution:     -0.03023       0.02282       0.06205
Nuclear contribution   :     -0.04943      -0.00289      -0.03415
                        -----------------------------------------
Total Dipole Moment    :     -0.07966       0.01992       0.02789
                        -----------------------------------------
Magnitude (a.u.)       :      0.08672
Magnitude (Debye)      :      0.22043


Timings for individual modules:

Sum of individual times         ...     1026.861 sec (=  17.114 min)
GTO integral calculation        ...        0.733 sec (=   0.012 min)   0.1 %
SCF iterations                  ...     1026.128 sec (=  17.102 min)  99.9 %
                             ****ORCA TERMINATED NORMALLY****
TOTAL RUN TIME: 0 days 0 hours 17 minutes 7 seconds 296 msec
cp: cannot stat /scratch/slurm-2199245/*.{prop}: No such file or directory
