16
Energy:   -378.56787175
Na  -0.62277575  -0.37703728   0.54940800
O    0.95688422   1.28861392   0.94484195
H    1.64973142   1.50994737   0.32258307
H    1.05447062   1.92829306   1.65019245
O   -0.63604476  -1.78881593   2.38780020
H   -1.20476744  -2.53447419   2.57958167
H    0.03357738  -1.81568993   3.07125892
O   -2.71141716   0.62113030   0.70777988
H   -3.04037598   1.37324301   0.21549499
H   -3.43615919   0.37492512   1.28255275
O    2.19266360   0.60949527  -2.34876593
H    2.12532097   1.39538969  -2.89104519
H    3.00118292   0.18673169  -2.63824704
O    0.05400600  -0.89236477  -1.58729453
H    0.80501146  -0.39647148  -1.91335048
H   -0.21340115  -1.43727396  -2.32742914
