16
Energy:   -378.67627422
Na   0.13204240  -0.51573517  -0.82646886
O    2.20628692  -0.75675786  -1.90020501
H    2.90736770  -1.38124624  -1.71384017
H    2.63033703  -0.06398946  -2.40664879
O   -0.59592787   1.68555164   2.74728862
H    0.12392893   1.92999332   3.32891246
H   -1.38208658   2.00190580   3.19238005
O    0.18383191  -1.25247355   1.38314320
H   -0.09571801  -0.73409999   2.13771098
H    0.39204670  -2.11298697   1.74700458
O   -1.31320419  -1.30519236  -2.47147576
H   -2.23819271  -1.52623223  -2.36298861
H   -1.12382426  -1.50806052  -3.38756069
O   -0.53722127   1.52142001  -0.01590695
H   -0.59150343   1.60370457   0.93620363
H   -0.65247100   2.41434644  -0.34091733
