16
Energy:   -378.28555938
Na   0.88063424   0.23525038   0.40083339
O   -0.54016070  -1.56053844   0.14011868
H   -1.36143007  -1.34830292  -0.30339518
H   -0.53015881  -2.51677144   0.18195483
O    2.96759257  -0.23732566  -0.50742791
H    3.14672547  -0.39184134  -1.43493433
H    3.79843647  -0.42042927  -0.06878986
O   -0.32752392   1.66689336  -1.01150882
H   -1.14903079   1.38835002  -1.41619626
H   -0.20433585   2.56685544  -1.31337769
O    1.01221922   0.94820434   2.61501622
H    1.04631387   0.38681649   3.38955678
H    0.84966984   1.82556352   2.96149916
O   -2.83601915  -0.77781039  -1.13874182
H   -3.20570860  -1.37488779  -1.78917255
H   -3.59805724  -0.38485649  -0.71316337
