16
Energy:   -378.29822131
Na  -0.07583541  -0.47926939   0.77988155
O   -1.91951249  -1.69813969   1.55896968
H   -2.08949512  -2.00093922   2.45096195
H   -2.63196921  -2.07040276   1.03929914
O    0.14667532   1.64018311  -2.70542053
H   -0.64291068   2.07745716  -3.02413230
H    0.85329684   2.00003997  -3.24153704
O    0.36117725  -0.81335497  -1.44230594
H    0.50988234  -1.56368627  -2.01773759
H    0.28083515  -0.06733220  -2.03663499
O   -0.25144928   1.84101400   0.59064630
H   -0.47276299   2.51123712   1.23721653
H   -0.06164846   2.33212014  -0.20874238
O    1.67581761  -1.12795335   2.13758965
H    2.24664062  -0.54972082   2.64359368
H    2.05571277  -1.99922783   2.25069269
