16
Energy:   -379.00251020
Na   0.61715234   0.09133505  -0.70632076
O    1.03294712   2.03451189  -1.88762987
H    1.61110083   2.35936732  -2.57787554
H    0.60152085   2.81828052  -1.54732124
O   -1.78718624  -0.69625483   2.33733812
H   -2.41608103  -0.36274136   2.97725370
H   -1.77700809  -1.64247894   2.48151918
O    0.56154537   0.59878232   1.58309870
H    1.01399403   0.95784672   2.34637768
H   -0.23430780   0.20409364   1.93956809
O    2.10249730  -1.54082637  -1.44301553
H    2.91926477  -1.83571652  -1.04032142
H    2.03217463  -2.05497652  -2.24733897
O   -1.71739136  -0.29573225  -0.77651440
H   -2.38607963  -0.33552504  -1.46025731
H   -2.20917461  -0.34446915   0.04324520
