16
Energy:   -378.34634977
Na  -0.34463066  -0.49810303  -0.78108375
O   -1.77387177   0.98338800  -1.92419353
H   -1.51654776   1.87079989  -2.17422620
H   -2.70515633   0.93382633  -2.13979632
O   -0.93849667  -0.95060356   1.43815837
H   -1.44888882  -1.67867124   1.79262860
H   -0.67982521  -0.44219093   2.20681793
O    1.48060015   0.71116391  -0.02514677
H    1.44785329   0.92932426   0.90628522
H    2.34329867   1.01098028  -0.31166595
O    1.30467684   1.37277804   2.62535052
H    1.91217646   1.09223386   3.30979995
H    1.21676721   2.31709909   2.75481674
O   -0.15743102  -2.26283497  -2.29114848
H    0.20481233  -3.13722116  -2.14810862
H   -0.33829253  -2.22871156  -3.23048684
