16
Energy:   -379.01047760
Na   0.21189656  -0.26121949  -0.99276600
O   -1.50121856   0.48191471   0.38911606
H   -1.34801281   0.25512418   1.30635426
H   -2.38167040   0.85731429   0.37855348
O    0.83982840   1.80685657  -1.85707404
H    0.18081708   2.48035573  -2.02540351
H    1.66472046   2.20260187  -2.13844673
O   -0.11784418  -1.76424537  -2.71050923
H   -0.27785626  -2.70759510  -2.68368996
H   -0.19402750  -1.53413843  -3.63651071
O    1.58309339  -0.64942578   0.90856087
H    1.23465347  -0.33327913   1.74215116
H    2.43363557  -1.02748813   1.13189629
O   -0.73279575   0.05300730   3.01705574
H   -0.73858276   0.82867710   3.57788969
H   -0.87139463  -0.67884697   3.61823086
