
                                 *****************
                                 * O   R   C   A *
                                 *****************

           --- An Ab Initio, DFT and Semiempirical electronic structure package ---

                  #######################################################
                  #                        -***-                        #
                  #          Department of theory and spectroscopy      #
                  #               Directorship: Frank Neese             #
                  #        Max Planck Institute fuer Kohlenforschung    #
                  #                Kaiser Wilhelm Platz 1               #
                  #                 D-45470 Muelheim/Ruhr               #
                  #                      Germany                        #
                  #                                                     #
                  #                  All rights reserved                #
                  #                        -***-                        #
                  #######################################################


                         Program Version 4.2.0 -  RELEASE  -


 With contributions from (in alphabetic order):
   Daniel Aravena         : Magnetic Suceptibility
   Michael Atanasov       : Ab Initio Ligand Field Theory (pilot matlab implementation)
   Alexander A. Auer      : GIAO ZORA, VPT2
   Ute Becker             : Parallelization
   Giovanni Bistoni       : ED, misc. LED, open-shell LED, HFLED
   Martin Brehm           : Molecular dynamics
   Dmytro Bykov           : SCF Hessian
   Vijay G. Chilkuri      : MRCI spin determinant printing, contributions to CSF-ICE
   Dipayan Datta          : RHF DLPNO-CCSD density
   Achintya Kumar Dutta   : EOM-CC, STEOM-CC
   Dmitry Ganyushin       : Spin-Orbit,Spin-Spin,Magnetic field MRCI
   Miquel Garcia          : C-PCM Hessian, Gaussian charge scheme
   Yang Guo               : DLPNO-NEVPT2, CIM, IAO-localization
   Andreas Hansen         : Spin unrestricted coupled pair/coupled cluster methods
   Benjamin Helmich-Paris : CASSCF linear response (MC-RPA)
   Lee Huntington         : MR-EOM, pCC
   Robert Izsak           : Overlap fitted RIJCOSX, COSX-SCS-MP3, EOM
   Christian Kollmar      : KDIIS, OOCD, Brueckner-CCSD(T), CCSD density
   Simone Kossmann        : Meta GGA functionals, TD-DFT gradient, OOMP2, MP2 Hessian
   Martin Krupicka        : AUTO-CI
   Lucas Lang             : DCDCAS
   Dagmar Lenk            : GEPOL surface, SMD
   Dimitrios Liakos       : Extrapolation schemes; Compound Job, initial MDCI parallelization
   Dimitrios Manganas     : Further ROCIS development; embedding schemes
   Dimitrios Pantazis     : SARC Basis sets
   Taras Petrenko         : DFT Hessian,TD-DFT gradient, ASA, ECA, R-Raman, ABS, FL, XAS/XES, NRVS
   Peter Pinski           : DLPNO-MP2, DLPNO-MP2 Gradient
   Christoph Reimann      : Effective Core Potentials
   Marius Retegan         : Local ZFS, SOC
   Christoph Riplinger    : Optimizer, TS searches, QM/MM, DLPNO-CCSD(T), (RO)-DLPNO pert. Triples
   Tobias Risthaus        : Range-separated hybrids, TD-DFT gradient, RPA, STAB
   Michael Roemelt        : Original ROCIS implementation
   Masaaki Saitow         : Open-shell DLPNO-CCSD energy and density
   Barbara Sandhoefer     : DKH picture change effects
   Avijit Sen             : IP-ROCIS
   Kantharuban Sivalingam : CASSCF convergence, NEVPT2, FIC-MRCI
   Bernardo de Souza      : ESD, SOC TD-DFT
   Georgi Stoychev        : AutoAux, RI-MP2 NMR
   Willem Van den Heuvel  : Paramagnetic NMR
   Boris Wezisla          : Elementary symmetry handling
   Frank Wennmohs         : Technical directorship


 We gratefully acknowledge several colleagues who have allowed us to
 interface, adapt or use parts of their codes:
   Stefan Grimme, W. Hujo, H. Kruse,             : VdW corrections, initial TS optimization,
                  C. Bannwarth                     DFT functionals, gCP, sTDA/sTD-DF
   Ed Valeev, F. Pavosevic, A. Kumar             : LibInt (2-el integral package), F12 methods
   Garnet Chan, S. Sharma, J. Yang, R. Olivares  : DMRG
   Ulf Ekstrom                                   : XCFun DFT Library
   Mihaly Kallay                                 : mrcc  (arbitrary order and MRCC methods)
   Andreas Klamt, Michael Diedenhofen            : otool_cosmo (COSMO solvation model)
   Jiri Pittner, Ondrej Demel                    : Mk-CCSD
   Frank Weinhold                                : gennbo (NPA and NBO analysis)
   Christopher J. Cramer and Donald G. Truhlar   : smd solvation model
   Lars Goerigk                                  : TD-DFT with DH, B97 family of functionals
   V. Asgeirsson, H. Jonsson                     : NEB implementation
   FAccTs GmbH                                   : IRC, NEB, NEB-TS, Multilevel, MM, QM/MM, CI optimization
   S Lehtola, MJT Oliveira, MAL Marques          : LibXC Library


 Your calculation uses the libint2 library for the computation of 2-el integrals
 For citations please refer to: http://libint.valeyev.net

 Your ORCA version has been built with support for libXC version: 4.2.3
 For citations please refer to: https://tddft.org/programs/libxc/

 This ORCA versions uses:
   CBLAS   interface :  Fast vector & matrix operations
   LAPACKE interface :  Fast linear algebra routines
   SCALAPACK package :  Parallel linear algebra routines


----- Orbital basis set information -----
Your calculation utilizes the basis: def2-TZVP
   F. Weigend and R. Ahlrichs, Phys. Chem. Chem. Phys. 7, 3297 (2005).

================================================================================
                                        WARNINGS
                       Please study these warnings very carefully!
================================================================================


WARNING: The frozen-core approximation for MP2-gradient calculations is turned on by default.

INFO   : the flag for use of LIBINT has been found!

================================================================================
                                       INPUT FILE
================================================================================
NAME = 12h2o.su.etal.mol1,3,5,6,7,10,11-orca.engrad-mp2.def2tzvp.frozencore.inp
|  1> # 12h2o.su.etal.mol1,3,5,6,7,10,11
|  2> ! MP2 def2-TZVP EnGrad TightSCF
|  3> 
|  4> %pal
|  5>     nprocs 6
|  6> end
|  7> 
|  8> %maxcore 8000
|  9> 
| 10> %scf
| 11>     ConvForced true
| 12> end
| 13> 
| 14> *xyz 0 1
| 15> O  -1.794470000  -0.923410000   2.768350000
| 16> H  -2.338250000  -1.359750000   3.430940000
| 17> H  -0.879480000  -1.303000000   2.865760000
| 18> O  -1.752130000  -0.741530000  -2.896280000
| 19> H  -2.036450000  -0.920500000  -1.984040000
| 20> H  -0.921210000  -1.242140000  -2.984230000
| 21> O   0.885520000  -1.737840000   0.052730000
| 22> H   1.284090000  -0.839590000   0.017130000
| 23> H   1.032320000  -2.090180000  -0.841890000
| 24> O   1.737840000   0.885520000  -0.052730000
| 25> H   2.090180000   1.032320000   0.841890000
| 26> H   0.839590000   1.284090000  -0.017130000
| 27> O  -1.737840000  -0.885520000  -0.052730000
| 28> H  -2.090180000  -1.032320000   0.841890000
| 29> H  -0.839590000  -1.284090000  -0.017130000
| 30> O  -0.923410000   1.794470000  -2.768350000
| 31> H  -1.359750000   2.338250000  -3.430940000
| 32> H  -1.303000000   0.879480000  -2.865760000
| 33> O  -0.741530000   1.752130000   2.896280000
| 34> H  -0.920500000   2.036450000   1.984040000
| 35> H  -1.242140000   0.921210000   2.984230000
| 36> *
| 37> 
| 38>                          ****END OF INPUT****
================================================================================

                     *******************************
                     * Energy+Gradient Calculation *
                     *******************************

---------------------------------
CARTESIAN COORDINATES (ANGSTROEM)
---------------------------------
  O     -1.794470   -0.923410    2.768350
  H     -2.338250   -1.359750    3.430940
  H     -0.879480   -1.303000    2.865760
  O     -1.752130   -0.741530   -2.896280
  H     -2.036450   -0.920500   -1.984040
  H     -0.921210   -1.242140   -2.984230
  O      0.885520   -1.737840    0.052730
  H      1.284090   -0.839590    0.017130
  H      1.032320   -2.090180   -0.841890
  O      1.737840    0.885520   -0.052730
  H      2.090180    1.032320    0.841890
  H      0.839590    1.284090   -0.017130
  O     -1.737840   -0.885520   -0.052730
  H     -2.090180   -1.032320    0.841890
  H     -0.839590   -1.284090   -0.017130
  O     -0.923410    1.794470   -2.768350
  H     -1.359750    2.338250   -3.430940
  H     -1.303000    0.879480   -2.865760
  O     -0.741530    1.752130    2.896280
  H     -0.920500    2.036450    1.984040
  H     -1.242140    0.921210    2.984230

----------------------------
CARTESIAN COORDINATES (A.U.)
----------------------------
  NO LB      ZA    FRAG     MASS         X           Y           Z
   0 O     8.0000    0    15.999   -3.391057   -1.744992    5.231423
   1 H     1.0000    0     1.008   -4.418652   -2.569555    6.483537
   2 H     1.0000    0     1.008   -1.661976   -2.462313    5.415502
   3 O     8.0000    0    15.999   -3.311046   -1.401289   -5.473176
   4 H     1.0000    0     1.008   -3.848333   -1.739493   -3.749292
   5 H     1.0000    0     1.008   -1.740835   -2.347304   -5.639377
   6 O     8.0000    0    15.999    1.673390   -3.284042    0.099645
   7 H     1.0000    0     1.008    2.426578   -1.586595    0.032371
   8 H     1.0000    0     1.008    1.950802   -3.949868   -1.590942
   9 O     8.0000    0    15.999    3.284042    1.673390   -0.099645
  10 H     1.0000    0     1.008    3.949868    1.950802    1.590942
  11 H     1.0000    0     1.008    1.586595    2.426578   -0.032371
  12 O     8.0000    0    15.999   -3.284042   -1.673390   -0.099645
  13 H     1.0000    0     1.008   -3.949868   -1.950802    1.590942
  14 H     1.0000    0     1.008   -1.586595   -2.426578   -0.032371
  15 O     8.0000    0    15.999   -1.744992    3.391057   -5.231423
  16 H     1.0000    0     1.008   -2.569555    4.418652   -6.483537
  17 H     1.0000    0     1.008   -2.462313    1.661976   -5.415502
  18 O     8.0000    0    15.999   -1.401289    3.311046    5.473176
  19 H     1.0000    0     1.008   -1.739493    3.848333    3.749292
  20 H     1.0000    0     1.008   -2.347304    1.740835    5.639377

--------------------------------
INTERNAL COORDINATES (ANGSTROEM)
--------------------------------
 O      0   0   0     0.000000000000     0.00000000     0.00000000
 H      1   0   0     0.961828878803     0.00000000     0.00000000
 H      1   2   0     0.995381322057   106.21731035     0.00000000
 O      1   2   3     5.667707300743   135.01509642   116.29625730
 H      4   1   2     0.972136791249    18.92045113     9.26599691
 H      4   1   2     0.974050112161    94.59568686   248.81379742
 O      3   1   2     3.349245975813   116.85538783   143.82107740
 H      7   3   1     0.983350632989    97.20424340    87.67157074
 H      7   3   1     0.972645187106   154.03893681   304.15813038
 O      8   7   3     1.785153773264   170.81379649   301.36914736
 H     10   8   7     0.972645187106   101.65007623   109.44492584
 H     10   8   7     0.983350632989    99.09581498     3.33484705
 O      5   4   1     1.954571525578   151.55104644   356.10627670
 H     13   5   4     0.972645187106   148.29772527   173.62852352
 H     13   5   4     0.983350632989    99.67573411   310.71905253
 O      4   1   2     2.671037050155    89.13575954   145.68356082
 H     16   4   1     0.961828878803   111.28648995   220.47225898
 H     16   4   1     0.995381322057     5.27275451   236.70454430
 O      1   2   3     2.878117964938   126.72240291   256.40918860
 H     19   1   2     0.972136791249    99.37069922   223.07499144
 H     19   1   2     0.974050112161    12.30570018   335.59052045

---------------------------
INTERNAL COORDINATES (A.U.)
---------------------------
 O      0   0   0     0.000000000000     0.00000000     0.00000000
 H      1   0   0     1.817593168635     0.00000000     0.00000000
 H      1   2   0     1.880998097508   106.21731035     0.00000000
 O      1   2   3    10.710414605631   135.01509642   116.29625730
 H      4   1   2     1.837072300170    18.92045113     9.26599691
 H      4   1   2     1.840687952699    94.59568686   248.81379742
 O      3   1   2     6.329157649425   116.85538783   143.82107740
 H      7   3   1     1.858263389967    97.20424340    87.67157074
 H      7   3   1     1.838033029106   154.03893681   304.15813038
 O      8   7   3     3.373451738406   170.81379649   301.36914736
 H     10   8   7     1.838033029106   101.65007623   109.44492584
 H     10   8   7     1.858263389967    99.09581498     3.33484705
 O      5   4   1     3.693604892503   151.55104644   356.10627670
 H     13   5   4     1.838033029106   148.29772527   173.62852352
 H     13   5   4     1.858263389967    99.67573411   310.71905253
 O      4   1   2     5.047528518350    89.13575954   145.68356082
 H     16   4   1     1.817593168635   111.28648995   220.47225898
 H     16   4   1     1.880998097508     5.27275451   236.70454430
 O      1   2   3     5.438854734852   126.72240291   256.40918860
 H     19   1   2     1.837072300170    99.37069922   223.07499144
 H     19   1   2     1.840687952699    12.30570018   335.59052045

---------------------
BASIS SET INFORMATION
---------------------
There are 2 groups of distinct atoms

 Group   1 Type O   : 11s6p2d1f contracted to 5s3p2d1f pattern {62111/411/11/1}
 Group   2 Type H   : 5s1p contracted to 3s1p pattern {311/1}

Atom   0O    basis set group =>   1
Atom   1H    basis set group =>   2
Atom   2H    basis set group =>   2
Atom   3O    basis set group =>   1
Atom   4H    basis set group =>   2
Atom   5H    basis set group =>   2
Atom   6O    basis set group =>   1
Atom   7H    basis set group =>   2
Atom   8H    basis set group =>   2
Atom   9O    basis set group =>   1
Atom  10H    basis set group =>   2
Atom  11H    basis set group =>   2
Atom  12O    basis set group =>   1
Atom  13H    basis set group =>   2
Atom  14H    basis set group =>   2
Atom  15O    basis set group =>   1
Atom  16H    basis set group =>   2
Atom  17H    basis set group =>   2
Atom  18O    basis set group =>   1
Atom  19H    basis set group =>   2
Atom  20H    basis set group =>   2


           ************************************************************
           *        Program running with 6 parallel MPI-processes     *
           *              working on a common directory               *
           ************************************************************
------------------------------------------------------------------------------
                           ORCA GTO INTEGRAL CALCULATION
------------------------------------------------------------------------------

                         BASIS SET STATISTICS AND STARTUP INFO

 # of primitive gaussian shells          ...  224
 # of primitive gaussian functions       ...  434
 # of contracted shells                  ...  133
 # of contracted basis functions         ...  301
 Highest angular momentum                ...    3
 Maximum contraction depth               ...    6
 Integral package used                   ... LIBINT
 Integral threshhold            Thresh   ...  2.500e-11
 Primitive cut-off              TCut     ...  2.500e-12


------------------------------ INTEGRAL EVALUATION ----------------------------


 * One electron integrals 
 Pre-screening matrix                    ... done
 Shell pair data                         ... done (   0.002 sec)



           ************************************************************
           *        Program running with 6 parallel MPI-processes     *
           *              working on a common directory               *
           ************************************************************
-------------------------------------------------------------------------------
                                 ORCA SCF
-------------------------------------------------------------------------------

------------
SCF SETTINGS
------------
Hamiltonian:
 Ab initio Hamiltonian  Method          .... Hartree-Fock(GTOs)


General Settings:
 Integral files         IntName         .... 12h2o.su.etal.mol1,3,5,6,7,10,11-orca.engrad-mp2.def2tzvp.frozencore
 Hartree-Fock type      HFTyp           .... RHF
 Total Charge           Charge          ....    0
 Multiplicity           Mult            ....    1
 Number of Electrons    NEL             ....   70
 Basis Dimension        Dim             ....  301
 Nuclear Repulsion      ENuc            ....    351.9627535438 Eh

Convergence Acceleration:
 DIIS                   CNVDIIS         .... on
   Start iteration      DIISMaxIt       ....    12
   Startup error        DIISStart       ....  0.200000
   # of expansion vecs  DIISMaxEq       ....     5
   Bias factor          DIISBfac        ....   1.050
   Max. coefficient     DIISMaxC        ....  10.000
 Newton-Raphson         CNVNR           .... off
 SOSCF                  CNVSOSCF        .... on
   Start iteration      SOSCFMaxIt      ....   150
   Startup grad/error   SOSCFStart      ....  0.003300
 Level Shifting         CNVShift        .... on
   Level shift para.    LevelShift      ....    0.2500
   Turn off err/grad.   ShiftErr        ....    0.0010
 Zerner damping         CNVZerner       .... off
 Static damping         CNVDamp         .... on
   Fraction old density DampFac         ....    0.7000
   Max. Damping (<1)    DampMax         ....    0.9800
   Min. Damping (>=0)   DampMin         ....    0.0000
   Turn off err/grad.   DampErr         ....    0.1000
 Fernandez-Rico         CNVRico         .... off

SCF Procedure:
 Maximum # iterations   MaxIter         ....   125
 SCF integral mode      SCFMode         .... Direct
   Integral package                     .... LIBINT
 Reset frequency        DirectResetFreq ....    20
 Integral Threshold     Thresh          ....  2.500e-11 Eh
 Primitive CutOff       TCut            ....  2.500e-12 Eh

Convergence Tolerance:
 Convergence Check Mode ConvCheckMode   .... Total+1el-Energy
 Convergence forced     ConvForced      .... 1
 Energy Change          TolE            ....  1.000e-08 Eh
 1-El. energy change                    ....  1.000e-05 Eh
 Orbital Gradient       TolG            ....  1.000e-05
 Orbital Rotation angle TolX            ....  1.000e-05
 DIIS Error             TolErr          ....  5.000e-07


Diagonalization of the overlap matrix:
Smallest eigenvalue                        ... 3.674e-03
Time for diagonalization                   ...    0.020 sec
Threshold for overlap eigenvalues          ... 1.000e-08
Number of eigenvalues below threshold      ... 0
Time for construction of square roots      ...    0.014 sec
Total time needed                          ...    0.035 sec

-------------------
DFT GRID GENERATION
-------------------

General Integration Accuracy     IntAcc      ...  4.340
Radial Grid Type                 RadialGrid  ... Gauss-Chebyshev
Angular Grid (max. acc.)         AngularGrid ... Lebedev-110
Angular grid pruning method      GridPruning ... 3 (G Style)
Weight generation scheme         WeightScheme... Becke
Basis function cutoff            BFCut       ...    1.0000e-11
Integration weight cutoff        WCut        ...    1.0000e-14
Grids for H and He will be reduced by one unit

# of grid points (after initial pruning)     ...  23128 (   0.0 sec)
# of grid points (after weights+screening)   ...  21715 (   0.0 sec)
nearest neighbour list constructed           ...    0.0 sec
Grid point re-assignment to atoms done       ...    0.0 sec
Grid point division into batches done        ...    0.0 sec
Reduced shell lists constructed in    0.0 sec

Total number of grid points                  ...    21715
Total number of batches                      ...      350
Average number of points per batch           ...       62
Average number of grid points per atom       ...     1034
Average number of shells per batch           ...    59.97 (45.09%)
Average number of basis functions per batch  ...   118.77 (39.46%)
Average number of large shells per batch     ...    40.52 (67.57%)
Average number of large basis fcns per batch ...    79.55 (66.98%)
Maximum spatial batch extension              ...  15.87, 15.72, 14.40 au
Average spatial batch extension              ...   0.64,  0.65,  0.60 au

Time for grid setup =    0.070 sec

------------------------------
INITIAL GUESS: MODEL POTENTIAL
------------------------------
Loading Hartree-Fock densities                     ... done
Calculating cut-offs                               ... done
Setting up the integral package                    ... done
Initializing the effective Hamiltonian             ... done
Starting the Coulomb interaction                   ... done (   0.0 sec)
Reading the grid                                   ... done
Mapping shells                                     ... done
Starting the XC term evaluation                    ... done (   0.0 sec)
Transforming the Hamiltonian                       ... done (   0.0 sec)
Diagonalizing the Hamiltonian                      ... done (   0.0 sec)
Back transforming the eigenvectors                 ... done (   0.0 sec)
Now organizing SCF variables                       ... done
                      ------------------
                      INITIAL GUESS DONE (   0.2 sec)
                      ------------------
--------------
SCF ITERATIONS
--------------
ITER       Energy         Delta-E        Max-DP      RMS-DP      [F,P]     Damp
               ***  Starting incremental Fock matrix formation  ***
  0   -531.8170686862   0.000000000000 0.04400919  0.00089574  0.3503493 0.7000
  1   -532.0604462599  -0.243377573712 0.02937861  0.00061968  0.2167438 0.7000
                               ***Turning on DIIS***
  2   -532.1893173348  -0.128871074874 0.01644763  0.00034564  0.1635926 0.7000
  3   -533.3559166739  -1.166599339104 0.00762307  0.00015792  0.1218363 0.7000
  4   -533.1198152487   0.236101425189 0.01728715  0.00036629  0.0861956 0.0000
  5   -532.4847844843   0.635030764393 0.00231953  0.00005951  0.0055065 0.0000
                      *** Initiating the SOSCF procedure ***
                           *** Shutting down DIIS ***
                      *** Re-Reading the Fockian *** 
                      *** Removing any level shift *** 
ITER      Energy       Delta-E        Grad      Rot      Max-DP    RMS-DP
  6   -532.44890151   0.0358829758  0.000841  0.000841  0.001576  0.000037
               *** Restarting incremental Fock matrix formation ***
  7   -532.43814793   0.0107535748  0.000281  0.000387  0.000747  0.000016
  8   -532.43815844  -0.0000105066  0.000136  0.000313  0.000596  0.000013
  9   -532.43816098  -0.0000025349  0.000060  0.000040  0.000099  0.000002
 10   -532.43816118  -0.0000002036  0.000011  0.000008  0.000020  0.000000
                  ***Gradient check signals convergence***
              ***Rediagonalizing the Fockian in SOSCF/NRSCF***

               *****************************************************
               *                     SUCCESS                       *
               *           SCF CONVERGED AFTER  11 CYCLES          *
               *****************************************************


----------------
TOTAL SCF ENERGY
----------------

Total Energy       :         -532.43816118 Eh          -14488.37894 eV

Components:
Nuclear Repulsion  :          351.96275354 Eh            9577.39343 eV
Electronic Energy  :         -884.40091473 Eh          -24065.77237 eV
One Electron Energy:        -1436.69168350 Eh          -39094.36823 eV
Two Electron Energy:          552.29076877 Eh           15028.59586 eV

Virial components:
Potential Energy   :        -1064.15356762 Eh          -28957.09072 eV
Kinetic Energy     :          531.71540643 Eh           14468.71178 eV
Virial Ratio       :            2.00135929


---------------
SCF CONVERGENCE
---------------

  Last Energy change         ...   -5.8351e-09  Tolerance :   1.0000e-08
  Last MAX-Density change    ...    5.3480e-06  Tolerance :   1.0000e-07
  Last RMS-Density change    ...    1.2110e-07  Tolerance :   5.0000e-09
  Last Orbital Gradient      ...    1.7377e-06  Tolerance :   1.0000e-05
  Last Orbital Rotation      ...    2.2391e-06  Tolerance :   1.0000e-05

             **** THE GBW FILE WAS UPDATED (12h2o.su.etal.mol1,3,5,6,7,10,11-orca.engrad-mp2.def2tzvp.frozencore.gbw) ****
             **** DENSITY FILE WAS UPDATED (12h2o.su.etal.mol1,3,5,6,7,10,11-orca.engrad-mp2.def2tzvp.frozencore.scfp) ****
             **** ENERGY FILE WAS UPDATED (12h2o.su.etal.mol1,3,5,6,7,10,11-orca.engrad-mp2.def2tzvp.frozencore.en.tmp) ****
             **** THE GBW FILE WAS UPDATED (12h2o.su.etal.mol1,3,5,6,7,10,11-orca.engrad-mp2.def2tzvp.frozencore.gbw) ****
             **** DENSITY FILE WAS UPDATED (12h2o.su.etal.mol1,3,5,6,7,10,11-orca.engrad-mp2.def2tzvp.frozencore.scfp) ****
----------------
ORBITAL ENERGIES
----------------

  NO   OCC          E(Eh)            E(eV) 
   0   2.0000     -20.616977      -561.0165 
   1   2.0000     -20.591826      -560.3321 
   2   2.0000     -20.575245      -559.8809 
   3   2.0000     -20.562485      -559.5337 
   4   2.0000     -20.547637      -559.1296 
   5   2.0000     -20.539668      -558.9128 
   6   2.0000     -20.507998      -558.0510 
   7   2.0000      -1.397186       -38.0194 
   8   2.0000      -1.375819       -37.4379 
   9   2.0000      -1.358179       -36.9579 
  10   2.0000      -1.352005       -36.7899 
  11   2.0000      -1.329819       -36.1862 
  12   2.0000      -1.323820       -36.0230 
  13   2.0000      -1.289862       -35.0989 
  14   2.0000      -0.762815       -20.7573 
  15   2.0000      -0.729992       -19.8641 
  16   2.0000      -0.727546       -19.7975 
  17   2.0000      -0.716245       -19.4900 
  18   2.0000      -0.702332       -19.1114 
  19   2.0000      -0.699765       -19.0416 
  20   2.0000      -0.677419       -18.4335 
  21   2.0000      -0.638764       -17.3817 
  22   2.0000      -0.622929       -16.9508 
  23   2.0000      -0.605116       -16.4660 
  24   2.0000      -0.592231       -16.1154 
  25   2.0000      -0.583833       -15.8869 
  26   2.0000      -0.563324       -15.3288 
  27   2.0000      -0.545833       -14.8529 
  28   2.0000      -0.536852       -14.6085 
  29   2.0000      -0.528986       -14.3945 
  30   2.0000      -0.514387       -13.9972 
  31   2.0000      -0.496070       -13.4987 
  32   2.0000      -0.494490       -13.4558 
  33   2.0000      -0.489175       -13.3111 
  34   2.0000      -0.458567       -12.4782 
  35   0.0000       0.085583         2.3288 
  36   0.0000       0.111432         3.0322 
  37   0.0000       0.127984         3.4826 
  38   0.0000       0.159700         4.3457 
  39   0.0000       0.179705         4.8900 
  40   0.0000       0.181268         4.9326 
  41   0.0000       0.208331         5.6690 
  42   0.0000       0.223540         6.0828 
  43   0.0000       0.239558         6.5187 
  44   0.0000       0.287585         7.8256 
  45   0.0000       0.294721         8.0198 
  46   0.0000       0.312751         8.5104 
  47   0.0000       0.328954         8.9513 
  48   0.0000       0.353090         9.6081 
  49   0.0000       0.433772        11.8035 
  50   0.0000       0.460473        12.5301 
  51   0.0000       0.480467        13.0742 
  52   0.0000       0.496321        13.5056 
  53   0.0000       0.511103        13.9078 
  54   0.0000       0.511898        13.9294 
  55   0.0000       0.520459        14.1624 
  56   0.0000       0.533544        14.5185 
  57   0.0000       0.552547        15.0356 
  58   0.0000       0.560032        15.2392 
  59   0.0000       0.567777        15.4500 
  60   0.0000       0.583202        15.8697 
  61   0.0000       0.592933        16.1345 
  62   0.0000       0.604014        16.4361 
  63   0.0000       0.615402        16.7459 
  64   0.0000       0.617678        16.8079 
  65   0.0000       0.626140        17.0381 
  66   0.0000       0.644816        17.5463 
  67   0.0000       0.663261        18.0482 
  68   0.0000       0.673737        18.3333 
  69   0.0000       0.689467        18.7613 
  70   0.0000       0.703988        19.1565 
  71   0.0000       0.706692        19.2301 
  72   0.0000       0.728230        19.8161 
  73   0.0000       0.729272        19.8445 
  74   0.0000       0.758188        20.6314 
  75   0.0000       0.769483        20.9387 
  76   0.0000       0.784524        21.3480 
  77   0.0000       0.793120        21.5819 
  78   0.0000       0.806085        21.9347 
  79   0.0000       0.810259        22.0483 
  80   0.0000       0.835164        22.7260 
  81   0.0000       0.856186        23.2980 
  82   0.0000       0.859415        23.3859 
  83   0.0000       0.898460        24.4483 
  84   0.0000       0.942279        25.6407 
  85   0.0000       0.973632        26.4939 
  86   0.0000       0.993440        27.0329 
  87   0.0000       1.028558        27.9885 
  88   0.0000       1.040099        28.3025 
  89   0.0000       1.068836        29.0845 
  90   0.0000       1.096666        29.8418 
  91   0.0000       1.349529        36.7225 
  92   0.0000       1.353884        36.8411 
  93   0.0000       1.385250        37.6946 
  94   0.0000       1.393770        37.9264 
  95   0.0000       1.400331        38.1050 
  96   0.0000       1.403261        38.1847 
  97   0.0000       1.422995        38.7217 
  98   0.0000       1.436204        39.0811 
  99   0.0000       1.453626        39.5552 
 100   0.0000       1.476698        40.1830 
 101   0.0000       1.479157        40.2499 
 102   0.0000       1.505400        40.9640 
 103   0.0000       1.519862        41.3575 
 104   0.0000       1.522942        41.4414 
 105   0.0000       1.550601        42.1940 
 106   0.0000       1.556540        42.3556 
 107   0.0000       1.578866        42.9631 
 108   0.0000       1.587077        43.1866 
 109   0.0000       1.605503        43.6880 
 110   0.0000       1.622964        44.1631 
 111   0.0000       1.659236        45.1501 
 112   0.0000       1.801235        49.0141 
 113   0.0000       1.805751        49.1370 
 114   0.0000       1.810835        49.2753 
 115   0.0000       1.829291        49.7775 
 116   0.0000       1.840883        50.0930 
 117   0.0000       1.855717        50.4966 
 118   0.0000       1.872943        50.9654 
 119   0.0000       1.886882        51.3447 
 120   0.0000       1.948066        53.0096 
 121   0.0000       1.955087        53.2006 
 122   0.0000       1.986983        54.0686 
 123   0.0000       1.993406        54.2433 
 124   0.0000       2.005071        54.5607 
 125   0.0000       2.024596        55.0921 
 126   0.0000       2.057189        55.9790 
 127   0.0000       2.070911        56.3523 
 128   0.0000       2.073097        56.4118 
 129   0.0000       2.096114        57.0382 
 130   0.0000       2.139760        58.2258 
 131   0.0000       2.172046        59.1044 
 132   0.0000       2.189211        59.5715 
 133   0.0000       2.248010        61.1715 
 134   0.0000       2.258830        61.4659 
 135   0.0000       2.284768        62.1717 
 136   0.0000       2.298770        62.5527 
 137   0.0000       2.307981        62.8034 
 138   0.0000       2.315211        63.0001 
 139   0.0000       2.322666        63.2030 
 140   0.0000       2.343273        63.7637 
 141   0.0000       2.357340        64.1465 
 142   0.0000       2.366183        64.3871 
 143   0.0000       2.376952        64.6801 
 144   0.0000       2.393996        65.1440 
 145   0.0000       2.403132        65.3925 
 146   0.0000       2.417865        65.7934 
 147   0.0000       2.450636        66.6852 
 148   0.0000       2.456937        66.8566 
 149   0.0000       2.476082        67.3776 
 150   0.0000       2.509541        68.2881 
 151   0.0000       2.536786        69.0295 
 152   0.0000       2.559545        69.6488 
 153   0.0000       2.580779        70.2266 
 154   0.0000       2.589601        70.4666 
 155   0.0000       2.603947        70.8570 
 156   0.0000       2.608869        70.9909 
 157   0.0000       2.621186        71.3261 
 158   0.0000       2.636537        71.7438 
 159   0.0000       2.653353        72.2014 
 160   0.0000       2.665435        72.5302 
 161   0.0000       2.675798        72.8122 
 162   0.0000       2.695240        73.3412 
 163   0.0000       2.699269        73.4508 
 164   0.0000       2.715811        73.9010 
 165   0.0000       2.728223        74.2387 
 166   0.0000       2.775822        75.5340 
 167   0.0000       2.831562        77.0507 
 168   0.0000       2.883717        78.4699 
 169   0.0000       2.909135        79.1616 
 170   0.0000       2.920263        79.4644 
 171   0.0000       2.939990        80.0012 
 172   0.0000       2.943797        80.1048 
 173   0.0000       2.947025        80.1926 
 174   0.0000       2.968144        80.7673 
 175   0.0000       2.979068        81.0646 
 176   0.0000       2.994594        81.4870 
 177   0.0000       3.000790        81.6556 
 178   0.0000       3.017964        82.1230 
 179   0.0000       3.044044        82.8327 
 180   0.0000       3.066857        83.4534 
 181   0.0000       3.092394        84.1483 
 182   0.0000       3.118535        84.8597 
 183   0.0000       3.123832        85.0038 
 184   0.0000       3.146060        85.6086 
 185   0.0000       3.161988        86.0421 
 186   0.0000       3.192929        86.8840 
 187   0.0000       3.247307        88.3637 
 188   0.0000       3.252098        88.4941 
 189   0.0000       3.268009        88.9271 
 190   0.0000       3.276021        89.1451 
 191   0.0000       3.314492        90.1919 
 192   0.0000       3.374320        91.8199 
 193   0.0000       3.396658        92.4278 
 194   0.0000       3.478038        94.6422 
 195   0.0000       3.527983        96.0013 
 196   0.0000       3.971157       108.0607 
 197   0.0000       4.019208       109.3682 
 198   0.0000       4.045818       110.0923 
 199   0.0000       4.054709       110.3342 
 200   0.0000       4.080900       111.0469 
 201   0.0000       4.119032       112.0846 
 202   0.0000       4.137644       112.5910 
 203   0.0000       4.264774       116.0504 
 204   0.0000       4.278323       116.4191 
 205   0.0000       4.314028       117.3907 
 206   0.0000       4.323673       117.6531 
 207   0.0000       4.331240       117.8590 
 208   0.0000       4.370513       118.9277 
 209   0.0000       4.422910       120.3535 
 210   0.0000       5.497309       149.5894 
 211   0.0000       5.515446       150.0829 
 212   0.0000       5.525536       150.3575 
 213   0.0000       5.542687       150.8242 
 214   0.0000       5.559095       151.2707 
 215   0.0000       5.564830       151.4267 
 216   0.0000       5.592065       152.1678 
 217   0.0000       5.597219       152.3081 
 218   0.0000       5.641312       153.5079 
 219   0.0000       5.655783       153.9017 
 220   0.0000       5.665327       154.1614 
 221   0.0000       5.674565       154.4128 
 222   0.0000       5.681816       154.6101 
 223   0.0000       5.697773       155.0443 
 224   0.0000       5.759935       156.7358 
 225   0.0000       5.786712       157.4644 
 226   0.0000       5.801665       157.8713 
 227   0.0000       5.806339       157.9985 
 228   0.0000       5.818237       158.3223 
 229   0.0000       5.827239       158.5672 
 230   0.0000       5.835701       158.7975 
 231   0.0000       5.838131       158.8636 
 232   0.0000       5.843852       159.0193 
 233   0.0000       5.854715       159.3149 
 234   0.0000       5.858730       159.4241 
 235   0.0000       5.864678       159.5860 
 236   0.0000       5.874328       159.8486 
 237   0.0000       5.875508       159.8807 
 238   0.0000       5.885621       160.1559 
 239   0.0000       5.887110       160.1964 
 240   0.0000       5.904376       160.6662 
 241   0.0000       5.908549       160.7798 
 242   0.0000       5.912362       160.8836 
 243   0.0000       5.917611       161.0264 
 244   0.0000       5.979201       162.7023 
 245   0.0000       6.378326       173.5631 
 246   0.0000       6.440374       175.2515 
 247   0.0000       6.458881       175.7551 
 248   0.0000       6.479206       176.3081 
 249   0.0000       6.494719       176.7303 
 250   0.0000       6.500486       176.8872 
 251   0.0000       6.520587       177.4342 
 252   0.0000       6.634452       180.5326 
 253   0.0000       6.661403       181.2660 
 254   0.0000       6.698612       182.2785 
 255   0.0000       6.713901       182.6945 
 256   0.0000       6.736634       183.3131 
 257   0.0000       6.749116       183.6528 
 258   0.0000       6.767859       184.1628 
 259   0.0000       6.828471       185.8122 
 260   0.0000       6.835308       185.9982 
 261   0.0000       6.848044       186.3447 
 262   0.0000       6.851588       186.4412 
 263   0.0000       6.859098       186.6456 
 264   0.0000       6.862439       186.7364 
 265   0.0000       6.876615       187.1222 
 266   0.0000       6.880924       187.2395 
 267   0.0000       6.894139       187.5990 
 268   0.0000       6.898385       187.7146 
 269   0.0000       6.910813       188.0528 
 270   0.0000       6.928450       188.5327 
 271   0.0000       6.939045       188.8210 
 272   0.0000       6.961806       189.4404 
 273   0.0000       6.966063       189.5562 
 274   0.0000       6.976827       189.8491 
 275   0.0000       6.982167       189.9944 
 276   0.0000       7.003443       190.5734 
 277   0.0000       7.027298       191.2225 
 278   0.0000       7.037913       191.5114 
 279   0.0000       7.103804       193.3043 
 280   0.0000       7.327951       199.4037 
 281   0.0000       7.354732       200.1324 
 282   0.0000       7.404060       201.4747 
 283   0.0000       7.422274       201.9703 
 284   0.0000       7.436319       202.3525 
 285   0.0000       7.458587       202.9585 
 286   0.0000       7.485783       203.6985 
 287   0.0000       7.496481       203.9896 
 288   0.0000       7.518546       204.5900 
 289   0.0000       7.545947       205.3357 
 290   0.0000       7.548262       205.3987 
 291   0.0000       7.559744       205.7111 
 292   0.0000       7.589099       206.5099 
 293   0.0000       7.637468       207.8261 
 294   0.0000      44.886249      1221.4169 
 295   0.0000      44.926597      1222.5148 
 296   0.0000      44.939973      1222.8788 
 297   0.0000      44.974945      1223.8305 
 298   0.0000      44.991257      1224.2743 
 299   0.0000      45.009288      1224.7650 
 300   0.0000      45.060471      1226.1578 

                    ********************************
                    * MULLIKEN POPULATION ANALYSIS *
                    ********************************

-----------------------
MULLIKEN ATOMIC CHARGES
-----------------------
   0 O :   -0.743922
   1 H :    0.374401
   2 H :    0.385973
   3 O :   -0.725981
   4 H :    0.409342
   5 H :    0.340372
   6 O :   -0.750838
   7 H :    0.400096
   8 H :    0.353222
   9 O :   -0.719353
  10 H :    0.366161
  11 H :    0.383401
  12 O :   -0.782832
  13 H :    0.384849
  14 H :    0.368767
  15 O :   -0.763548
  16 H :    0.330566
  17 H :    0.397755
  18 O :   -0.728490
  19 H :    0.342137
  20 H :    0.377921
Sum of atomic charges:   -0.0000000

--------------------------------
MULLIKEN REDUCED ORBITAL CHARGES
--------------------------------
  0 O s       :     3.808086  s :     3.808086
      pz      :     1.732570  p :     4.910358
      px      :     1.384071
      py      :     1.793717
      dz2     :     0.004075  d :     0.024004
      dxz     :     0.004547
      dyz     :     0.005444
      dx2y2   :     0.002548
      dxy     :     0.007389
      f0      :     0.000085  f :     0.001475
      f+1     :     0.000335
      f-1     :     0.000179
      f+2     :     0.000062
      f-2     :     0.000348
      f+3     :     0.000093
      f-3     :     0.000372
  1 H s       :     0.580640  s :     0.580640
      pz      :     0.016996  p :     0.044960
      px      :     0.013314
      py      :     0.014650
  2 H s       :     0.573539  s :     0.573539
      pz      :     0.010401  p :     0.040488
      px      :     0.017989
      py      :     0.012097
  3 O s       :     3.796963  s :     3.796963
      pz      :     1.584309  p :     4.902687
      px      :     1.534113
      py      :     1.784265
      dz2     :     0.011740  d :     0.024928
      dxz     :     0.001149
      dyz     :     0.002399
      dx2y2   :     0.002494
      dxy     :     0.007146
      f0      :     0.000224  f :     0.001402
      f+1     :     0.000382
      f-1     :     0.000156
      f+2     :     0.000051
      f-2     :     0.000056
      f+3     :     0.000054
      f-3     :     0.000479
  4 H s       :     0.542816  s :     0.542816
      pz      :     0.025418  p :     0.047842
      px      :     0.010859
      py      :     0.011565
  5 H s       :     0.615517  s :     0.615517
      pz      :     0.010831  p :     0.044112
      px      :     0.018119
      py      :     0.015162
  6 O s       :     3.800894  s :     3.800894
      pz      :     1.546772  p :     4.924108
      px      :     1.845395
      py      :     1.531940
      dz2     :     0.011659  d :     0.024468
      dxz     :     0.002163
      dyz     :     0.002901
      dx2y2   :     0.003247
      dxy     :     0.004498
      f0      :     0.000173  f :     0.001367
      f+1     :     0.000113
      f-1     :     0.000463
      f+2     :     0.000068
      f-2     :     0.000041
      f+3     :     0.000412
      f-3     :     0.000096
  7 H s       :     0.546937  s :     0.546937
      pz      :     0.009069  p :     0.052968
      px      :     0.014385
      py      :     0.029514
  8 H s       :     0.602632  s :     0.602632
      pz      :     0.018684  p :     0.044146
      px      :     0.013631
      py      :     0.011831
  9 O s       :     3.808636  s :     3.808636
      pz      :     1.552924  p :     4.883103
      px      :     1.487237
      py      :     1.842942
      dz2     :     0.012331  d :     0.026199
      dxz     :     0.003065
      dyz     :     0.002316
      dx2y2   :     0.003639
      dxy     :     0.004848
      f0      :     0.000165  f :     0.001414
      f+1     :     0.000471
      f-1     :     0.000116
      f+2     :     0.000067
      f-2     :     0.000041
      f+3     :     0.000105
      f-3     :     0.000448
 10 H s       :     0.590099  s :     0.590099
      pz      :     0.019158  p :     0.043740
      px      :     0.011325
      py      :     0.013257
 11 H s       :     0.574432  s :     0.574432
      pz      :     0.009588  p :     0.042167
      px      :     0.018862
      py      :     0.013717
 12 O s       :     3.805948  s :     3.805948
      pz      :     1.581315  p :     4.953281
      px      :     1.494630
      py      :     1.877336
      dz2     :     0.009617  d :     0.022201
      dxz     :     0.002422
      dyz     :     0.002282
      dx2y2   :     0.002815
      dxy     :     0.005064
      f0      :     0.000189  f :     0.001402
      f+1     :     0.000421
      f-1     :     0.000118
      f+2     :     0.000077
      f-2     :     0.000035
      f+3     :     0.000116
      f-3     :     0.000445
 13 H s       :     0.565878  s :     0.565878
      pz      :     0.024057  p :     0.049272
      px      :     0.011718
      py      :     0.013497
 14 H s       :     0.577156  s :     0.577156
      pz      :     0.009290  p :     0.054076
      px      :     0.028852
      py      :     0.015934
 15 O s       :     3.807992  s :     3.807992
      pz      :     1.716706  p :     4.930468
      px      :     1.802887
      py      :     1.410876
      dz2     :     0.004003  d :     0.023619
      dxz     :     0.005504
      dyz     :     0.004685
      dx2y2   :     0.002297
      dxy     :     0.007130
      f0      :     0.000088  f :     0.001470
      f+1     :     0.000186
      f-1     :     0.000327
      f+2     :     0.000070
      f-2     :     0.000360
      f+3     :     0.000352
      f-3     :     0.000088
 16 H s       :     0.623272  s :     0.623272
      pz      :     0.017042  p :     0.046162
      px      :     0.015216
      py      :     0.013904
 17 H s       :     0.545386  s :     0.545386
      pz      :     0.010702  p :     0.056859
      px      :     0.013959
      py      :     0.032198
 18 O s       :     3.809895  s :     3.809895
      pz      :     1.498210  p :     4.891662
      px      :     1.821091
      py      :     1.572361
      dz2     :     0.012027  d :     0.025448
      dxz     :     0.002948
      dyz     :     0.001265
      dx2y2   :     0.002076
      dxy     :     0.007131
      f0      :     0.000271  f :     0.001486
      f+1     :     0.000168
      f-1     :     0.000380
      f+2     :     0.000056
      f-2     :     0.000056
      f+3     :     0.000489
      f-3     :     0.000065
 19 H s       :     0.612930  s :     0.612930
      pz      :     0.018716  p :     0.044933
      px      :     0.013867
      py      :     0.012350
 20 H s       :     0.571950  s :     0.571950
      pz      :     0.009952  p :     0.050129
      px      :     0.016431
      py      :     0.023745


                     *******************************
                     * LOEWDIN POPULATION ANALYSIS *
                     *******************************

----------------------
LOEWDIN ATOMIC CHARGES
----------------------
   0 O :   -0.296950
   1 H :    0.167962
   2 H :    0.194528
   3 O :   -0.288188
   4 H :    0.166006
   5 H :    0.163000
   6 O :   -0.322279
   7 H :    0.156727
   8 H :    0.164421
   9 O :   -0.295763
  10 H :    0.172569
  11 H :    0.184323
  12 O :   -0.355333
  13 H :    0.153229
  14 H :    0.145566
  15 O :   -0.376443
  16 H :    0.146801
  17 H :    0.152762
  18 O :   -0.346319
  19 H :    0.159979
  20 H :    0.153404

-------------------------------
LOEWDIN REDUCED ORBITAL CHARGES
-------------------------------
  0 O s       :     3.462338  s :     3.462338
      pz      :     1.687844  p :     4.801108
      px      :     1.365502
      py      :     1.747762
      dz2     :     0.005471  d :     0.031442
      dxz     :     0.006719
      dyz     :     0.005329
      dx2y2   :     0.004217
      dxy     :     0.009705
      f0      :     0.000092  f :     0.002062
      f+1     :     0.000447
      f-1     :     0.000270
      f+2     :     0.000033
      f-2     :     0.000599
      f+3     :     0.000091
      f-3     :     0.000532
  1 H s       :     0.667863  s :     0.667863
      pz      :     0.066794  p :     0.164175
      px      :     0.044620
      py      :     0.052762
  2 H s       :     0.656338  s :     0.656338
      pz      :     0.033285  p :     0.149134
      px      :     0.072404
      py      :     0.043445
  3 O s       :     3.453857  s :     3.453857
      pz      :     1.550570  p :     4.800159
      px      :     1.523844
      py      :     1.725745
      dz2     :     0.015099  d :     0.032045
      dxz     :     0.001654
      dyz     :     0.001813
      dx2y2   :     0.003819
      dxy     :     0.009661
      f0      :     0.000393  f :     0.002128
      f+1     :     0.000563
      f-1     :     0.000335
      f+2     :     0.000021
      f-2     :     0.000045
      f+3     :     0.000027
      f-3     :     0.000743
  4 H s       :     0.660885  s :     0.660885
      pz      :     0.096438  p :     0.173109
      px      :     0.035597
      py      :     0.041074
  5 H s       :     0.679128  s :     0.679128
      pz      :     0.031620  p :     0.157873
      px      :     0.071319
      py      :     0.054933
  6 O s       :     3.462266  s :     3.462266
      pz      :     1.544442  p :     4.827596
      px      :     1.788763
      py      :     1.494392
      dz2     :     0.014772  d :     0.030416
      dxz     :     0.001350
      dyz     :     0.004190
      dx2y2   :     0.004647
      dxy     :     0.005457
      f0      :     0.000378  f :     0.002000
      f+1     :     0.000200
      f-1     :     0.000745
      f+2     :     0.000041
      f-2     :     0.000046
      f+3     :     0.000526
      f-3     :     0.000064
  7 H s       :     0.656063  s :     0.656063
      pz      :     0.028830  p :     0.187210
      px      :     0.052583
      py      :     0.105798
  8 H s       :     0.675912  s :     0.675912
      pz      :     0.079000  p :     0.159667
      px      :     0.043460
      py      :     0.037208
  9 O s       :     3.467558  s :     3.467558
      pz      :     1.548111  p :     4.793354
      px      :     1.462401
      py      :     1.782842
      dz2     :     0.015696  d :     0.032779
      dxz     :     0.004253
      dyz     :     0.001429
      dx2y2   :     0.005262
      dxy     :     0.006139
      f0      :     0.000362  f :     0.002072
      f+1     :     0.000749
      f-1     :     0.000209
      f+2     :     0.000042
      f-2     :     0.000046
      f+3     :     0.000071
      f-3     :     0.000593
 10 H s       :     0.668684  s :     0.668684
      pz      :     0.080468  p :     0.158746
      px      :     0.035594
      py      :     0.042684
 11 H s       :     0.661362  s :     0.661362
      pz      :     0.028917  p :     0.154315
      px      :     0.076281
      py      :     0.049117
 12 O s       :     3.456509  s :     3.456509
      pz      :     1.548818  p :     4.868578
      px      :     1.481737
      py      :     1.838023
      dz2     :     0.013244  d :     0.028311
      dxz     :     0.003742
      dyz     :     0.001514
      dx2y2   :     0.003725
      dxy     :     0.006085
      f0      :     0.000368  f :     0.001935
      f+1     :     0.000686
      f-1     :     0.000180
      f+2     :     0.000042
      f-2     :     0.000042
      f+3     :     0.000065
      f-3     :     0.000552
 13 H s       :     0.674696  s :     0.674696
      pz      :     0.091768  p :     0.172075
      px      :     0.037137
      py      :     0.043171
 14 H s       :     0.667351  s :     0.667351
      pz      :     0.030411  p :     0.187083
      px      :     0.103879
      py      :     0.052794
 15 O s       :     3.467489  s :     3.467489
      pz      :     1.704746  p :     4.877425
      px      :     1.779921
      py      :     1.392758
      dz2     :     0.004241  d :     0.029517
      dxz     :     0.005771
      dyz     :     0.007220
      dx2y2   :     0.003288
      dxy     :     0.008998
      f0      :     0.000073  f :     0.002011
      f+1     :     0.000268
      f-1     :     0.000439
      f+2     :     0.000034
      f-2     :     0.000635
      f+3     :     0.000478
      f-3     :     0.000084
 16 H s       :     0.688890  s :     0.688890
      pz      :     0.065485  p :     0.164309
      px      :     0.053310
      py      :     0.045514
 17 H s       :     0.652736  s :     0.652736
      pz      :     0.033459  p :     0.194502
      px      :     0.047511
      py      :     0.113532
 18 O s       :     3.466471  s :     3.466471
      pz      :     1.506086  p :     4.845954
      px      :     1.793231
      py      :     1.546636
      dz2     :     0.016321  d :     0.031768
      dxz     :     0.002398
      dyz     :     0.002150
      dx2y2   :     0.002104
      dxy     :     0.008795
      f0      :     0.000501  f :     0.002126
      f+1     :     0.000315
      f-1     :     0.000580
      f+2     :     0.000025
      f-2     :     0.000050
      f+3     :     0.000654
      f-3     :     0.000002
 19 H s       :     0.681490  s :     0.681490
      pz      :     0.079648  p :     0.158531
      px      :     0.042526
      py      :     0.036356
 20 H s       :     0.674194  s :     0.674194
      pz      :     0.029706  p :     0.172402
      px      :     0.057753
      py      :     0.084943


                      *****************************
                      * MAYER POPULATION ANALYSIS *
                      *****************************

  NA   - Mulliken gross atomic population
  ZA   - Total nuclear charge
  QA   - Mulliken gross atomic charge
  VA   - Mayer's total valence
  BVA  - Mayer's bonded valence
  FA   - Mayer's free valence

  ATOM       NA         ZA         QA         VA         BVA        FA
  0 O      8.7439     8.0000    -0.7439     1.7540     1.7540     0.0000
  1 H      0.6256     1.0000     0.3744     0.8756     0.8756     0.0000
  2 H      0.6140     1.0000     0.3860     0.8654     0.8654    -0.0000
  3 O      8.7260     8.0000    -0.7260     1.7516     1.7516    -0.0000
  4 H      0.5907     1.0000     0.4093     0.8626     0.8626    -0.0000
  5 H      0.6596     1.0000     0.3404     0.9009     0.9009     0.0000
  6 O      8.7508     8.0000    -0.7508     1.7159     1.7159    -0.0000
  7 H      0.5999     1.0000     0.4001     0.8787     0.8787    -0.0000
  8 H      0.6468     1.0000     0.3532     0.8905     0.8905    -0.0000
  9 O      8.7194     8.0000    -0.7194     1.7802     1.7802    -0.0000
 10 H      0.6338     1.0000     0.3662     0.8799     0.8799    -0.0000
 11 H      0.6166     1.0000     0.3834     0.8748     0.8748    -0.0000
 12 O      8.7828     8.0000    -0.7828     1.6798     1.6798     0.0000
 13 H      0.6152     1.0000     0.3848     0.8797     0.8797     0.0000
 14 H      0.6312     1.0000     0.3688     0.9069     0.9069    -0.0000
 15 O      8.7635     8.0000    -0.7635     1.6927     1.6927     0.0000
 16 H      0.6694     1.0000     0.3306     0.9065     0.9065    -0.0000
 17 H      0.6022     1.0000     0.3978     0.8772     0.8772    -0.0000
 18 O      8.7285     8.0000    -0.7285     1.7513     1.7513     0.0000
 19 H      0.6579     1.0000     0.3421     0.8990     0.8990    -0.0000
 20 H      0.6221     1.0000     0.3779     0.8860     0.8860     0.0000

  Mayer bond orders larger than 0.100000
B(  0-O ,  1-H ) :   0.8665 B(  0-O ,  2-H ) :   0.8536 B(  3-O ,  4-H ) :   0.8216 
B(  3-O ,  5-H ) :   0.8911 B(  6-O ,  7-H ) :   0.8034 B(  6-O ,  8-H ) :   0.8838 
B(  9-O , 10-H ) :   0.8724 B(  9-O , 11-H ) :   0.8545 B( 12-O , 13-H ) :   0.8535 
B( 12-O , 14-H ) :   0.8217 B( 15-O , 16-H ) :   0.9004 B( 15-O , 17-H ) :   0.8104 
B( 18-O , 19-H ) :   0.8917 B( 18-O , 20-H ) :   0.8548 

-------
TIMINGS
-------

Total SCF time: 0 days 0 hours 0 min 16 sec 

Total time                  ....      16.229 sec
Sum of individual times     ....      15.993 sec  ( 98.5%)

Fock matrix formation       ....      15.153 sec  ( 93.4%)
Diagonalization             ....       0.268 sec  (  1.7%)
Density matrix formation    ....       0.009 sec  (  0.1%)
Population analysis         ....       0.038 sec  (  0.2%)
Initial guess               ....       0.154 sec  (  0.9%)
Orbital Transformation      ....       0.000 sec  (  0.0%)
Orbital Orthonormalization  ....       0.000 sec  (  0.0%)
DIIS solution               ....       0.102 sec  (  0.6%)
SOSCF solution              ....       0.198 sec  (  1.2%)


           ************************************************************
           *        Program running with 6 parallel MPI-processes     *
           *              working on a common directory               *
           ************************************************************

------------------------------------------------------------------------------
                                ORCA  MP2 
------------------------------------------------------------------------------

Freezing NCore=14 chemical core electrons
MP2 will be done in the AO integral direct mode
The Q1-step will be done using symmetric double matrices
Dimension of the basis                    ...  301
Memory devoted for MP2                    ... 8000 MB   
Memory needed for all in one shot         ...  523 MB
Number of MOs that can be treated together...   75      
MP2 density construction                  ... relaxed
The MP2 gradient is requested => amplitudes will be stored on disk
Total number of MOs              ...   28
Number of MOs treated per batch  ...    5 
Number of batches necessary      ...    1 
OPERATORS   0/  0 PASS   0
-----------------------------------------------
 MP2 CORRELATION ENERGY   :     -1.809007639 Eh
-----------------------------------------------


---------------------
MP2 DENSITY FORMATION
---------------------

Completing the external part of the density      ... done
Storing the unrelaxed density                    ... done

Calculating G(D)                                 ... done
Completing the Lagrangian                        ... done
Solving the Z-vector equations                   ... 

------------------------------------------------------------------------------
                           ORCA CP-SCF CALCULATION
------------------------------------------------------------------------------

Input orbitals are from        ... 12h2o.su.etal.mol1,3,5,6,7,10,11-orca.engrad-mp2.def2tzvp.frozencore.gbw
Input Perturbation             ... 12h2o.su.etal.mol1,3,5,6,7,10,11-orca.engrad-mp2.def2tzvp.frozencore.pin.tmp
Wavefunction output            ... 12h2o.su.etal.mol1,3,5,6,7,10,11-orca.engrad-mp2.def2tzvp.frozencore.pout.tmp
Perturbation mode              ... Real perturbation (singlet)
Solver                         ... POPLE
Max. number of iterations      ... 128
Convergence tolerance          ... 1.000e-08
Integral handling              ... Direct
Number of perturbations        ... 1
Number of operators            ... 1
Orbital ranges used for CP-SCF:
 Operator 0:  Orbitals   0... 34  to  35...300
Variables per vector in CP-SCF ... 9310
Number of vectors sought       ... 1
     CP-SCF ITERATION   0: 
     CP-SCF ITERATION   1:      0.000908738259
     CP-SCF ITERATION   2:      0.000022886892
     CP-SCF ITERATION   3:      0.000000871847
     CP-SCF ITERATION   4:      0.000000099947
     CP-SCF ITERATION   5:      0.000000009350
                                                 ... done
Finalizing the relaxed density                   ... done
Transforming P to the AO basis                   ... done
Storing the relaxed density                      ... done

------------------------------------
ENERGY WEIGHTED DENSITY FINALIZATION
------------------------------------

Gathering the parts of the W-matrix              ...                                                      done
Forming the Z-density                            ... done
Transforming Z to the AO basis                   ... done
Calculating G(Z)                                 ... done
Finalizing the W-matrix                          ...                                                      done
Transforming W to the AO basis and storing       ... done

                *********************************************
                * UNRELAXED MP2 DENSITY POPULATION ANALYSIS *
                *********************************************

------------------------------------------------------------------------------
                           ORCA POPULATION ANALYSIS
------------------------------------------------------------------------------
Input electron density              ... 12h2o.su.etal.mol1,3,5,6,7,10,11-orca.engrad-mp2.def2tzvp.frozencore.pmp2ur
BaseName (.gbw .S,...)              ... 12h2o.su.etal.mol1,3,5,6,7,10,11-orca.engrad-mp2.def2tzvp.frozencore

                    ********************************
                    * MULLIKEN POPULATION ANALYSIS *
                    ********************************

-----------------------
MULLIKEN ATOMIC CHARGES
-----------------------
   0 O :   -0.738198
   1 H :    0.372157
   2 H :    0.383124
   3 O :   -0.719454
   4 H :    0.406212
   5 H :    0.337814
   6 O :   -0.743870
   7 H :    0.395748
   8 H :    0.350724
   9 O :   -0.712916
  10 H :    0.363723
  11 H :    0.380471
  12 O :   -0.776305
  13 H :    0.381975
  14 H :    0.363974
  15 O :   -0.758146
  16 H :    0.328316
  17 H :    0.393363
  18 O :   -0.723110
  19 H :    0.339634
  20 H :    0.374764
Sum of atomic charges:   -0.0000000

--------------------------------
MULLIKEN REDUCED ORBITAL CHARGES
--------------------------------
  0 O s       :     3.803244  s :     3.803244
      pz      :     1.721520  p :     4.879641
      px      :     1.376224
      py      :     1.781897
      dz2     :     0.009636  d :     0.051269
      dxz     :     0.009952
      dyz     :     0.010940
      dx2y2   :     0.008028
      dxy     :     0.012712
      f0      :     0.000458  f :     0.004044
      f+1     :     0.000697
      f-1     :     0.000547
      f+2     :     0.000432
      f-2     :     0.000713
      f+3     :     0.000465
      f-3     :     0.000733
  1 H s       :     0.581372  s :     0.581372
      pz      :     0.017455  p :     0.046472
      px      :     0.013688
      py      :     0.015328
  2 H s       :     0.574906  s :     0.574906
      pz      :     0.011219  p :     0.041970
      px      :     0.017921
      py      :     0.012830
  3 O s       :     3.791796  s :     3.791796
      pz      :     1.574541  p :     4.871423
      px      :     1.524875
      py      :     1.772007
      dz2     :     0.016972  d :     0.052237
      dxz     :     0.006600
      dyz     :     0.008015
      dx2y2   :     0.008130
      dxy     :     0.012520
      f0      :     0.000609  f :     0.003998
      f+1     :     0.000751
      f-1     :     0.000536
      f+2     :     0.000414
      f-2     :     0.000423
      f+3     :     0.000428
      f-3     :     0.000838
  4 H s       :     0.544540  s :     0.544540
      pz      :     0.025439  p :     0.049249
      px      :     0.011473
      py      :     0.012337
  5 H s       :     0.616416  s :     0.616416
      pz      :     0.011644  p :     0.045770
      px      :     0.018315
      py      :     0.015812
  6 O s       :     3.795569  s :     3.795569
      pz      :     1.537444  p :     4.892412
      px      :     1.832428
      py      :     1.522540
      dz2     :     0.016827  d :     0.051928
      dxz     :     0.007799
      dyz     :     0.008301
      dx2y2   :     0.008927
      dxy     :     0.010075
      f0      :     0.000555  f :     0.003960
      f+1     :     0.000487
      f-1     :     0.000830
      f+2     :     0.000434
      f-2     :     0.000409
      f+3     :     0.000776
      f-3     :     0.000470
  7 H s       :     0.549682  s :     0.549682
      pz      :     0.009854  p :     0.054570
      px      :     0.015049
      py      :     0.029667
  8 H s       :     0.603467  s :     0.603467
      pz      :     0.018842  p :     0.045809
      px      :     0.014493
      py      :     0.012473
  9 O s       :     3.803539  s :     3.803539
      pz      :     1.543473  p :     4.852267
      px      :     1.478562
      py      :     1.830232
      dz2     :     0.017393  d :     0.053125
      dxz     :     0.008358
      dyz     :     0.007874
      dx2y2   :     0.009168
      dxy     :     0.010332
      f0      :     0.000547  f :     0.003986
      f+1     :     0.000834
      f-1     :     0.000490
      f+2     :     0.000431
      f-2     :     0.000406
      f+3     :     0.000474
      f-3     :     0.000804
 10 H s       :     0.590973  s :     0.590973
      pz      :     0.019287  p :     0.045304
      px      :     0.011927
      py      :     0.014090
 11 H s       :     0.575868  s :     0.575868
      pz      :     0.010385  p :     0.043661
      px      :     0.018870
      py      :     0.014406
 12 O s       :     3.800959  s :     3.800959
      pz      :     1.571309  p :     4.921440
      px      :     1.485031
      py      :     1.865100
      dz2     :     0.015105  d :     0.049914
      dxz     :     0.007937
      dyz     :     0.007965
      dx2y2   :     0.008380
      dxy     :     0.010527
      f0      :     0.000576  f :     0.003993
      f+1     :     0.000794
      f-1     :     0.000493
      f+2     :     0.000442
      f-2     :     0.000404
      f+3     :     0.000482
      f-3     :     0.000802
 13 H s       :     0.567201  s :     0.567201
      pz      :     0.024170  p :     0.050824
      px      :     0.012312
      py      :     0.014342
 14 H s       :     0.580264  s :     0.580264
      pz      :     0.010109  p :     0.055763
      px      :     0.028985
      py      :     0.016669
 15 O s       :     3.803090  s :     3.803090
      pz      :     1.706312  p :     4.900350
      px      :     1.791621
      py      :     1.402417
      dz2     :     0.009484  d :     0.050670
      dxz     :     0.010846
      dyz     :     0.010056
      dx2y2   :     0.007802
      dxy     :     0.012482
      f0      :     0.000456  f :     0.004036
      f+1     :     0.000548
      f-1     :     0.000691
      f+2     :     0.000438
      f-2     :     0.000725
      f+3     :     0.000717
      f-3     :     0.000462
 16 H s       :     0.623787  s :     0.623787
      pz      :     0.017558  p :     0.047898
      px      :     0.015968
      py      :     0.014372
 17 H s       :     0.548111  s :     0.548111
      pz      :     0.011534  p :     0.058526
      px      :     0.014689
      py      :     0.032303
 18 O s       :     3.805074  s :     3.805074
      pz      :     1.489311  p :     4.861881
      px      :     1.809534
      py      :     1.563035
      dz2     :     0.017035  d :     0.052109
      dxz     :     0.008392
      dyz     :     0.006657
      dx2y2   :     0.007617
      dxy     :     0.012409
      f0      :     0.000646  f :     0.004046
      f+1     :     0.000539
      f-1     :     0.000745
      f+2     :     0.000415
      f-2     :     0.000421
      f+3     :     0.000846
      f-3     :     0.000435
 19 H s       :     0.613751  s :     0.613751
      pz      :     0.018804  p :     0.046615
      px      :     0.014738
      py      :     0.013073
 20 H s       :     0.573512  s :     0.573512
      pz      :     0.010732  p :     0.051724
      px      :     0.017042
      py      :     0.023950


                     *******************************
                     * LOEWDIN POPULATION ANALYSIS *
                     *******************************

----------------------
LOEWDIN ATOMIC CHARGES
----------------------
   0 O :   -0.292570
   1 H :    0.166800
   2 H :    0.192739
   3 O :   -0.284024
   4 H :    0.164050
   5 H :    0.161374
   6 O :   -0.318221
   7 H :    0.154173
   8 H :    0.162895
   9 O :   -0.291220
  10 H :    0.171172
  11 H :    0.182559
  12 O :   -0.351795
  13 H :    0.151210
  14 H :    0.142817
  15 O :   -0.374062
  16 H :    0.145498
  17 H :    0.150259
  18 O :   -0.343436
  19 H :    0.158444
  20 H :    0.151338

-------------------------------
LOEWDIN REDUCED ORBITAL CHARGES
-------------------------------
  0 O s       :     3.458571  s :     3.458571
      pz      :     1.676370  p :     4.769380
      px      :     1.357305
      py      :     1.735705
      dz2     :     0.011164  d :     0.059793
      dxz     :     0.012330
      dyz     :     0.011114
      dx2y2   :     0.009798
      dxy     :     0.015387
      f0      :     0.000475  f :     0.004826
      f+1     :     0.000857
      f-1     :     0.000657
      f+2     :     0.000409
      f-2     :     0.001007
      f+3     :     0.000475
      f-3     :     0.000945
  1 H s       :     0.666112  s :     0.666112
      pz      :     0.067959  p :     0.167088
      px      :     0.045411
      py      :     0.053718
  2 H s       :     0.655176  s :     0.655176
      pz      :     0.034116  p :     0.152084
      px      :     0.073566
      py      :     0.044403
  3 O s       :     3.450053  s :     3.450053
      pz      :     1.540920  p :     4.768656
      px      :     1.514346
      py      :     1.713390
      dz2     :     0.020992  d :     0.060394
      dxz     :     0.007056
      dyz     :     0.007358
      dx2y2   :     0.009435
      dxy     :     0.015554
      f0      :     0.000819  f :     0.004921
      f+1     :     0.000986
      f-1     :     0.000737
      f+2     :     0.000389
      f-2     :     0.000420
      f+3     :     0.000406
      f-3     :     0.001164
  4 H s       :     0.660215  s :     0.660215
      pz      :     0.097593  p :     0.175735
      px      :     0.036295
      py      :     0.041846
  5 H s       :     0.677445  s :     0.677445
      pz      :     0.032408  p :     0.161182
      px      :     0.072755
      py      :     0.056019
  6 O s       :     3.458481  s :     3.458481
      pz      :     1.534759  p :     4.796008
      px      :     1.775955
      py      :     1.485293
      dz2     :     0.020596  d :     0.058942
      dxz     :     0.006906
      dyz     :     0.009613
      dx2y2   :     0.010482
      dxy     :     0.011345
      f0      :     0.000792  f :     0.004790
      f+1     :     0.000589
      f-1     :     0.001182
      f+2     :     0.000414
      f-2     :     0.000420
      f+3     :     0.000945
      f-3     :     0.000449
  7 H s       :     0.656014  s :     0.656014
      pz      :     0.029613  p :     0.189813
      px      :     0.053397
      py      :     0.106803
  8 H s       :     0.674191  s :     0.674191
      pz      :     0.080630  p :     0.162914
      px      :     0.044253
      py      :     0.038030
  9 O s       :     3.463654  s :     3.463654
      pz      :     1.538408  p :     4.761988
      px      :     1.453488
      py      :     1.770093
      dz2     :     0.021406  d :     0.060741
      dxz     :     0.009567
      dyz     :     0.006910
      dx2y2   :     0.010961
      dxy     :     0.011896
      f0      :     0.000774  f :     0.004838
      f+1     :     0.001181
      f-1     :     0.000598
      f+2     :     0.000412
      f-2     :     0.000417
      f+3     :     0.000451
      f-3     :     0.001004
 10 H s       :     0.667045  s :     0.667045
      pz      :     0.081992  p :     0.161783
      px      :     0.036339
      py      :     0.043452
 11 H s       :     0.660231  s :     0.660231
      pz      :     0.029693  p :     0.157210
      px      :     0.077526
      py      :     0.049991
 12 O s       :     3.452867  s :     3.452867
      pz      :     1.538261  p :     4.837019
      px      :     1.472388
      py      :     1.826370
      dz2     :     0.019316  d :     0.057184
      dxz     :     0.009313
      dyz     :     0.007134
      dx2y2   :     0.009504
      dxy     :     0.011917
      f0      :     0.000787  f :     0.004725
      f+1     :     0.001128
      f-1     :     0.000572
      f+2     :     0.000414
      f-2     :     0.000417
      f+3     :     0.000443
      f-3     :     0.000964
 13 H s       :     0.673779  s :     0.673779
      pz      :     0.093118  p :     0.175011
      px      :     0.037937
      py      :     0.043956
 14 H s       :     0.667256  s :     0.667256
      pz      :     0.031261  p :     0.189927
      px      :     0.104988
      py      :     0.053678
 15 O s       :     3.463847  s :     3.463847
      pz      :     1.694335  p :     4.847807
      px      :     1.769001
      py      :     1.384471
      dz2     :     0.009799  d :     0.057635
      dxz     :     0.011432
      dyz     :     0.012813
      dx2y2   :     0.008891
      dxy     :     0.014700
      f0      :     0.000451  f :     0.004773
      f+1     :     0.000650
      f-1     :     0.000851
      f+2     :     0.000409
      f-2     :     0.001044
      f+3     :     0.000896
      f-3     :     0.000471
 16 H s       :     0.686847  s :     0.686847
      pz      :     0.066804  p :     0.167655
      px      :     0.054348
      py      :     0.046502
 17 H s       :     0.652790  s :     0.652790
      pz      :     0.034296  p :     0.196952
      px      :     0.048382
      py      :     0.114273
 18 O s       :     3.462766  s :     3.462766
      pz      :     1.496824  p :     4.816250
      px      :     1.782142
      py      :     1.537284
      dz2     :     0.022060  d :     0.059540
      dxz     :     0.007781
      dyz     :     0.007478
      dx2y2   :     0.007614
      dxy     :     0.014607
      f0      :     0.000917  f :     0.004881
      f+1     :     0.000708
      f-1     :     0.000999
      f+2     :     0.000389
      f-2     :     0.000422
      f+3     :     0.001069
      f-3     :     0.000377
 19 H s       :     0.679739  s :     0.679739
      pz      :     0.081322  p :     0.161817
      px      :     0.043353
      py      :     0.037142
 20 H s       :     0.673346  s :     0.673346
      pz      :     0.030460  p :     0.175316
      px      :     0.058699
      py      :     0.086158


                      *****************************
                      * MAYER POPULATION ANALYSIS *
                      *****************************

  NA   - Mulliken gross atomic population
  ZA   - Total nuclear charge
  QA   - Mulliken gross atomic charge
  VA   - Mayer's total valence
  BVA  - Mayer's bonded valence
  FA   - Mayer's free valence

  ATOM       NA         ZA         QA         VA         BVA        FA
  0 O      8.7382     8.0000    -0.7382     2.0665     1.6745     0.3921
  1 H      0.6278     1.0000     0.3722     0.8810     0.8365     0.0446
  2 H      0.6169     1.0000     0.3831     0.8714     0.8247     0.0466
  3 O      8.7195     8.0000    -0.7195     2.0603     1.6724     0.3879
  4 H      0.5938     1.0000     0.4062     0.8686     0.8259     0.0427
  5 H      0.6622     1.0000     0.3378     0.9071     0.8585     0.0486
  6 O      8.7439     8.0000    -0.7439     2.0290     1.6371     0.3919
  7 H      0.6043     1.0000     0.3957     0.8861     0.8409     0.0452
  8 H      0.6493     1.0000     0.3507     0.8964     0.8489     0.0475
  9 O      8.7129     8.0000    -0.7129     2.0884     1.6991     0.3893
 10 H      0.6363     1.0000     0.3637     0.8857     0.8395     0.0462
 11 H      0.6195     1.0000     0.3805     0.8811     0.8350     0.0461
 12 O      8.7763     8.0000    -0.7763     1.9980     1.6021     0.3959
 13 H      0.6180     1.0000     0.3820     0.8857     0.8410     0.0446
 14 H      0.6360     1.0000     0.3640     0.9152     0.8664     0.0488
 15 O      8.7581     8.0000    -0.7581     2.0064     1.6144     0.3921
 16 H      0.6717     1.0000     0.3283     0.9126     0.8645     0.0481
 17 H      0.6066     1.0000     0.3934     0.8845     0.8391     0.0454
 18 O      8.7231     8.0000    -0.7231     2.0595     1.6710     0.3884
 19 H      0.6604     1.0000     0.3396     0.9053     0.8570     0.0482
 20 H      0.6252     1.0000     0.3748     0.8924     0.8472     0.0451

  Mayer bond orders larger than 0.100000
B(  0-O ,  1-H ) :   0.8281 B(  0-O ,  2-H ) :   0.8136 B(  3-O ,  4-H ) :   0.7862 
B(  3-O ,  5-H ) :   0.8494 B(  6-O ,  7-H ) :   0.7678 B(  6-O ,  8-H ) :   0.8428 
B(  9-O , 10-H ) :   0.8324 B(  9-O , 11-H ) :   0.8155 B( 12-O , 13-H ) :   0.8156 
B( 12-O , 14-H ) :   0.7837 B( 15-O , 16-H ) :   0.8589 B( 15-O , 17-H ) :   0.7740 
B( 18-O , 19-H ) :   0.8502 B( 18-O , 20-H ) :   0.8169 


                *******************************************
                * RELAXED MP2 DENSITY POPULATION ANALYSIS *
                *******************************************

------------------------------------------------------------------------------
                           ORCA POPULATION ANALYSIS
------------------------------------------------------------------------------
Input electron density              ... 12h2o.su.etal.mol1,3,5,6,7,10,11-orca.engrad-mp2.def2tzvp.frozencore.pmp2re
BaseName (.gbw .S,...)              ... 12h2o.su.etal.mol1,3,5,6,7,10,11-orca.engrad-mp2.def2tzvp.frozencore

                    ********************************
                    * MULLIKEN POPULATION ANALYSIS *
                    ********************************

-----------------------
MULLIKEN ATOMIC CHARGES
-----------------------
   0 O :   -0.715977
   1 H :    0.364962
   2 H :    0.375632
   3 O :   -0.692547
   4 H :    0.390523
   5 H :    0.331517
   6 O :   -0.714609
   7 H :    0.373613
   8 H :    0.344980
   9 O :   -0.688045
  10 H :    0.357544
  11 H :    0.370808
  12 O :   -0.746342
  13 H :    0.366959
  14 H :    0.339644
  15 O :   -0.739436
  16 H :    0.322211
  17 H :    0.371167
  18 O :   -0.705135
  19 H :    0.333276
  20 H :    0.359255
Sum of atomic charges:   -0.0000000

--------------------------------
MULLIKEN REDUCED ORBITAL CHARGES
--------------------------------
  0 O s       :     3.807016  s :     3.807016
      pz      :     1.712510  p :     4.855862
      px      :     1.372925
      py      :     1.770427
      dz2     :     0.009416  d :     0.049128
      dxz     :     0.009363
      dyz     :     0.010679
      dx2y2   :     0.007779
      dxy     :     0.011890
      f0      :     0.000456  f :     0.003970
      f+1     :     0.000678
      f-1     :     0.000539
      f+2     :     0.000431
      f-2     :     0.000692
      f+3     :     0.000463
      f-3     :     0.000712
  1 H s       :     0.587887  s :     0.587887
      pz      :     0.017578  p :     0.047150
      px      :     0.013611
      py      :     0.015961
  2 H s       :     0.581882  s :     0.581882
      pz      :     0.012035  p :     0.042486
      px      :     0.016954
      py      :     0.013498
  3 O s       :     3.791803  s :     3.791803
      pz      :     1.571980  p :     4.846543
      px      :     1.518145
      py      :     1.756418
      dz2     :     0.015813  d :     0.050277
      dxz     :     0.006573
      dyz     :     0.008004
      dx2y2   :     0.008082
      dxy     :     0.011805
      f0      :     0.000592  f :     0.003925
      f+1     :     0.000729
      f-1     :     0.000526
      f+2     :     0.000415
      f-2     :     0.000422
      f+3     :     0.000428
      f-3     :     0.000813
  4 H s       :     0.559890  s :     0.559890
      pz      :     0.024635  p :     0.049587
      px      :     0.011880
      py      :     0.013071
  5 H s       :     0.621941  s :     0.621941
      pz      :     0.012401  p :     0.046543
      px      :     0.017745
      py      :     0.016396
  6 O s       :     3.795035  s :     3.795035
      pz      :     1.532146  p :     4.865595
      px      :     1.813521
      py      :     1.519928
      dz2     :     0.015668  d :     0.050088
      dxz     :     0.007857
      dyz     :     0.008063
      dx2y2   :     0.008758
      dxy     :     0.009743
      f0      :     0.000542  f :     0.003891
      f+1     :     0.000481
      f-1     :     0.000803
      f+2     :     0.000433
      f-2     :     0.000407
      f+3     :     0.000757
      f-3     :     0.000468
  7 H s       :     0.571522  s :     0.571522
      pz      :     0.010473  p :     0.054865
      px      :     0.015502
      py      :     0.028891
  8 H s       :     0.608475  s :     0.608475
      pz      :     0.018175  p :     0.046545
      px      :     0.015485
      py      :     0.012885
  9 O s       :     3.806304  s :     3.806304
      pz      :     1.537595  p :     4.826863
      px      :     1.475253
      py      :     1.814016
      dz2     :     0.016163  d :     0.050968
      dxz     :     0.008101
      dyz     :     0.007937
      dx2y2   :     0.008867
      dxy     :     0.009899
      f0      :     0.000532  f :     0.003910
      f+1     :     0.000806
      f-1     :     0.000484
      f+2     :     0.000431
      f-2     :     0.000404
      f+3     :     0.000472
      f-3     :     0.000782
 10 H s       :     0.596529  s :     0.596529
      pz      :     0.018626  p :     0.045927
      px      :     0.012294
      py      :     0.015006
 11 H s       :     0.584993  s :     0.584993
      pz      :     0.011076  p :     0.044199
      px      :     0.018077
      py      :     0.015046
 12 O s       :     3.799423  s :     3.799423
      pz      :     1.561755  p :     4.894970
      px      :     1.475963
      py      :     1.857252
      dz2     :     0.014109  d :     0.048024
      dxz     :     0.007675
      dyz     :     0.007979
      dx2y2   :     0.008172
      dxy     :     0.010090
      f0      :     0.000566  f :     0.003925
      f+1     :     0.000765
      f-1     :     0.000487
      f+2     :     0.000442
      f-2     :     0.000402
      f+3     :     0.000481
      f-3     :     0.000783
 13 H s       :     0.581624  s :     0.581624
      pz      :     0.023446  p :     0.051417
      px      :     0.012719
      py      :     0.015252
 14 H s       :     0.604081  s :     0.604081
      pz      :     0.010844  p :     0.056275
      px      :     0.028114
      py      :     0.017318
 15 O s       :     3.804279  s :     3.804279
      pz      :     1.700583  p :     4.882437
      px      :     1.785924
      py      :     1.395930
      dz2     :     0.009281  d :     0.048750
      dxz     :     0.010524
      dyz     :     0.009485
      dx2y2   :     0.007680
      dxy     :     0.011779
      f0      :     0.000453  f :     0.003971
      f+1     :     0.000540
      f-1     :     0.000674
      f+2     :     0.000438
      f-2     :     0.000706
      f+3     :     0.000700
      f-3     :     0.000460
 16 H s       :     0.629093  s :     0.629093
      pz      :     0.017676  p :     0.048697
      px      :     0.016621
      py      :     0.014399
 17 H s       :     0.570095  s :     0.570095
      pz      :     0.012303  p :     0.058738
      px      :     0.015201
      py      :     0.031234
 18 O s       :     3.806369  s :     3.806369
      pz      :     1.482530  p :     4.844817
      px      :     1.801983
      py      :     1.560304
      dz2     :     0.015667  d :     0.049976
      dxz     :     0.008360
      dyz     :     0.006604
      dx2y2   :     0.007570
      dxy     :     0.011774
      f0      :     0.000628  f :     0.003973
      f+1     :     0.000529
      f-1     :     0.000723
      f+2     :     0.000415
      f-2     :     0.000420
      f+3     :     0.000824
      f-3     :     0.000435
 19 H s       :     0.619312  s :     0.619312
      pz      :     0.018021  p :     0.047412
      px      :     0.015713
      py      :     0.013679
 20 H s       :     0.588470  s :     0.588470
      pz      :     0.011385  p :     0.052275
      px      :     0.017453
      py      :     0.023436


                     *******************************
                     * LOEWDIN POPULATION ANALYSIS *
                     *******************************

----------------------
LOEWDIN ATOMIC CHARGES
----------------------
   0 O :   -0.286988
   1 H :    0.168391
   2 H :    0.193587
   3 O :   -0.278137
   4 H :    0.159696
   5 H :    0.162981
   6 O :   -0.312653
   7 H :    0.146847
   8 H :    0.164602
   9 O :   -0.285180
  10 H :    0.172763
  11 H :    0.182590
  12 O :   -0.348141
  13 H :    0.147497
  14 H :    0.135816
  15 O :   -0.376412
  16 H :    0.147409
  17 H :    0.142952
  18 O :   -0.344558
  19 H :    0.159818
  20 H :    0.147119

-------------------------------
LOEWDIN REDUCED ORBITAL CHARGES
-------------------------------
  0 O s       :     3.460364  s :     3.460364
      pz      :     1.671496  p :     4.762993
      px      :     1.362344
      py      :     1.729153
      dz2     :     0.011124  d :     0.058785
      dxz     :     0.011976
      dyz     :     0.011112
      dx2y2   :     0.009601
      dxy     :     0.014973
      f0      :     0.000479  f :     0.004845
      f+1     :     0.000863
      f-1     :     0.000658
      f+2     :     0.000410
      f-2     :     0.001007
      f+3     :     0.000478
      f-3     :     0.000951
  1 H s       :     0.664799  s :     0.664799
      pz      :     0.067972  p :     0.166810
      px      :     0.044631
      py      :     0.054207
  2 H s       :     0.654488  s :     0.654488
      pz      :     0.034807  p :     0.151925
      px      :     0.072097
      py      :     0.045021
  3 O s       :     3.450959  s :     3.450959
      pz      :     1.542704  p :     4.762684
      px      :     1.515995
      py      :     1.703985
      dz2     :     0.020496  d :     0.059552
      dxz     :     0.006954
      dyz     :     0.007405
      dx2y2   :     0.009481
      dxy     :     0.015216
      f0      :     0.000822  f :     0.004942
      f+1     :     0.000992
      f-1     :     0.000738
      f+2     :     0.000391
      f-2     :     0.000420
      f+3     :     0.000408
      f-3     :     0.001170
  4 H s       :     0.664475  s :     0.664475
      pz      :     0.096779  p :     0.175829
      px      :     0.036581
      py      :     0.042468
  5 H s       :     0.675507  s :     0.675507
      pz      :     0.032923  p :     0.161512
      px      :     0.072089
      py      :     0.056499
  6 O s       :     3.459813  s :     3.459813
      pz      :     1.536523  p :     4.789739
      px      :     1.764745
      py      :     1.488472
      dz2     :     0.020044  d :     0.058281
      dxz     :     0.006975
      dyz     :     0.009389
      dx2y2   :     0.010539
      dxy     :     0.011334
      f0      :     0.000788  f :     0.004820
      f+1     :     0.000591
      f-1     :     0.001194
      f+2     :     0.000416
      f-2     :     0.000419
      f+3     :     0.000960
      f-3     :     0.000452
  7 H s       :     0.662696  s :     0.662696
      pz      :     0.029987  p :     0.190456
      px      :     0.053906
      py      :     0.106563
  8 H s       :     0.672257  s :     0.672257
      pz      :     0.079963  p :     0.163141
      px      :     0.044989
      py      :     0.038190
  9 O s       :     3.465174  s :     3.465174
      pz      :     1.539664  p :     4.755536
      px      :     1.456807
      py      :     1.759065
      dz2     :     0.020758  d :     0.059618
      dxz     :     0.009330
      dyz     :     0.006990
      dx2y2   :     0.010827
      dxy     :     0.011713
      f0      :     0.000770  f :     0.004852
      f+1     :     0.001188
      f-1     :     0.000599
      f+2     :     0.000414
      f-2     :     0.000416
      f+3     :     0.000453
      f-3     :     0.001012
 10 H s       :     0.665583  s :     0.665583
      pz      :     0.081299  p :     0.161654
      px      :     0.036238
      py      :     0.044117
 11 H s       :     0.660423  s :     0.660423
      pz      :     0.030141  p :     0.156987
      px      :     0.076376
      py      :     0.050470
 12 O s       :     3.453583  s :     3.453583
      pz      :     1.535858  p :     4.833204
      px      :     1.474306
      py      :     1.823039
      dz2     :     0.019016  d :     0.056593
      dxz     :     0.009135
      dyz     :     0.007194
      dx2y2   :     0.009452
      dxy     :     0.011796
      f0      :     0.000792  f :     0.004761
      f+1     :     0.001141
      f-1     :     0.000573
      f+2     :     0.000416
      f-2     :     0.000416
      f+3     :     0.000446
      f-3     :     0.000978
 13 H s       :     0.677101  s :     0.677101
      pz      :     0.092441  p :     0.175402
      px      :     0.038110
      py      :     0.044852
 14 H s       :     0.673299  s :     0.673299
      pz      :     0.031689  p :     0.190884
      px      :     0.104788
      py      :     0.054406
 15 O s       :     3.465372  s :     3.465372
      pz      :     1.693945  p :     4.849414
      px      :     1.767518
      py      :     1.387951
      dz2     :     0.009749  d :     0.056815
      dxz     :     0.011327
      dyz     :     0.012437
      dx2y2   :     0.008877
      dxy     :     0.014424
      f0      :     0.000454  f :     0.004811
      f+1     :     0.000651
      f-1     :     0.000863
      f+2     :     0.000410
      f-2     :     0.001045
      f+3     :     0.000912
      f-3     :     0.000476
 16 H s       :     0.684607  s :     0.684607
      pz      :     0.066907  p :     0.167985
      px      :     0.054961
      py      :     0.046117
 17 H s       :     0.659945  s :     0.659945
      pz      :     0.034987  p :     0.197103
      px      :     0.048932
      py      :     0.113184
 18 O s       :     3.464221  s :     3.464221
      pz      :     1.498585  p :     4.817061
      px      :     1.779561
      py      :     1.538915
      dz2     :     0.021301  d :     0.058376
      dxz     :     0.007803
      dyz     :     0.007335
      dx2y2   :     0.007580
      dxy     :     0.014357
      f0      :     0.000917  f :     0.004900
      f+1     :     0.000706
      f-1     :     0.001008
      f+2     :     0.000390
      f-2     :     0.000421
      f+3     :     0.001081
      f-3     :     0.000377
 19 H s       :     0.677998  s :     0.677998
      pz      :     0.080566  p :     0.162184
      px      :     0.044236
      py      :     0.037382
 20 H s       :     0.677101  s :     0.677101
      pz      :     0.030834  p :     0.175780
      px      :     0.059224
      py      :     0.085722


                      *****************************
                      * MAYER POPULATION ANALYSIS *
                      *****************************

  NA   - Mulliken gross atomic population
  ZA   - Total nuclear charge
  QA   - Mulliken gross atomic charge
  VA   - Mayer's total valence
  BVA  - Mayer's bonded valence
  FA   - Mayer's free valence

  ATOM       NA         ZA         QA         VA         BVA        FA
  0 O      8.7160     8.0000    -0.7160     2.1047     1.7190     0.3858
  1 H      0.6350     1.0000     0.3650     0.8867     0.8422     0.0445
  2 H      0.6244     1.0000     0.3756     0.8791     0.8325     0.0465
  3 O      8.6925     8.0000    -0.6925     2.0963     1.7144     0.3820
  4 H      0.6095     1.0000     0.3905     0.8905     0.8483     0.0422
  5 H      0.6685     1.0000     0.3315     0.9128     0.8643     0.0485
  6 O      8.7146     8.0000    -0.7146     2.0606     1.6747     0.3859
  7 H      0.6264     1.0000     0.3736     0.9153     0.8711     0.0442
  8 H      0.6550     1.0000     0.3450     0.9004     0.8528     0.0476
  9 O      8.6880     8.0000    -0.6880     2.1208     1.7375     0.3833
 10 H      0.6425     1.0000     0.3575     0.8908     0.8446     0.0462
 11 H      0.6292     1.0000     0.3708     0.8932     0.8475     0.0457
 12 O      8.7463     8.0000    -0.7463     2.0256     1.6356     0.3900
 13 H      0.6330     1.0000     0.3670     0.9044     0.8601     0.0443
 14 H      0.6604     1.0000     0.3396     0.9468     0.8993     0.0475
 15 O      8.7394     8.0000    -0.7394     2.0132     1.6258     0.3873
 16 H      0.6778     1.0000     0.3222     0.9162     0.8680     0.0482
 17 H      0.6288     1.0000     0.3712     0.9120     0.8673     0.0447
 18 O      8.7051     8.0000    -0.7051     2.0714     1.6882     0.3832
 19 H      0.6667     1.0000     0.3333     0.9104     0.8622     0.0482
 20 H      0.6407     1.0000     0.3593     0.9142     0.8695     0.0447

  Mayer bond orders larger than 0.100000
B(  0-O ,  1-H ) :   0.8316 B(  0-O ,  2-H ) :   0.8170 B(  3-O ,  4-H ) :   0.7906 
B(  3-O ,  5-H ) :   0.8519 B(  6-O ,  7-H ) :   0.7675 B(  6-O ,  8-H ) :   0.8455 
B(  7-H ,  9-O ) :   0.1002 B(  9-O , 10-H ) :   0.8357 B(  9-O , 11-H ) :   0.8188 
B( 12-O , 13-H ) :   0.8208 B( 12-O , 14-H ) :   0.7802 B( 15-O , 16-H ) :   0.8620 
B( 15-O , 17-H ) :   0.7760 B( 18-O , 19-H ) :   0.8534 B( 18-O , 20-H ) :   0.8211 



----------------------------------
MP2 DERIVATIVE INTEGRAL GENERATION
----------------------------------


Input Wavefunction Amplitudes       ... 12h2o.su.etal.mol1,3,5,6,7,10,11-orca.engrad-mp2.def2tzvp.frozencore.mp2tsaa.tmp
Input Correlated Electron Density   ... 12h2o.su.etal.mol1,3,5,6,7,10,11-orca.engrad-mp2.def2tzvp.frozencore.pmp2re
Input Energy Weighted Density       ... 12h2o.su.etal.mol1,3,5,6,7,10,11-orca.engrad-mp2.def2tzvp.frozencore.wmp2.tmp
Input SCF Electron Density          ... 12h2o.su.etal.mol1,3,5,6,7,10,11-orca.engrad-mp2.def2tzvp.frozencore.scfp

One-Electron Terms    ...
                        ... One-Electron Terms done
Prescreening matrices              ... done

Batch handling in the gradient evaluation:
Memory available                      ... 8000.0 MB
Memory per occupied orbital in Q2     ...   19.4 MB
Memory per occupied orbital in Q3     ...    0.1 MB
Total memory requirement per |i>      ...   19.5 MB
Max. Number of orbitals possible      ...    410
Number of orbitals treated per batch  ...     28
Number of batches to be done          ...      1
Batch   0: i=    7 ...    34

---------------------------------------
MP2 TOTAL ENERGY:     -534.247168824 Eh
---------------------------------------

The final MP2 gradient
  0:  -0.02542262   0.00844658  -0.00204060
  1:  -0.00008377   0.00245039  -0.00292726
  2:   0.02550538  -0.00773343   0.00140927
  3:  -0.00841204   0.01211760   0.00241844
  4:   0.00070514  -0.00162626  -0.00536586
  5:   0.01007490  -0.00505817   0.00077253
  6:  -0.00076373   0.00149025   0.01042321
  7:  -0.00065632   0.00126060   0.00155309
  8:  -0.00174152  -0.00086637  -0.00947555
  9:   0.01397018  -0.00317966  -0.01238312
 10:   0.00151885  -0.00187520   0.00638104
 11:  -0.01417634   0.00377265   0.00508016
 12:  -0.00241068   0.00478231  -0.00056802
 13:  -0.00141808  -0.00248206   0.00624988
 14:   0.00539694  -0.00321331  -0.00240418
 15:   0.00226776   0.00830757  -0.00076681
 16:   0.00009409   0.00194562  -0.00064728
 17:  -0.00475573  -0.01704609   0.00006291
 18:   0.00051121   0.00212772   0.00929737
 19:   0.00117115   0.00206341  -0.00936016
 20:  -0.00137478  -0.00568418   0.00229096

-----------------------------------
NORM OF THE MP2 GRADIENT:  0.058523
-----------------------------------

-------------------------   --------------------
FINAL SINGLE POINT ENERGY      -534.247168823630
-------------------------   --------------------


                            ***************************************
                            *     ORCA property calculations      *
                            ***************************************

                                    ---------------------
                                    Active property flags
                                    ---------------------
   (+) Dipole Moment


------------------------------------------------------------------------------
                       ORCA ELECTRIC PROPERTIES CALCULATION
------------------------------------------------------------------------------

Dipole Moment Calculation                       ... on
Quadrupole Moment Calculation                   ... off
Polarizability Calculation                      ... off
GBWName                                         ... 12h2o.su.etal.mol1,3,5,6,7,10,11-orca.engrad-mp2.def2tzvp.frozencore.gbw
Electron density file                           ... 12h2o.su.etal.mol1,3,5,6,7,10,11-orca.engrad-mp2.def2tzvp.frozencore.scfp
The origin for moment calculation is the CENTER OF MASS  = (-1.168345,  0.010618 -0.000184)

-------------
DIPOLE MOMENT
-------------
                                X             Y             Z
Electronic contribution:      0.09899      -0.03489       0.28850
Nuclear contribution   :     -0.02691      -1.55436       0.77428
                        -----------------------------------------
Total Dipole Moment    :      0.07208      -1.58925       1.06278
                        -----------------------------------------
Magnitude (a.u.)       :      1.91322
Magnitude (Debye)      :      4.86301



--------------------
Rotational spectrum 
--------------------
 
Rotational constants in cm-1:     0.038466     0.021816     0.020295 
Rotational constants in MHz :  1153.185423   654.018101   608.433154 

 Dipole components along the rotational axes: 
x,y,z [a.u.] :     1.110907     1.156369     1.043600 
x,y,z [Debye]:     2.823700     2.939256     2.652620 

 

                         *** MP2 UNRELAXED DENSITY ***

------------------------------------------------------------------------------
                       ORCA ELECTRIC PROPERTIES CALCULATION
------------------------------------------------------------------------------

Dipole Moment Calculation                       ... on
Quadrupole Moment Calculation                   ... off
Polarizability Calculation                      ... off
GBWName                                         ... 12h2o.su.etal.mol1,3,5,6,7,10,11-orca.engrad-mp2.def2tzvp.frozencore.gbw
Electron density file                           ... 12h2o.su.etal.mol1,3,5,6,7,10,11-orca.engrad-mp2.def2tzvp.frozencore.pmp2ur
The origin for moment calculation is the CENTER OF MASS  = (-1.168345,  0.010618 -0.000184)

-------------
DIPOLE MOMENT
-------------
                                X             Y             Z
Electronic contribution:      0.10046      -0.01999       0.28457
Nuclear contribution   :     -0.02691      -1.55436       0.77428
                        -----------------------------------------
Total Dipole Moment    :      0.07355      -1.57435       1.05884
                        -----------------------------------------
Magnitude (a.u.)       :      1.89872
Magnitude (Debye)      :      4.82615



--------------------
Rotational spectrum 
--------------------
 
Rotational constants in cm-1:     0.038466     0.021816     0.020295 
Rotational constants in MHz :  1153.185423   654.018101   608.433154 

 Dipole components along the rotational axes: 
x,y,z [a.u.] :     1.106554     1.144071     1.035260 
x,y,z [Debye]:     2.812636     2.907997     2.631422 

 

                           *** MP2 RELAXED DENSITY ***

------------------------------------------------------------------------------
                       ORCA ELECTRIC PROPERTIES CALCULATION
------------------------------------------------------------------------------

Dipole Moment Calculation                       ... on
Quadrupole Moment Calculation                   ... off
Polarizability Calculation                      ... off
GBWName                                         ... 12h2o.su.etal.mol1,3,5,6,7,10,11-orca.engrad-mp2.def2tzvp.frozencore.gbw
Electron density file                           ... 12h2o.su.etal.mol1,3,5,6,7,10,11-orca.engrad-mp2.def2tzvp.frozencore.pmp2re
The origin for moment calculation is the CENTER OF MASS  = (-1.168345,  0.010618 -0.000184)

-------------
DIPOLE MOMENT
-------------
                                X             Y             Z
Electronic contribution:      0.12184      -0.00164       0.28506
Nuclear contribution   :     -0.02691      -1.55436       0.77428
                        -----------------------------------------
Total Dipole Moment    :      0.09493      -1.55600       1.05933
                        -----------------------------------------
Magnitude (a.u.)       :      1.88476
Magnitude (Debye)      :      4.79069



--------------------
Rotational spectrum 
--------------------
 
Rotational constants in cm-1:     0.038466     0.021816     0.020295 
Rotational constants in MHz :  1153.185423   654.018101   608.433154 

 Dipole components along the rotational axes: 
x,y,z [a.u.] :     1.106866     1.116265     1.039778 
x,y,z [Debye]:     2.813429     2.837321     2.642905 

 

Timings for individual modules:

Sum of individual times         ...      101.352 sec (=   1.689 min)
GTO integral calculation        ...        0.954 sec (=   0.016 min)   0.9 %
SCF iterations                  ...       16.892 sec (=   0.282 min)  16.7 %
MP2 module                      ...       83.506 sec (=   1.392 min)  82.4 %
                             ****ORCA TERMINATED NORMALLY****
TOTAL RUN TIME: 0 days 0 hours 1 minutes 42 seconds 424 msec
