
                                 *****************
                                 * O   R   C   A *
                                 *****************

           --- An Ab Initio, DFT and Semiempirical electronic structure package ---

                  #######################################################
                  #                        -***-                        #
                  #          Department of theory and spectroscopy      #
                  #               Directorship: Frank Neese             #
                  #        Max Planck Institute fuer Kohlenforschung    #
                  #                Kaiser Wilhelm Platz 1               #
                  #                 D-45470 Muelheim/Ruhr               #
                  #                      Germany                        #
                  #                                                     #
                  #                  All rights reserved                #
                  #                        -***-                        #
                  #######################################################


                         Program Version 4.2.0 -  RELEASE  -


 With contributions from (in alphabetic order):
   Daniel Aravena         : Magnetic Suceptibility
   Michael Atanasov       : Ab Initio Ligand Field Theory (pilot matlab implementation)
   Alexander A. Auer      : GIAO ZORA, VPT2
   Ute Becker             : Parallelization
   Giovanni Bistoni       : ED, misc. LED, open-shell LED, HFLED
   Martin Brehm           : Molecular dynamics
   Dmytro Bykov           : SCF Hessian
   Vijay G. Chilkuri      : MRCI spin determinant printing, contributions to CSF-ICE
   Dipayan Datta          : RHF DLPNO-CCSD density
   Achintya Kumar Dutta   : EOM-CC, STEOM-CC
   Dmitry Ganyushin       : Spin-Orbit,Spin-Spin,Magnetic field MRCI
   Miquel Garcia          : C-PCM Hessian, Gaussian charge scheme
   Yang Guo               : DLPNO-NEVPT2, CIM, IAO-localization
   Andreas Hansen         : Spin unrestricted coupled pair/coupled cluster methods
   Benjamin Helmich-Paris : CASSCF linear response (MC-RPA)
   Lee Huntington         : MR-EOM, pCC
   Robert Izsak           : Overlap fitted RIJCOSX, COSX-SCS-MP3, EOM
   Christian Kollmar      : KDIIS, OOCD, Brueckner-CCSD(T), CCSD density
   Simone Kossmann        : Meta GGA functionals, TD-DFT gradient, OOMP2, MP2 Hessian
   Martin Krupicka        : AUTO-CI
   Lucas Lang             : DCDCAS
   Dagmar Lenk            : GEPOL surface, SMD
   Dimitrios Liakos       : Extrapolation schemes; Compound Job, initial MDCI parallelization
   Dimitrios Manganas     : Further ROCIS development; embedding schemes
   Dimitrios Pantazis     : SARC Basis sets
   Taras Petrenko         : DFT Hessian,TD-DFT gradient, ASA, ECA, R-Raman, ABS, FL, XAS/XES, NRVS
   Peter Pinski           : DLPNO-MP2, DLPNO-MP2 Gradient
   Christoph Reimann      : Effective Core Potentials
   Marius Retegan         : Local ZFS, SOC
   Christoph Riplinger    : Optimizer, TS searches, QM/MM, DLPNO-CCSD(T), (RO)-DLPNO pert. Triples
   Tobias Risthaus        : Range-separated hybrids, TD-DFT gradient, RPA, STAB
   Michael Roemelt        : Original ROCIS implementation
   Masaaki Saitow         : Open-shell DLPNO-CCSD energy and density
   Barbara Sandhoefer     : DKH picture change effects
   Avijit Sen             : IP-ROCIS
   Kantharuban Sivalingam : CASSCF convergence, NEVPT2, FIC-MRCI
   Bernardo de Souza      : ESD, SOC TD-DFT
   Georgi Stoychev        : AutoAux, RI-MP2 NMR
   Willem Van den Heuvel  : Paramagnetic NMR
   Boris Wezisla          : Elementary symmetry handling
   Frank Wennmohs         : Technical directorship


 We gratefully acknowledge several colleagues who have allowed us to
 interface, adapt or use parts of their codes:
   Stefan Grimme, W. Hujo, H. Kruse,             : VdW corrections, initial TS optimization,
                  C. Bannwarth                     DFT functionals, gCP, sTDA/sTD-DF
   Ed Valeev, F. Pavosevic, A. Kumar             : LibInt (2-el integral package), F12 methods
   Garnet Chan, S. Sharma, J. Yang, R. Olivares  : DMRG
   Ulf Ekstrom                                   : XCFun DFT Library
   Mihaly Kallay                                 : mrcc  (arbitrary order and MRCC methods)
   Andreas Klamt, Michael Diedenhofen            : otool_cosmo (COSMO solvation model)
   Jiri Pittner, Ondrej Demel                    : Mk-CCSD
   Frank Weinhold                                : gennbo (NPA and NBO analysis)
   Christopher J. Cramer and Donald G. Truhlar   : smd solvation model
   Lars Goerigk                                  : TD-DFT with DH, B97 family of functionals
   V. Asgeirsson, H. Jonsson                     : NEB implementation
   FAccTs GmbH                                   : IRC, NEB, NEB-TS, Multilevel, MM, QM/MM, CI optimization
   S Lehtola, MJT Oliveira, MAL Marques          : LibXC Library


 Your calculation uses the libint2 library for the computation of 2-el integrals
 For citations please refer to: http://libint.valeyev.net

 Your ORCA version has been built with support for libXC version: 4.2.3
 For citations please refer to: https://tddft.org/programs/libxc/

 This ORCA versions uses:
   CBLAS   interface :  Fast vector & matrix operations
   LAPACKE interface :  Fast linear algebra routines
   SCALAPACK package :  Parallel linear algebra routines


----- Orbital basis set information -----
Your calculation utilizes the basis: def2-TZVP
   F. Weigend and R. Ahlrichs, Phys. Chem. Chem. Phys. 7, 3297 (2005).

================================================================================
                                        WARNINGS
                       Please study these warnings very carefully!
================================================================================


WARNING: The frozen-core approximation for MP2-gradient calculations is turned on by default.

INFO   : the flag for use of LIBINT has been found!

================================================================================
                                       INPUT FILE
================================================================================
NAME = 12meoh.boyd.etal.mol7-orca.engrad-mp2.def2tzvp.frozencore.inp
|  1> # 12meoh.boyd.etal.mol7
|  2> ! MP2 def2-TZVP EnGrad TightSCF
|  3> 
|  4> %pal
|  5>     nprocs 6
|  6> end
|  7> 
|  8> %maxcore 8000
|  9> 
| 10> %scf
| 11>     ConvForced true
| 12> end
| 13> 
| 14> *xyz 0 1
| 15> O   4.310535586  -1.588322800   0.656128299
| 16> H   3.804372199  -1.630404735  -0.196849819
| 17> C   4.312298137  -2.894980854   1.222112691
| 18> H   4.713177833  -2.819907076   2.237066773
| 19> H   4.957796734  -3.574699304   0.648211180
| 20> H   3.302735989  -3.324433205   1.269756773
| 21> *
| 22> 
| 23>                          ****END OF INPUT****
================================================================================

                     *******************************
                     * Energy+Gradient Calculation *
                     *******************************

---------------------------------
CARTESIAN COORDINATES (ANGSTROEM)
---------------------------------
  O      4.310536   -1.588323    0.656128
  H      3.804372   -1.630405   -0.196850
  C      4.312298   -2.894981    1.222113
  H      4.713178   -2.819907    2.237067
  H      4.957797   -3.574699    0.648211
  H      3.302736   -3.324433    1.269757

----------------------------
CARTESIAN COORDINATES (A.U.)
----------------------------
  NO LB      ZA    FRAG     MASS         X           Y           Z
   0 O     8.0000    0    15.999    8.145732   -3.001495    1.239903
   1 H     1.0000    0     1.008    7.189222   -3.081018   -0.371992
   2 C     6.0000    0    12.011    8.149062   -5.470721    2.309458
   3 H     1.0000    0     1.008    8.906615   -5.328852    4.227444
   4 H     1.0000    0     1.008    9.368878   -6.755203    1.224942
   5 H     1.0000    0     1.008    6.241267   -6.282268    2.399493

--------------------------------
INTERNAL COORDINATES (ANGSTROEM)
--------------------------------
 O      0   0   0     0.000000000000     0.00000000     0.00000000
 H      1   0   0     0.992745653921     0.00000000     0.00000000
 C      1   2   0     1.423972158666   107.65251732     0.00000000
 H      3   1   2     1.093833804276   107.83521386   189.70245649
 H      3   1   2     1.099112621312   111.14100782    71.31158364
 H      3   1   2     1.098141617007   112.02184717   309.48604457

---------------------------
INTERNAL COORDINATES (A.U.)
---------------------------
 O      0   0   0     0.000000000000     0.00000000     0.00000000
 H      1   0   0     1.876017406552     0.00000000     0.00000000
 C      1   2   0     2.690917402208   107.65251732     0.00000000
 H      3   1   2     2.067046326107   107.83521386   189.70245649
 H      3   1   2     2.077021844616   111.14100782    71.31158364
 H      3   1   2     2.075186912405   112.02184717   309.48604457

---------------------
BASIS SET INFORMATION
---------------------
There are 3 groups of distinct atoms

 Group   1 Type O   : 11s6p2d1f contracted to 5s3p2d1f pattern {62111/411/11/1}
 Group   2 Type H   : 5s1p contracted to 3s1p pattern {311/1}
 Group   3 Type C   : 11s6p2d1f contracted to 5s3p2d1f pattern {62111/411/11/1}

Atom   0O    basis set group =>   1
Atom   1H    basis set group =>   2
Atom   2C    basis set group =>   3
Atom   3H    basis set group =>   2
Atom   4H    basis set group =>   2
Atom   5H    basis set group =>   2


           ************************************************************
           *        Program running with 6 parallel MPI-processes     *
           *              working on a common directory               *
           ************************************************************
------------------------------------------------------------------------------
                           ORCA GTO INTEGRAL CALCULATION
------------------------------------------------------------------------------

                         BASIS SET STATISTICS AND STARTUP INFO

 # of primitive gaussian shells          ...   64
 # of primitive gaussian functions       ...  124
 # of contracted shells                  ...   38
 # of contracted basis functions         ...   86
 Highest angular momentum                ...    3
 Maximum contraction depth               ...    6
 Integral package used                   ... LIBINT
 Integral threshhold            Thresh   ...  2.500e-11
 Primitive cut-off              TCut     ...  2.500e-12


------------------------------ INTEGRAL EVALUATION ----------------------------


 * One electron integrals 
 Pre-screening matrix                    ... done
 Shell pair data                         ... done (   0.000 sec)



           ************************************************************
           *        Program running with 6 parallel MPI-processes     *
           *              working on a common directory               *
           ************************************************************
-------------------------------------------------------------------------------
                                 ORCA SCF
-------------------------------------------------------------------------------

------------
SCF SETTINGS
------------
Hamiltonian:
 Ab initio Hamiltonian  Method          .... Hartree-Fock(GTOs)


General Settings:
 Integral files         IntName         .... 12meoh.boyd.etal.mol7-orca.engrad-mp2.def2tzvp.frozencore
 Hartree-Fock type      HFTyp           .... RHF
 Total Charge           Charge          ....    0
 Multiplicity           Mult            ....    1
 Number of Electrons    NEL             ....   18
 Basis Dimension        Dim             ....   86
 Nuclear Repulsion      ENuc            ....     40.0389248277 Eh

Convergence Acceleration:
 DIIS                   CNVDIIS         .... on
   Start iteration      DIISMaxIt       ....    12
   Startup error        DIISStart       ....  0.200000
   # of expansion vecs  DIISMaxEq       ....     5
   Bias factor          DIISBfac        ....   1.050
   Max. coefficient     DIISMaxC        ....  10.000
 Newton-Raphson         CNVNR           .... off
 SOSCF                  CNVSOSCF        .... on
   Start iteration      SOSCFMaxIt      ....   150
   Startup grad/error   SOSCFStart      ....  0.003300
 Level Shifting         CNVShift        .... on
   Level shift para.    LevelShift      ....    0.2500
   Turn off err/grad.   ShiftErr        ....    0.0010
 Zerner damping         CNVZerner       .... off
 Static damping         CNVDamp         .... on
   Fraction old density DampFac         ....    0.7000
   Max. Damping (<1)    DampMax         ....    0.9800
   Min. Damping (>=0)   DampMin         ....    0.0000
   Turn off err/grad.   DampErr         ....    0.1000
 Fernandez-Rico         CNVRico         .... off

SCF Procedure:
 Maximum # iterations   MaxIter         ....   125
 SCF integral mode      SCFMode         .... Direct
   Integral package                     .... LIBINT
 Reset frequency        DirectResetFreq ....    20
 Integral Threshold     Thresh          ....  2.500e-11 Eh
 Primitive CutOff       TCut            ....  2.500e-12 Eh

Convergence Tolerance:
 Convergence Check Mode ConvCheckMode   .... Total+1el-Energy
 Convergence forced     ConvForced      .... 1
 Energy Change          TolE            ....  1.000e-08 Eh
 1-El. energy change                    ....  1.000e-05 Eh
 Orbital Gradient       TolG            ....  1.000e-05
 Orbital Rotation angle TolX            ....  1.000e-05
 DIIS Error             TolErr          ....  5.000e-07


Diagonalization of the overlap matrix:
Smallest eigenvalue                        ... 1.678e-03
Time for diagonalization                   ...    0.002 sec
Threshold for overlap eigenvalues          ... 1.000e-08
Number of eigenvalues below threshold      ... 0
Time for construction of square roots      ...    0.001 sec
Total time needed                          ...    0.002 sec

-------------------
DFT GRID GENERATION
-------------------

General Integration Accuracy     IntAcc      ...  4.340
Radial Grid Type                 RadialGrid  ... Gauss-Chebyshev
Angular Grid (max. acc.)         AngularGrid ... Lebedev-110
Angular grid pruning method      GridPruning ... 3 (G Style)
Weight generation scheme         WeightScheme... Becke
Basis function cutoff            BFCut       ...    1.0000e-11
Integration weight cutoff        WCut        ...    1.0000e-14
Grids for H and He will be reduced by one unit

# of grid points (after initial pruning)     ...   6548 (   0.0 sec)
# of grid points (after weights+screening)   ...   6390 (   0.0 sec)
nearest neighbour list constructed           ...    0.0 sec
Grid point re-assignment to atoms done       ...    0.0 sec
Grid point division into batches done        ...    0.0 sec
Reduced shell lists constructed in    0.0 sec

Total number of grid points                  ...     6390
Total number of batches                      ...      102
Average number of points per batch           ...       62
Average number of grid points per atom       ...     1065
Average number of shells per batch           ...    32.22 (84.80%)
Average number of basis functions per batch  ...    74.78 (86.95%)
Average number of large shells per batch     ...    29.72 (92.24%)
Average number of large basis fcns per batch ...    69.72 (93.24%)
Maximum spatial batch extension              ...  16.52, 14.52, 15.27 au
Average spatial batch extension              ...   0.73,  0.65,  0.69 au

Time for grid setup =    0.012 sec

------------------------------
INITIAL GUESS: MODEL POTENTIAL
------------------------------
Loading Hartree-Fock densities                     ... done
Calculating cut-offs                               ... done
Setting up the integral package                    ... done
Initializing the effective Hamiltonian             ... done
Starting the Coulomb interaction                   ... done (   0.0 sec)
Reading the grid                                   ... done
Mapping shells                                     ... done
Starting the XC term evaluation                    ... done (   0.0 sec)
Transforming the Hamiltonian                       ... done (   0.0 sec)
Diagonalizing the Hamiltonian                      ... done (   0.0 sec)
Back transforming the eigenvectors                 ... done (   0.0 sec)
Now organizing SCF variables                       ... done
                      ------------------
                      INITIAL GUESS DONE (   0.1 sec)
                      ------------------
--------------
SCF ITERATIONS
--------------
ITER       Energy         Delta-E        Max-DP      RMS-DP      [F,P]     Damp
               ***  Starting incremental Fock matrix formation  ***
  0   -114.9690118052   0.000000000000 0.03637874  0.00132633  0.2885807 0.7000
  1   -115.0128379080  -0.043826102811 0.02438886  0.00098119  0.2177894 0.7000
                               ***Turning on DIIS***
  2   -115.0381126202  -0.025274712215 0.01441311  0.00060398  0.1628117 0.7000
  3   -115.3291599395  -0.291047319329 0.00770181  0.00033553  0.1199521 0.7000
  4   -115.2786685074   0.050491432189 0.01647624  0.00080038  0.0845582 0.0000
  5   -115.0995964320   0.179072075373 0.00201037  0.00010662  0.0058137 0.0000
                      *** Initiating the SOSCF procedure ***
                           *** Shutting down DIIS ***
                      *** Re-Reading the Fockian *** 
                      *** Removing any level shift *** 
ITER      Energy       Delta-E        Grad      Rot      Max-DP    RMS-DP
  6   -115.09120371   0.0083927269  0.000774  0.000774  0.000821  0.000053
               *** Restarting incremental Fock matrix formation ***
  7   -115.08946132   0.0017423816  0.000360  0.000378  0.000464  0.000030
  8   -115.08946363  -0.0000023110  0.000189  0.000212  0.000326  0.000020
  9   -115.08946420  -0.0000005664  0.000032  0.000028  0.000054  0.000003
 10   -115.08946422  -0.0000000165  0.000007  0.000014  0.000016  0.000001
                 **** Energy Check signals convergence ****
              ***Rediagonalizing the Fockian in SOSCF/NRSCF***

               *****************************************************
               *                     SUCCESS                       *
               *           SCF CONVERGED AFTER  11 CYCLES          *
               *****************************************************


----------------
TOTAL SCF ENERGY
----------------

Total Energy       :         -115.08946422 Eh           -3131.74354 eV

Components:
Nuclear Repulsion  :           40.03892483 Eh            1089.51453 eV
Electronic Energy  :         -155.12838905 Eh           -4221.25807 eV
One Electron Energy:         -236.38547526 Eh           -6432.37580 eV
Two Electron Energy:           81.25708622 Eh            2211.11773 eV

Virial components:
Potential Energy   :         -229.96458817 Eh           -6257.65458 eV
Kinetic Energy     :          114.87512395 Eh            3125.91104 eV
Virial Ratio       :            2.00186585


---------------
SCF CONVERGENCE
---------------

  Last Energy change         ...   -1.3687e-09  Tolerance :   1.0000e-08
  Last MAX-Density change    ...    3.3944e-06  Tolerance :   1.0000e-07
  Last RMS-Density change    ...    2.2699e-07  Tolerance :   5.0000e-09
  Last Orbital Gradient      ...    1.9323e-06  Tolerance :   1.0000e-05
  Last Orbital Rotation      ...    5.1913e-06  Tolerance :   1.0000e-05

             **** THE GBW FILE WAS UPDATED (12meoh.boyd.etal.mol7-orca.engrad-mp2.def2tzvp.frozencore.gbw) ****
             **** DENSITY FILE WAS UPDATED (12meoh.boyd.etal.mol7-orca.engrad-mp2.def2tzvp.frozencore.scfp) ****
             **** ENERGY FILE WAS UPDATED (12meoh.boyd.etal.mol7-orca.engrad-mp2.def2tzvp.frozencore.en.tmp) ****
             **** THE GBW FILE WAS UPDATED (12meoh.boyd.etal.mol7-orca.engrad-mp2.def2tzvp.frozencore.gbw) ****
             **** DENSITY FILE WAS UPDATED (12meoh.boyd.etal.mol7-orca.engrad-mp2.def2tzvp.frozencore.scfp) ****
----------------
ORBITAL ENERGIES
----------------

  NO   OCC          E(Eh)            E(eV) 
   0   2.0000     -20.557352      -559.3940 
   1   2.0000     -11.271759      -306.7202 
   2   2.0000      -1.347046       -36.6550 
   3   2.0000      -0.919644       -25.0248 
   4   2.0000      -0.681886       -18.5551 
   5   2.0000      -0.617045       -16.7907 
   6   2.0000      -0.590835       -16.0774 
   7   2.0000      -0.500973       -13.6322 
   8   2.0000      -0.449110       -12.2209 
   9   0.0000       0.134830         3.6689 
  10   0.0000       0.175987         4.7889 
  11   0.0000       0.228008         6.2044 
  12   0.0000       0.231602         6.3022 
  13   0.0000       0.254892         6.9360 
  14   0.0000       0.332019         9.0347 
  15   0.0000       0.339101         9.2274 
  16   0.0000       0.460457        12.5297 
  17   0.0000       0.520793        14.1715 
  18   0.0000       0.571707        15.5569 
  19   0.0000       0.610112        16.6020 
  20   0.0000       0.620550        16.8860 
  21   0.0000       0.656490        17.8640 
  22   0.0000       0.683898        18.6098 
  23   0.0000       0.706050        19.2126 
  24   0.0000       0.765809        20.8387 
  25   0.0000       0.880254        23.9529 
  26   0.0000       0.920952        25.0604 
  27   0.0000       0.951314        25.8866 
  28   0.0000       1.089166        29.6377 
  29   0.0000       1.120722        30.4964 
  30   0.0000       1.245414        33.8894 
  31   0.0000       1.533368        41.7251 
  32   0.0000       1.655851        45.0580 
  33   0.0000       1.704897        46.3926 
  34   0.0000       1.771956        48.2174 
  35   0.0000       1.791319        48.7443 
  36   0.0000       1.800255        48.9874 
  37   0.0000       1.841613        50.1128 
  38   0.0000       1.862260        50.6747 
  39   0.0000       1.962905        53.4134 
  40   0.0000       2.139616        58.2219 
  41   0.0000       2.206998        60.0555 
  42   0.0000       2.245583        61.1054 
  43   0.0000       2.288779        62.2808 
  44   0.0000       2.300720        62.6058 
  45   0.0000       2.447456        66.5987 
  46   0.0000       2.539009        69.0899 
  47   0.0000       2.558001        69.6067 
  48   0.0000       2.603397        70.8420 
  49   0.0000       2.631203        71.5987 
  50   0.0000       2.696972        73.3883 
  51   0.0000       2.778689        75.6120 
  52   0.0000       2.839698        77.2721 
  53   0.0000       2.899913        78.9106 
  54   0.0000       3.043182        82.8092 
  55   0.0000       3.103541        84.4516 
  56   0.0000       3.148326        85.6703 
  57   0.0000       3.242720        88.2389 
  58   0.0000       3.356809        91.3434 
  59   0.0000       3.420186        93.0680 
  60   0.0000       3.535876        96.2161 
  61   0.0000       3.639434        99.0340 
  62   0.0000       3.666919        99.7819 
  63   0.0000       3.730303       101.5067 
  64   0.0000       3.861257       105.0702 
  65   0.0000       3.887998       105.7978 
  66   0.0000       3.901902       106.1762 
  67   0.0000       4.253919       115.7550 
  68   0.0000       4.501954       122.5044 
  69   0.0000       4.533721       123.3688 
  70   0.0000       4.707203       128.0895 
  71   0.0000       4.866903       132.4352 
  72   0.0000       5.694392       154.9523 
  73   0.0000       5.770733       157.0296 
  74   0.0000       5.880195       160.0083 
  75   0.0000       6.159691       167.6137 
  76   0.0000       6.171439       167.9334 
  77   0.0000       6.324310       172.0932 
  78   0.0000       6.663460       181.3220 
  79   0.0000       6.948637       189.0820 
  80   0.0000       7.155375       194.7076 
  81   0.0000       7.218454       196.4241 
  82   0.0000       7.456837       202.9108 
  83   0.0000       7.590293       206.5424 
  84   0.0000      23.358806       635.6254 
  85   0.0000      45.145750      1228.4783 

                    ********************************
                    * MULLIKEN POPULATION ANALYSIS *
                    ********************************

-----------------------
MULLIKEN ATOMIC CHARGES
-----------------------
   0 O :   -0.544230
   1 H :    0.329352
   2 C :   -0.076182
   3 H :    0.108623
   4 H :    0.090684
   5 H :    0.091754
Sum of atomic charges:    0.0000000

--------------------------------
MULLIKEN REDUCED ORBITAL CHARGES
--------------------------------
  0 O s       :     3.805439  s :     3.805439
      pz      :     1.445584  p :     4.704436
      px      :     1.789169
      py      :     1.469683
      dz2     :     0.007267  d :     0.032624
      dxz     :     0.006971
      dyz     :     0.005366
      dx2y2   :     0.009265
      dxy     :     0.003754
      f0      :     0.000167  f :     0.001732
      f+1     :     0.000577
      f-1     :     0.000121
      f+2     :     0.000389
      f-2     :     0.000091
      f+3     :     0.000135
      f-3     :     0.000252
  1 H s       :     0.627671  s :     0.627671
      pz      :     0.018129  p :     0.042977
      px      :     0.015559
      py      :     0.009289
  2 C s       :     3.194169  s :     3.194169
      pz      :     1.003071  p :     2.758136
      px      :     1.033904
      py      :     0.721161
      dz2     :     0.027729  d :     0.114965
      dxz     :     0.011959
      dyz     :     0.022888
      dx2y2   :     0.017669
      dxy     :     0.034720
      f0      :     0.000805  f :     0.008912
      f+1     :     0.000674
      f-1     :     0.001688
      f+2     :     0.001187
      f-2     :     0.001200
      f+3     :     0.001699
      f-3     :     0.001661
  3 H s       :     0.870220  s :     0.870220
      pz      :     0.013612  p :     0.021157
      px      :     0.005189
      py      :     0.002357
  4 H s       :     0.889100  s :     0.889100
      pz      :     0.005871  p :     0.020216
      px      :     0.007480
      py      :     0.006864
  5 H s       :     0.888270  s :     0.888270
      pz      :     0.003174  p :     0.019976
      px      :     0.012669
      py      :     0.004134


                     *******************************
                     * LOEWDIN POPULATION ANALYSIS *
                     *******************************

----------------------
LOEWDIN ATOMIC CHARGES
----------------------
   0 O :   -0.129876
   1 H :    0.188657
   2 C :   -0.335830
   3 H :    0.101156
   4 H :    0.087979
   5 H :    0.087914

-------------------------------
LOEWDIN REDUCED ORBITAL CHARGES
-------------------------------
  0 O s       :     3.395066  s :     3.395066
      pz      :     1.426128  p :     4.662173
      px      :     1.710436
      py      :     1.525609
      dz2     :     0.015952  d :     0.068510
      dxz     :     0.012440
      dyz     :     0.013480
      dx2y2   :     0.015980
      dxy     :     0.010658
      f0      :     0.000277  f :     0.004126
      f+1     :     0.000842
      f-1     :     0.000731
      f+2     :     0.000801
      f-2     :     0.000291
      f+3     :     0.000644
      f-3     :     0.000542
  1 H s       :     0.666470  s :     0.666470
      pz      :     0.066226  p :     0.144873
      px      :     0.050685
      py      :     0.027962
  2 C s       :     2.862484  s :     2.862484
      pz      :     1.047071  p :     2.992767
      px      :     1.083372
      py      :     0.862323
      dz2     :     0.088256  d :     0.423219
      dxz     :     0.037109
      dyz     :     0.086105
      dx2y2   :     0.085781
      dxy     :     0.125968
      f0      :     0.004553  f :     0.057361
      f+1     :     0.002511
      f-1     :     0.011785
      f+2     :     0.009231
      f-2     :     0.008679
      f+3     :     0.010625
      f-3     :     0.009976
  3 H s       :     0.840080  s :     0.840080
      pz      :     0.034933  p :     0.058764
      px      :     0.015784
      py      :     0.008047
  4 H s       :     0.853599  s :     0.853599
      pz      :     0.018122  p :     0.058422
      px      :     0.021549
      py      :     0.018751
  5 H s       :     0.853477  s :     0.853477
      pz      :     0.011769  p :     0.058609
      px      :     0.034197
      py      :     0.012643


                      *****************************
                      * MAYER POPULATION ANALYSIS *
                      *****************************

  NA   - Mulliken gross atomic population
  ZA   - Total nuclear charge
  QA   - Mulliken gross atomic charge
  VA   - Mayer's total valence
  BVA  - Mayer's bonded valence
  FA   - Mayer's free valence

  ATOM       NA         ZA         QA         VA         BVA        FA
  0 O      8.5442     8.0000    -0.5442     1.7947     1.7947    -0.0000
  1 H      0.6706     1.0000     0.3294     0.8987     0.8987     0.0000
  2 C      6.0762     6.0000    -0.0762     3.9008     3.9008     0.0000
  3 H      0.8914     1.0000     0.1086     0.9621     0.9621     0.0000
  4 H      0.9093     1.0000     0.0907     0.9605     0.9605    -0.0000
  5 H      0.9082     1.0000     0.0918     0.9617     0.9617     0.0000

  Mayer bond orders larger than 0.100000
B(  0-O ,  1-H ) :   0.8882 B(  0-O ,  2-C ) :   0.9340 B(  2-C ,  3-H ) :   0.9833 
B(  2-C ,  4-H ) :   0.9874 B(  2-C ,  5-H ) :   0.9881 

-------
TIMINGS
-------

Total SCF time: 0 days 0 hours 0 min 1 sec 

Total time                  ....       1.825 sec
Sum of individual times     ....       1.669 sec  ( 91.4%)

Fock matrix formation       ....       1.553 sec  ( 85.1%)
Diagonalization             ....       0.007 sec  (  0.4%)
Density matrix formation    ....       0.002 sec  (  0.1%)
Population analysis         ....       0.002 sec  (  0.1%)
Initial guess               ....       0.086 sec  (  4.7%)
Orbital Transformation      ....       0.000 sec  (  0.0%)
Orbital Orthonormalization  ....       0.000 sec  (  0.0%)
DIIS solution               ....       0.004 sec  (  0.2%)
SOSCF solution              ....       0.003 sec  (  0.1%)


           ************************************************************
           *        Program running with 6 parallel MPI-processes     *
           *              working on a common directory               *
           ************************************************************

------------------------------------------------------------------------------
                                ORCA  MP2 
------------------------------------------------------------------------------

Freezing NCore=4 chemical core electrons
MP2 will be done in the AO integral direct mode
The Q1-step will be done using symmetric double matrices
Dimension of the basis                    ...   86
Memory devoted for MP2                    ... 8000 MB   
Memory needed for all in one shot         ...    6 MB
Number of MOs that can be treated together... 3258      
MP2 density construction                  ... relaxed
The MP2 gradient is requested => amplitudes will be stored on disk
Total number of MOs              ...    7
Number of MOs treated per batch  ...    2 
Number of batches necessary      ...    1 
OPERATORS   0/  0 PASS   0
-----------------------------------------------
 MP2 CORRELATION ENERGY   :     -0.417133235 Eh
-----------------------------------------------


---------------------
MP2 DENSITY FORMATION
---------------------

Completing the external part of the density      ... done
Storing the unrelaxed density                    ... done

Calculating G(D)                                 ... done
Completing the Lagrangian                        ... done
Solving the Z-vector equations                   ... 

------------------------------------------------------------------------------
                           ORCA CP-SCF CALCULATION
------------------------------------------------------------------------------

Input orbitals are from        ... 12meoh.boyd.etal.mol7-orca.engrad-mp2.def2tzvp.frozencore.gbw
Input Perturbation             ... 12meoh.boyd.etal.mol7-orca.engrad-mp2.def2tzvp.frozencore.pin.tmp
Wavefunction output            ... 12meoh.boyd.etal.mol7-orca.engrad-mp2.def2tzvp.frozencore.pout.tmp
Perturbation mode              ... Real perturbation (singlet)
Solver                         ... POPLE
Max. number of iterations      ... 128
Convergence tolerance          ... 1.000e-08
Integral handling              ... Direct
Number of perturbations        ... 1
Number of operators            ... 1
Orbital ranges used for CP-SCF:
 Operator 0:  Orbitals   0...  8  to   9... 85
Variables per vector in CP-SCF ... 693
Number of vectors sought       ... 1
     CP-SCF ITERATION   0: 
     CP-SCF ITERATION   1:      0.000119050000
     CP-SCF ITERATION   2:      0.000005614390
     CP-SCF ITERATION   3:      0.000000800871
     CP-SCF ITERATION   4:      0.000000051560
     CP-SCF ITERATION   5:      0.000000001599
                                                 ... done
Finalizing the relaxed density                   ... done
Transforming P to the AO basis                   ... done
Storing the relaxed density                      ... done

------------------------------------
ENERGY WEIGHTED DENSITY FINALIZATION
------------------------------------

Gathering the parts of the W-matrix              ...                                                      done
Forming the Z-density                            ... done
Transforming Z to the AO basis                   ... done
Calculating G(Z)                                 ... done
Finalizing the W-matrix                          ...                                                      done
Transforming W to the AO basis and storing       ... done

                *********************************************
                * UNRELAXED MP2 DENSITY POPULATION ANALYSIS *
                *********************************************

------------------------------------------------------------------------------
                           ORCA POPULATION ANALYSIS
------------------------------------------------------------------------------
Input electron density              ... 12meoh.boyd.etal.mol7-orca.engrad-mp2.def2tzvp.frozencore.pmp2ur
BaseName (.gbw .S,...)              ... 12meoh.boyd.etal.mol7-orca.engrad-mp2.def2tzvp.frozencore

                    ********************************
                    * MULLIKEN POPULATION ANALYSIS *
                    ********************************

-----------------------
MULLIKEN ATOMIC CHARGES
-----------------------
   0 O :   -0.533205
   1 H :    0.326688
   2 C :   -0.092164
   3 H :    0.111391
   4 H :    0.093128
   5 H :    0.094163
Sum of atomic charges:    0.0000000

--------------------------------
MULLIKEN REDUCED ORBITAL CHARGES
--------------------------------
  0 O s       :     3.800190  s :     3.800190
      pz      :     1.435659  p :     4.668760
      px      :     1.776240
      py      :     1.456862
      dz2     :     0.012719  d :     0.059867
      dxz     :     0.012405
      dyz     :     0.010809
      dx2y2   :     0.014585
      dxy     :     0.009349
      f0      :     0.000546  f :     0.004388
      f+1     :     0.000933
      f-1     :     0.000513
      f+2     :     0.000766
      f-2     :     0.000471
      f+3     :     0.000526
      f-3     :     0.000633
  1 H s       :     0.628614  s :     0.628614
      pz      :     0.018268  p :     0.044698
      px      :     0.016254
      py      :     0.010175
  2 C s       :     3.192267  s :     3.192267
      pz      :     0.999748  p :     2.752058
      px      :     1.029499
      py      :     0.722811
      dz2     :     0.032092  d :     0.135596
      dxz     :     0.017001
      dyz     :     0.026533
      dx2y2   :     0.021328
      dxy     :     0.038641
      f0      :     0.001272  f :     0.012243
      f+1     :     0.001145
      f-1     :     0.002224
      f+2     :     0.001616
      f-2     :     0.001691
      f+3     :     0.002225
      f-3     :     0.002070
  3 H s       :     0.864371  s :     0.864371
      pz      :     0.014474  p :     0.024238
      px      :     0.006268
      py      :     0.003496
  4 H s       :     0.883458  s :     0.883458
      pz      :     0.006950  p :     0.023414
      px      :     0.008521
      py      :     0.007943
  5 H s       :     0.882680  s :     0.882680
      pz      :     0.004326  p :     0.023158
      px      :     0.013573
      py      :     0.005259


                     *******************************
                     * LOEWDIN POPULATION ANALYSIS *
                     *******************************

----------------------
LOEWDIN ATOMIC CHARGES
----------------------
   0 O :   -0.122092
   1 H :    0.186829
   2 C :   -0.346476
   3 H :    0.102913
   4 H :    0.089431
   5 H :    0.089395

-------------------------------
LOEWDIN REDUCED ORBITAL CHARGES
-------------------------------
  0 O s       :     3.391600  s :     3.391600
      pz      :     1.416055  p :     4.626304
      px      :     1.698062
      py      :     1.512187
      dz2     :     0.021559  d :     0.097153
      dxz     :     0.018362
      dyz     :     0.019118
      dx2y2   :     0.021997
      dxy     :     0.016117
      f0      :     0.000690  f :     0.007035
      f+1     :     0.001270
      f-1     :     0.001136
      f+2     :     0.001244
      f-2     :     0.000682
      f+3     :     0.001042
      f-3     :     0.000970
  1 H s       :     0.664723  s :     0.664723
      pz      :     0.067789  p :     0.148448
      px      :     0.051829
      py      :     0.028829
  2 C s       :     2.861339  s :     2.861339
      pz      :     1.041479  p :     2.978953
      px      :     1.077041
      py      :     0.860433
      dz2     :     0.092580  d :     0.443947
      dxz     :     0.042181
      dyz     :     0.089803
      dx2y2   :     0.089907
      dxy     :     0.129476
      f0      :     0.005367  f :     0.062238
      f+1     :     0.003256
      f-1     :     0.012315
      f+2     :     0.009952
      f-2     :     0.009283
      f+3     :     0.011196
      f-3     :     0.010868
  3 H s       :     0.833319  s :     0.833319
      pz      :     0.037246  p :     0.063768
      px      :     0.017163
      py      :     0.009359
  4 H s       :     0.846909  s :     0.846909
      pz      :     0.019720  p :     0.063660
      px      :     0.023223
      py      :     0.020716
  5 H s       :     0.846763  s :     0.846763
      pz      :     0.013043  p :     0.063841
      px      :     0.036533
      py      :     0.014266


                      *****************************
                      * MAYER POPULATION ANALYSIS *
                      *****************************

  NA   - Mulliken gross atomic population
  ZA   - Total nuclear charge
  QA   - Mulliken gross atomic charge
  VA   - Mayer's total valence
  BVA  - Mayer's bonded valence
  FA   - Mayer's free valence

  ATOM       NA         ZA         QA         VA         BVA        FA
  0 O      8.5332     8.0000    -0.5332     2.0930     1.6888     0.4043
  1 H      0.6733     1.0000     0.3267     0.9051     0.8524     0.0528
  2 C      6.0922     6.0000    -0.0922     4.0056     3.7272     0.2784
  3 H      0.8886     1.0000     0.1114     0.9710     0.9241     0.0469
  4 H      0.9069     1.0000     0.0931     0.9704     0.9212     0.0492
  5 H      0.9058     1.0000     0.0942     0.9717     0.9226     0.0491

  Mayer bond orders larger than 0.100000
B(  0-O ,  1-H ) :   0.8429 B(  0-O ,  2-C ) :   0.8749 B(  2-C ,  3-H ) :   0.9459 
B(  2-C ,  4-H ) :   0.9491 B(  2-C ,  5-H ) :   0.9500 


                *******************************************
                * RELAXED MP2 DENSITY POPULATION ANALYSIS *
                *******************************************

------------------------------------------------------------------------------
                           ORCA POPULATION ANALYSIS
------------------------------------------------------------------------------
Input electron density              ... 12meoh.boyd.etal.mol7-orca.engrad-mp2.def2tzvp.frozencore.pmp2re
BaseName (.gbw .S,...)              ... 12meoh.boyd.etal.mol7-orca.engrad-mp2.def2tzvp.frozencore

                    ********************************
                    * MULLIKEN POPULATION ANALYSIS *
                    ********************************

-----------------------
MULLIKEN ATOMIC CHARGES
-----------------------
   0 O :   -0.495821
   1 H :    0.321359
   2 C :   -0.174286
   3 H :    0.129367
   4 H :    0.109265
   5 H :    0.110116
Sum of atomic charges:    0.0000000

--------------------------------
MULLIKEN REDUCED ORBITAL CHARGES
--------------------------------
  0 O s       :     3.801934  s :     3.801934
      pz      :     1.423824  p :     4.631828
      px      :     1.762350
      py      :     1.445654
      dz2     :     0.012198  d :     0.057728
      dxz     :     0.011689
      dyz     :     0.010456
      dx2y2   :     0.013665
      dxy     :     0.009720
      f0      :     0.000535  f :     0.004331
      f+1     :     0.000907
      f-1     :     0.000519
      f+2     :     0.000746
      f-2     :     0.000476
      f+3     :     0.000533
      f-3     :     0.000616
  1 H s       :     0.633345  s :     0.633345
      pz      :     0.017656  p :     0.045296
      px      :     0.016830
      py      :     0.010810
  2 C s       :     3.214266  s :     3.214266
      pz      :     1.024026  p :     2.822110
      px      :     1.057218
      py      :     0.740867
      dz2     :     0.030520  d :     0.126219
      dxz     :     0.015707
      dyz     :     0.023905
      dx2y2   :     0.019595
      dxy     :     0.036491
      f0      :     0.001193  f :     0.011691
      f+1     :     0.001074
      f-1     :     0.002171
      f+2     :     0.001532
      f-2     :     0.001592
      f+3     :     0.002146
      f-3     :     0.001985
  3 H s       :     0.847550  s :     0.847550
      pz      :     0.013135  p :     0.023083
      px      :     0.006260
      py      :     0.003687
  4 H s       :     0.868412  s :     0.868412
      pz      :     0.006716  p :     0.022323
      px      :     0.008103
      py      :     0.007504
  5 H s       :     0.867844  s :     0.867844
      pz      :     0.004540  p :     0.022040
      px      :     0.012300
      py      :     0.005200


                     *******************************
                     * LOEWDIN POPULATION ANALYSIS *
                     *******************************

----------------------
LOEWDIN ATOMIC CHARGES
----------------------
   0 O :   -0.109116
   1 H :    0.189468
   2 C :   -0.381408
   3 H :    0.110090
   4 H :    0.095358
   5 H :    0.095608

-------------------------------
LOEWDIN REDUCED ORBITAL CHARGES
-------------------------------
  0 O s       :     3.394562  s :     3.394562
      pz      :     1.416191  p :     4.610791
      px      :     1.690925
      py      :     1.503675
      dz2     :     0.021336  d :     0.096618
      dxz     :     0.018066
      dyz     :     0.019034
      dx2y2   :     0.021562
      dxy     :     0.016620
      f0      :     0.000700  f :     0.007145
      f+1     :     0.001281
      f-1     :     0.001153
      f+2     :     0.001271
      f-2     :     0.000693
      f+3     :     0.001061
      f-3     :     0.000986
  1 H s       :     0.661445  s :     0.661445
      pz      :     0.067249  p :     0.149088
      px      :     0.052457
      py      :     0.029381
  2 C s       :     2.867260  s :     2.867260
      pz      :     1.055556  p :     3.018885
      px      :     1.093030
      py      :     0.870299
      dz2     :     0.090560  d :     0.434551
      dxz     :     0.040258
      dyz     :     0.086722
      dx2y2   :     0.087143
      dxy     :     0.129868
      f0      :     0.005240  f :     0.060712
      f+1     :     0.003175
      f-1     :     0.012000
      f+2     :     0.009776
      f-2     :     0.009080
      f+3     :     0.010733
      f-3     :     0.010708
  3 H s       :     0.825790  s :     0.825790
      pz      :     0.036816  p :     0.064120
      px      :     0.017497
      py      :     0.009806
  4 H s       :     0.840238  s :     0.840238
      pz      :     0.019948  p :     0.064404
      px      :     0.023342
      py      :     0.021114
  5 H s       :     0.839810  s :     0.839810
      pz      :     0.013556  p :     0.064582
      px      :     0.036204
      py      :     0.014822


                      *****************************
                      * MAYER POPULATION ANALYSIS *
                      *****************************

  NA   - Mulliken gross atomic population
  ZA   - Total nuclear charge
  QA   - Mulliken gross atomic charge
  VA   - Mayer's total valence
  BVA  - Mayer's bonded valence
  FA   - Mayer's free valence

  ATOM       NA         ZA         QA         VA         BVA        FA
  0 O      8.4958     8.0000    -0.4958     2.1471     1.7494     0.3977
  1 H      0.6786     1.0000     0.3214     0.9076     0.8547     0.0529
  2 C      6.1743     6.0000    -0.1743     4.0277     3.7516     0.2762
  3 H      0.8706     1.0000     0.1294     0.9625     0.9161     0.0463
  4 H      0.8907     1.0000     0.1093     0.9622     0.9136     0.0486
  5 H      0.8899     1.0000     0.1101     0.9653     0.9169     0.0485

  Mayer bond orders larger than 0.100000
B(  0-O ,  1-H ) :   0.8431 B(  0-O ,  2-C ) :   0.9268 B(  2-C ,  3-H ) :   0.9378 
B(  2-C ,  4-H ) :   0.9382 B(  2-C ,  5-H ) :   0.9401 


----------------------------------
MP2 DERIVATIVE INTEGRAL GENERATION
----------------------------------


Input Wavefunction Amplitudes       ... 12meoh.boyd.etal.mol7-orca.engrad-mp2.def2tzvp.frozencore.mp2tsaa.tmp
Input Correlated Electron Density   ... 12meoh.boyd.etal.mol7-orca.engrad-mp2.def2tzvp.frozencore.pmp2re
Input Energy Weighted Density       ... 12meoh.boyd.etal.mol7-orca.engrad-mp2.def2tzvp.frozencore.wmp2.tmp
Input SCF Electron Density          ... 12meoh.boyd.etal.mol7-orca.engrad-mp2.def2tzvp.frozencore.scfp

One-Electron Terms    ...
                        ... One-Electron Terms done
Prescreening matrices              ... done

Batch handling in the gradient evaluation:
Memory available                      ... 8000.0 MB
Memory per occupied orbital in Q2     ...    0.4 MB
Memory per occupied orbital in Q3     ...    0.0 MB
Total memory requirement per |i>      ...    0.4 MB
Max. Number of orbitals possible      ...  18729
Number of orbitals treated per batch  ...      7
Number of batches to be done          ...      1
Batch   0: i=    2 ...     8

---------------------------------------
MP2 TOTAL ENERGY:     -115.506597454 Eh
---------------------------------------

The final MP2 gradient
  0:   0.01393154   0.00117844   0.01921694
  1:  -0.01433370  -0.00003707  -0.02309829
  2:  -0.00080779   0.00300148   0.00328835
  3:   0.00199156  -0.00172038   0.00395301
  4:   0.00234092  -0.00108500  -0.00223040
  5:  -0.00312252  -0.00133748  -0.00112962

-----------------------------------
NORM OF THE MP2 GRADIENT:  0.037030
-----------------------------------

-------------------------   --------------------
FINAL SINGLE POINT ENERGY      -115.506597454136
-------------------------   --------------------


                            ***************************************
                            *     ORCA property calculations      *
                            ***************************************

                                    ---------------------
                                    Active property flags
                                    ---------------------
   (+) Dipole Moment


------------------------------------------------------------------------------
                       ORCA ELECTRIC PROPERTIES CALCULATION
------------------------------------------------------------------------------

Dipole Moment Calculation                       ... on
Quadrupole Moment Calculation                   ... off
Polarizability Calculation                      ... off
GBWName                                         ... 12meoh.boyd.etal.mol7-orca.engrad-mp2.def2tzvp.frozencore.gbw
Electron density file                           ... 12meoh.boyd.etal.mol7-orca.engrad-mp2.def2tzvp.frozencore.scfp
The origin for moment calculation is the CENTER OF MASS  = ( 8.119393, -4.224102  1.720112)

-------------
DIPOLE MOMENT
-------------
                                X             Y             Z
Electronic contribution:      0.05543       1.65735      -0.58823
Nuclear contribution   :     -0.38286      -2.24980       0.29384
                        -----------------------------------------
Total Dipole Moment    :     -0.32743      -0.59244      -0.29439
                        -----------------------------------------
Magnitude (a.u.)       :      0.73815
Magnitude (Debye)      :      1.87623



--------------------
Rotational spectrum 
--------------------
 
Rotational constants in cm-1:     4.192938     0.822452     0.791073 
Rotational constants in MHz : 125701.108047 24656.500366 23715.780902 

 Dipole components along the rotational axes: 
x,y,z [a.u.] :    -0.391339     0.625873     0.000113 
x,y,z [Debye]:    -0.994705     1.590843     0.000288 

 

                         *** MP2 UNRELAXED DENSITY ***

------------------------------------------------------------------------------
                       ORCA ELECTRIC PROPERTIES CALCULATION
------------------------------------------------------------------------------

Dipole Moment Calculation                       ... on
Quadrupole Moment Calculation                   ... off
Polarizability Calculation                      ... off
GBWName                                         ... 12meoh.boyd.etal.mol7-orca.engrad-mp2.def2tzvp.frozencore.gbw
Electron density file                           ... 12meoh.boyd.etal.mol7-orca.engrad-mp2.def2tzvp.frozencore.pmp2ur
The origin for moment calculation is the CENTER OF MASS  = ( 8.119393, -4.224102  1.720112)

-------------
DIPOLE MOMENT
-------------
                                X             Y             Z
Electronic contribution:      0.06068       1.67176      -0.58521
Nuclear contribution   :     -0.38286      -2.24980       0.29384
                        -----------------------------------------
Total Dipole Moment    :     -0.32218      -0.57803      -0.29138
                        -----------------------------------------
Magnitude (a.u.)       :      0.72306
Magnitude (Debye)      :      1.83788



--------------------
Rotational spectrum 
--------------------
 
Rotational constants in cm-1:     4.192938     0.822452     0.791073 
Rotational constants in MHz : 125701.108047 24656.500366 23715.780902 

 Dipole components along the rotational axes: 
x,y,z [a.u.] :    -0.379904     0.615217    -0.000096 
x,y,z [Debye]:    -0.965639     1.563758    -0.000245 

 

                           *** MP2 RELAXED DENSITY ***

------------------------------------------------------------------------------
                       ORCA ELECTRIC PROPERTIES CALCULATION
------------------------------------------------------------------------------

Dipole Moment Calculation                       ... on
Quadrupole Moment Calculation                   ... off
Polarizability Calculation                      ... off
GBWName                                         ... 12meoh.boyd.etal.mol7-orca.engrad-mp2.def2tzvp.frozencore.gbw
Electron density file                           ... 12meoh.boyd.etal.mol7-orca.engrad-mp2.def2tzvp.frozencore.pmp2re
The origin for moment calculation is the CENTER OF MASS  = ( 8.119393, -4.224102  1.720112)

-------------
DIPOLE MOMENT
-------------
                                X             Y             Z
Electronic contribution:      0.06540       1.69427      -0.58473
Nuclear contribution   :     -0.38286      -2.24980       0.29384
                        -----------------------------------------
Total Dipole Moment    :     -0.31746      -0.55552      -0.29090
                        -----------------------------------------
Magnitude (a.u.)       :      0.70286
Magnitude (Debye)      :      1.78652



--------------------
Rotational spectrum 
--------------------
 
Rotational constants in cm-1:     4.192938     0.822452     0.791073 
Rotational constants in MHz : 125701.108047 24656.500366 23715.780902 

 Dipole components along the rotational axes: 
x,y,z [a.u.] :    -0.360074     0.603615    -0.001224 
x,y,z [Debye]:    -0.915235     1.534268    -0.003111 

 

Timings for individual modules:

Sum of individual times         ...        7.077 sec (=   0.118 min)
GTO integral calculation        ...        1.379 sec (=   0.023 min)  19.5 %
SCF iterations                  ...        2.559 sec (=   0.043 min)  36.2 %
MP2 module                      ...        3.139 sec (=   0.052 min)  44.4 %
                             ****ORCA TERMINATED NORMALLY****
TOTAL RUN TIME: 0 days 0 hours 0 minutes 8 seconds 45 msec
