
                                 *****************
                                 * O   R   C   A *
                                 *****************

           --- An Ab Initio, DFT and Semiempirical electronic structure package ---

                  #######################################################
                  #                        -***-                        #
                  #          Department of theory and spectroscopy      #
                  #               Directorship: Frank Neese             #
                  #        Max Planck Institute fuer Kohlenforschung    #
                  #                Kaiser Wilhelm Platz 1               #
                  #                 D-45470 Muelheim/Ruhr               #
                  #                      Germany                        #
                  #                                                     #
                  #                  All rights reserved                #
                  #                        -***-                        #
                  #######################################################


                         Program Version 4.2.0 -  RELEASE  -


 With contributions from (in alphabetic order):
   Daniel Aravena         : Magnetic Suceptibility
   Michael Atanasov       : Ab Initio Ligand Field Theory (pilot matlab implementation)
   Alexander A. Auer      : GIAO ZORA, VPT2
   Ute Becker             : Parallelization
   Giovanni Bistoni       : ED, misc. LED, open-shell LED, HFLED
   Martin Brehm           : Molecular dynamics
   Dmytro Bykov           : SCF Hessian
   Vijay G. Chilkuri      : MRCI spin determinant printing, contributions to CSF-ICE
   Dipayan Datta          : RHF DLPNO-CCSD density
   Achintya Kumar Dutta   : EOM-CC, STEOM-CC
   Dmitry Ganyushin       : Spin-Orbit,Spin-Spin,Magnetic field MRCI
   Miquel Garcia          : C-PCM Hessian, Gaussian charge scheme
   Yang Guo               : DLPNO-NEVPT2, CIM, IAO-localization
   Andreas Hansen         : Spin unrestricted coupled pair/coupled cluster methods
   Benjamin Helmich-Paris : CASSCF linear response (MC-RPA)
   Lee Huntington         : MR-EOM, pCC
   Robert Izsak           : Overlap fitted RIJCOSX, COSX-SCS-MP3, EOM
   Christian Kollmar      : KDIIS, OOCD, Brueckner-CCSD(T), CCSD density
   Simone Kossmann        : Meta GGA functionals, TD-DFT gradient, OOMP2, MP2 Hessian
   Martin Krupicka        : AUTO-CI
   Lucas Lang             : DCDCAS
   Dagmar Lenk            : GEPOL surface, SMD
   Dimitrios Liakos       : Extrapolation schemes; Compound Job, initial MDCI parallelization
   Dimitrios Manganas     : Further ROCIS development; embedding schemes
   Dimitrios Pantazis     : SARC Basis sets
   Taras Petrenko         : DFT Hessian,TD-DFT gradient, ASA, ECA, R-Raman, ABS, FL, XAS/XES, NRVS
   Peter Pinski           : DLPNO-MP2, DLPNO-MP2 Gradient
   Christoph Reimann      : Effective Core Potentials
   Marius Retegan         : Local ZFS, SOC
   Christoph Riplinger    : Optimizer, TS searches, QM/MM, DLPNO-CCSD(T), (RO)-DLPNO pert. Triples
   Tobias Risthaus        : Range-separated hybrids, TD-DFT gradient, RPA, STAB
   Michael Roemelt        : Original ROCIS implementation
   Masaaki Saitow         : Open-shell DLPNO-CCSD energy and density
   Barbara Sandhoefer     : DKH picture change effects
   Avijit Sen             : IP-ROCIS
   Kantharuban Sivalingam : CASSCF convergence, NEVPT2, FIC-MRCI
   Bernardo de Souza      : ESD, SOC TD-DFT
   Georgi Stoychev        : AutoAux, RI-MP2 NMR
   Willem Van den Heuvel  : Paramagnetic NMR
   Boris Wezisla          : Elementary symmetry handling
   Frank Wennmohs         : Technical directorship


 We gratefully acknowledge several colleagues who have allowed us to
 interface, adapt or use parts of their codes:
   Stefan Grimme, W. Hujo, H. Kruse,             : VdW corrections, initial TS optimization,
                  C. Bannwarth                     DFT functionals, gCP, sTDA/sTD-DF
   Ed Valeev, F. Pavosevic, A. Kumar             : LibInt (2-el integral package), F12 methods
   Garnet Chan, S. Sharma, J. Yang, R. Olivares  : DMRG
   Ulf Ekstrom                                   : XCFun DFT Library
   Mihaly Kallay                                 : mrcc  (arbitrary order and MRCC methods)
   Andreas Klamt, Michael Diedenhofen            : otool_cosmo (COSMO solvation model)
   Jiri Pittner, Ondrej Demel                    : Mk-CCSD
   Frank Weinhold                                : gennbo (NPA and NBO analysis)
   Christopher J. Cramer and Donald G. Truhlar   : smd solvation model
   Lars Goerigk                                  : TD-DFT with DH, B97 family of functionals
   V. Asgeirsson, H. Jonsson                     : NEB implementation
   FAccTs GmbH                                   : IRC, NEB, NEB-TS, Multilevel, MM, QM/MM, CI optimization
   S Lehtola, MJT Oliveira, MAL Marques          : LibXC Library


 Your calculation uses the libint2 library for the computation of 2-el integrals
 For citations please refer to: http://libint.valeyev.net

 Your ORCA version has been built with support for libXC version: 4.2.3
 For citations please refer to: https://tddft.org/programs/libxc/

 This ORCA versions uses:
   CBLAS   interface :  Fast vector & matrix operations
   LAPACKE interface :  Fast linear algebra routines
   SCALAPACK package :  Parallel linear algebra routines


----- Orbital basis set information -----
Your calculation utilizes the basis: def2-TZVP
   F. Weigend and R. Ahlrichs, Phys. Chem. Chem. Phys. 7, 3297 (2005).

================================================================================
                                        WARNINGS
                       Please study these warnings very carefully!
================================================================================


WARNING: The frozen-core approximation for MP2-gradient calculations is turned on by default.

INFO   : the flag for use of LIBINT has been found!

================================================================================
                                       INPUT FILE
================================================================================
NAME = 12h2o.su.etal.mol1,2,3,5,6,7,8,11-orca.engrad-mp2.def2tzvp.frozencore.inp
|  1> # 12h2o.su.etal.mol1,2,3,5,6,7,8,11
|  2> ! MP2 def2-TZVP EnGrad TightSCF
|  3> 
|  4> %pal
|  5>     nprocs 6
|  6> end
|  7> 
|  8> %maxcore 8000
|  9> 
| 10> %scf
| 11>     ConvForced true
| 12> end
| 13> 
| 14> *xyz 0 1
| 15> O  -1.794470000  -0.923410000   2.768350000
| 16> H  -2.338250000  -1.359750000   3.430940000
| 17> H  -0.879480000  -1.303000000   2.865760000
| 18> O   0.923410000  -1.794470000  -2.768350000
| 19> H   1.359750000  -2.338250000  -3.430940000
| 20> H   1.303000000  -0.879480000  -2.865760000
| 21> O  -1.752130000  -0.741530000  -2.896280000
| 22> H  -2.036450000  -0.920500000  -1.984040000
| 23> H  -0.921210000  -1.242140000  -2.984230000
| 24> O   0.885520000  -1.737840000   0.052730000
| 25> H   1.284090000  -0.839590000   0.017130000
| 26> H   1.032320000  -2.090180000  -0.841890000
| 27> O   1.737840000   0.885520000  -0.052730000
| 28> H   2.090180000   1.032320000   0.841890000
| 29> H   0.839590000   1.284090000  -0.017130000
| 30> O  -1.737840000  -0.885520000  -0.052730000
| 31> H  -2.090180000  -1.032320000   0.841890000
| 32> H  -0.839590000  -1.284090000  -0.017130000
| 33> O   1.752130000   0.741530000  -2.896280000
| 34> H   2.036450000   0.920500000  -1.984040000
| 35> H   0.921210000   1.242140000  -2.984230000
| 36> O  -0.741530000   1.752130000   2.896280000
| 37> H  -0.920500000   2.036450000   1.984040000
| 38> H  -1.242140000   0.921210000   2.984230000
| 39> *
| 40> 
| 41>                          ****END OF INPUT****
================================================================================

                     *******************************
                     * Energy+Gradient Calculation *
                     *******************************

---------------------------------
CARTESIAN COORDINATES (ANGSTROEM)
---------------------------------
  O     -1.794470   -0.923410    2.768350
  H     -2.338250   -1.359750    3.430940
  H     -0.879480   -1.303000    2.865760
  O      0.923410   -1.794470   -2.768350
  H      1.359750   -2.338250   -3.430940
  H      1.303000   -0.879480   -2.865760
  O     -1.752130   -0.741530   -2.896280
  H     -2.036450   -0.920500   -1.984040
  H     -0.921210   -1.242140   -2.984230
  O      0.885520   -1.737840    0.052730
  H      1.284090   -0.839590    0.017130
  H      1.032320   -2.090180   -0.841890
  O      1.737840    0.885520   -0.052730
  H      2.090180    1.032320    0.841890
  H      0.839590    1.284090   -0.017130
  O     -1.737840   -0.885520   -0.052730
  H     -2.090180   -1.032320    0.841890
  H     -0.839590   -1.284090   -0.017130
  O      1.752130    0.741530   -2.896280
  H      2.036450    0.920500   -1.984040
  H      0.921210    1.242140   -2.984230
  O     -0.741530    1.752130    2.896280
  H     -0.920500    2.036450    1.984040
  H     -1.242140    0.921210    2.984230

----------------------------
CARTESIAN COORDINATES (A.U.)
----------------------------
  NO LB      ZA    FRAG     MASS         X           Y           Z
   0 O     8.0000    0    15.999   -3.391057   -1.744992    5.231423
   1 H     1.0000    0     1.008   -4.418652   -2.569555    6.483537
   2 H     1.0000    0     1.008   -1.661976   -2.462313    5.415502
   3 O     8.0000    0    15.999    1.744992   -3.391057   -5.231423
   4 H     1.0000    0     1.008    2.569555   -4.418652   -6.483537
   5 H     1.0000    0     1.008    2.462313   -1.661976   -5.415502
   6 O     8.0000    0    15.999   -3.311046   -1.401289   -5.473176
   7 H     1.0000    0     1.008   -3.848333   -1.739493   -3.749292
   8 H     1.0000    0     1.008   -1.740835   -2.347304   -5.639377
   9 O     8.0000    0    15.999    1.673390   -3.284042    0.099645
  10 H     1.0000    0     1.008    2.426578   -1.586595    0.032371
  11 H     1.0000    0     1.008    1.950802   -3.949868   -1.590942
  12 O     8.0000    0    15.999    3.284042    1.673390   -0.099645
  13 H     1.0000    0     1.008    3.949868    1.950802    1.590942
  14 H     1.0000    0     1.008    1.586595    2.426578   -0.032371
  15 O     8.0000    0    15.999   -3.284042   -1.673390   -0.099645
  16 H     1.0000    0     1.008   -3.949868   -1.950802    1.590942
  17 H     1.0000    0     1.008   -1.586595   -2.426578   -0.032371
  18 O     8.0000    0    15.999    3.311046    1.401289   -5.473176
  19 H     1.0000    0     1.008    3.848333    1.739493   -3.749292
  20 H     1.0000    0     1.008    1.740835    2.347304   -5.639377
  21 O     8.0000    0    15.999   -1.401289    3.311046    5.473176
  22 H     1.0000    0     1.008   -1.739493    3.848333    3.749292
  23 H     1.0000    0     1.008   -2.347304    1.740835    5.639377

--------------------------------
INTERNAL COORDINATES (ANGSTROEM)
--------------------------------
 O      0   0   0     0.000000000000     0.00000000     0.00000000
 H      1   0   0     0.961828878803     0.00000000     0.00000000
 H      1   2   0     0.995381322057   106.21731035     0.00000000
 O      3   1   2     5.935920367146   102.58474291   140.89009172
 H      4   3   1     0.961828878803   146.97742434   224.01286022
 H      4   3   1     0.995381322057    97.62005672    87.72090689
 O      4   3   1     2.878117964938    74.30903121   359.04191204
 H      7   4   3     0.972136791249    99.37069922   345.64431536
 H      7   4   3     0.974050112161    12.30570018   233.12878636
 O      4   3   1     2.821902722526    17.32744736   169.52589616
 H     10   4   3     0.983350632989    88.66470709   258.45499027
 H     10   4   3     0.972645187106    21.75017499   124.29821266
 O     11  10   4     1.785153773264   170.81379649    89.95043540
 H     13  11  10     0.972645187106   101.65007623   109.44492584
 H     13  11  10     0.983350632989    99.09581498     3.33484705
 O      8   7   4     1.954571525578   151.55104644    46.66533865
 H     16   8   7     0.972645187106   148.29772527   173.62852352
 H     16   8   7     0.983350632989    99.67573411   310.71905253
 O      6   4   3     1.682356278379   171.61043709   321.17145860
 H     19   6   4     0.972136791249   103.79460456    70.64587838
 H     19   6   4     0.974050112161   105.61118924   321.69395179
 O      1   2   3     2.878117964938   126.72240291   256.40918860
 H     22   1   2     0.972136791249    99.37069922   223.07499144
 H     22   1   2     0.974050112161    12.30570018   335.59052045

---------------------------
INTERNAL COORDINATES (A.U.)
---------------------------
 O      0   0   0     0.000000000000     0.00000000     0.00000000
 H      1   0   0     1.817593168635     0.00000000     0.00000000
 H      1   2   0     1.880998097508   106.21731035     0.00000000
 O      3   1   2    11.217263846671   102.58474291   140.89009172
 H      4   3   1     1.817593168635   146.97742434   224.01286022
 H      4   3   1     1.880998097508    97.62005672    87.72090689
 O      4   3   1     5.438854734852    74.30903121   359.04191204
 H      7   4   3     1.837072300170    99.37069922   345.64431536
 H      7   4   3     1.840687952699    12.30570018   233.12878636
 O      4   3   1     5.332623322141    17.32744736   169.52589616
 H     10   4   3     1.858263389967    88.66470709   258.45499027
 H     10   4   3     1.838033029106    21.75017499   124.29821266
 O     11  10   4     3.373451738406   170.81379649    89.95043540
 H     13  11  10     1.838033029106   101.65007623   109.44492584
 H     13  11  10     1.858263389967    99.09581498     3.33484705
 O      8   7   4     3.693604892503   151.55104644    46.66533865
 H     16   8   7     1.838033029106   148.29772527   173.62852352
 H     16   8   7     1.858263389967    99.67573411   310.71905253
 O      6   4   3     3.179192625819   171.61043709   321.17145860
 H     19   6   4     1.837072300170   103.79460456    70.64587838
 H     19   6   4     1.840687952699   105.61118924   321.69395179
 O      1   2   3     5.438854734852   126.72240291   256.40918860
 H     22   1   2     1.837072300170    99.37069922   223.07499144
 H     22   1   2     1.840687952699    12.30570018   335.59052045

---------------------
BASIS SET INFORMATION
---------------------
There are 2 groups of distinct atoms

 Group   1 Type O   : 11s6p2d1f contracted to 5s3p2d1f pattern {62111/411/11/1}
 Group   2 Type H   : 5s1p contracted to 3s1p pattern {311/1}

Atom   0O    basis set group =>   1
Atom   1H    basis set group =>   2
Atom   2H    basis set group =>   2
Atom   3O    basis set group =>   1
Atom   4H    basis set group =>   2
Atom   5H    basis set group =>   2
Atom   6O    basis set group =>   1
Atom   7H    basis set group =>   2
Atom   8H    basis set group =>   2
Atom   9O    basis set group =>   1
Atom  10H    basis set group =>   2
Atom  11H    basis set group =>   2
Atom  12O    basis set group =>   1
Atom  13H    basis set group =>   2
Atom  14H    basis set group =>   2
Atom  15O    basis set group =>   1
Atom  16H    basis set group =>   2
Atom  17H    basis set group =>   2
Atom  18O    basis set group =>   1
Atom  19H    basis set group =>   2
Atom  20H    basis set group =>   2
Atom  21O    basis set group =>   1
Atom  22H    basis set group =>   2
Atom  23H    basis set group =>   2


           ************************************************************
           *        Program running with 6 parallel MPI-processes     *
           *              working on a common directory               *
           ************************************************************
------------------------------------------------------------------------------
                           ORCA GTO INTEGRAL CALCULATION
------------------------------------------------------------------------------

                         BASIS SET STATISTICS AND STARTUP INFO

 # of primitive gaussian shells          ...  256
 # of primitive gaussian functions       ...  496
 # of contracted shells                  ...  152
 # of contracted basis functions         ...  344
 Highest angular momentum                ...    3
 Maximum contraction depth               ...    6
 Integral package used                   ... LIBINT
 Integral threshhold            Thresh   ...  2.500e-11
 Primitive cut-off              TCut     ...  2.500e-12


------------------------------ INTEGRAL EVALUATION ----------------------------


 * One electron integrals 
 Pre-screening matrix                    ... done
 Shell pair data                         ... done (   0.002 sec)



           ************************************************************
           *        Program running with 6 parallel MPI-processes     *
           *              working on a common directory               *
           ************************************************************
-------------------------------------------------------------------------------
                                 ORCA SCF
-------------------------------------------------------------------------------

------------
SCF SETTINGS
------------
Hamiltonian:
 Ab initio Hamiltonian  Method          .... Hartree-Fock(GTOs)


General Settings:
 Integral files         IntName         .... 12h2o.su.etal.mol1,2,3,5,6,7,8,11-orca.engrad-mp2.def2tzvp.frozencore
 Hartree-Fock type      HFTyp           .... RHF
 Total Charge           Charge          ....    0
 Multiplicity           Mult            ....    1
 Number of Electrons    NEL             ....   80
 Basis Dimension        Dim             ....  344
 Nuclear Repulsion      ENuc            ....    459.7601248320 Eh

Convergence Acceleration:
 DIIS                   CNVDIIS         .... on
   Start iteration      DIISMaxIt       ....    12
   Startup error        DIISStart       ....  0.200000
   # of expansion vecs  DIISMaxEq       ....     5
   Bias factor          DIISBfac        ....   1.050
   Max. coefficient     DIISMaxC        ....  10.000
 Newton-Raphson         CNVNR           .... off
 SOSCF                  CNVSOSCF        .... on
   Start iteration      SOSCFMaxIt      ....   150
   Startup grad/error   SOSCFStart      ....  0.003300
 Level Shifting         CNVShift        .... on
   Level shift para.    LevelShift      ....    0.2500
   Turn off err/grad.   ShiftErr        ....    0.0010
 Zerner damping         CNVZerner       .... off
 Static damping         CNVDamp         .... on
   Fraction old density DampFac         ....    0.7000
   Max. Damping (<1)    DampMax         ....    0.9800
   Min. Damping (>=0)   DampMin         ....    0.0000
   Turn off err/grad.   DampErr         ....    0.1000
 Fernandez-Rico         CNVRico         .... off

SCF Procedure:
 Maximum # iterations   MaxIter         ....   125
 SCF integral mode      SCFMode         .... Direct
   Integral package                     .... LIBINT
 Reset frequency        DirectResetFreq ....    20
 Integral Threshold     Thresh          ....  2.500e-11 Eh
 Primitive CutOff       TCut            ....  2.500e-12 Eh

Convergence Tolerance:
 Convergence Check Mode ConvCheckMode   .... Total+1el-Energy
 Convergence forced     ConvForced      .... 1
 Energy Change          TolE            ....  1.000e-08 Eh
 1-El. energy change                    ....  1.000e-05 Eh
 Orbital Gradient       TolG            ....  1.000e-05
 Orbital Rotation angle TolX            ....  1.000e-05
 DIIS Error             TolErr          ....  5.000e-07


Diagonalization of the overlap matrix:
Smallest eigenvalue                        ... 3.626e-03
Time for diagonalization                   ...    0.016 sec
Threshold for overlap eigenvalues          ... 1.000e-08
Number of eigenvalues below threshold      ... 0
Time for construction of square roots      ...    0.009 sec
Total time needed                          ...    0.025 sec

-------------------
DFT GRID GENERATION
-------------------

General Integration Accuracy     IntAcc      ...  4.340
Radial Grid Type                 RadialGrid  ... Gauss-Chebyshev
Angular Grid (max. acc.)         AngularGrid ... Lebedev-110
Angular grid pruning method      GridPruning ... 3 (G Style)
Weight generation scheme         WeightScheme... Becke
Basis function cutoff            BFCut       ...    1.0000e-11
Integration weight cutoff        WCut        ...    1.0000e-14
Grids for H and He will be reduced by one unit

# of grid points (after initial pruning)     ...  26432 (   0.0 sec)
# of grid points (after weights+screening)   ...  24590 (   0.0 sec)
nearest neighbour list constructed           ...    0.0 sec
Grid point re-assignment to atoms done       ...    0.0 sec
Grid point division into batches done        ...    0.0 sec
Reduced shell lists constructed in    0.1 sec

Total number of grid points                  ...    24590
Total number of batches                      ...      398
Average number of points per batch           ...       61
Average number of grid points per atom       ...     1025
Average number of shells per batch           ...    67.00 (44.08%)
Average number of basis functions per batch  ...   133.29 (38.75%)
Average number of large shells per batch     ...    44.29 (66.11%)
Average number of large basis fcns per batch ...    86.09 (64.59%)
Maximum spatial batch extension              ...  15.25, 15.72, 13.95 au
Average spatial batch extension              ...   0.57,  0.58,  0.54 au

Time for grid setup =    0.095 sec

------------------------------
INITIAL GUESS: MODEL POTENTIAL
------------------------------
Loading Hartree-Fock densities                     ... done
Calculating cut-offs                               ... done
Setting up the integral package                    ... done
Initializing the effective Hamiltonian             ... done
Starting the Coulomb interaction                   ... done (   0.0 sec)
Reading the grid                                   ... done
Mapping shells                                     ... done
Starting the XC term evaluation                    ... done (   0.0 sec)
Transforming the Hamiltonian                       ... done (   0.0 sec)
Diagonalizing the Hamiltonian                      ... done (   0.0 sec)
Back transforming the eigenvectors                 ... done (   0.0 sec)
Now organizing SCF variables                       ... done
                      ------------------
                      INITIAL GUESS DONE (   0.3 sec)
                      ------------------
--------------
SCF ITERATIONS
--------------
ITER       Energy         Delta-E        Max-DP      RMS-DP      [F,P]     Damp
               ***  Starting incremental Fock matrix formation  ***
  0   -607.8197485288   0.000000000000 0.04392023  0.00083076  0.3481735 0.7000
  1   -608.0882945282  -0.268545999398 0.02918528  0.00057720  0.2169267 0.7000
                               ***Turning on DIIS***
  2   -608.2312018671  -0.142907338830 0.01655151  0.00032499  0.1636042 0.7000
  3   -609.5361095111  -1.304907644084 0.00760933  0.00015187  0.1218032 0.7000
  4   -609.2734163872   0.262693123949 0.01730356  0.00035401  0.0861276 0.0000
  5   -608.5585105404   0.714905846837 0.00226385  0.00005679  0.0056580 0.0000
                      *** Initiating the SOSCF procedure ***
                           *** Shutting down DIIS ***
                      *** Re-Reading the Fockian *** 
                      *** Removing any level shift *** 
ITER      Energy       Delta-E        Grad      Rot      Max-DP    RMS-DP
  6   -608.51925439   0.0392561482  0.000893  0.000893  0.001486  0.000035
               *** Restarting incremental Fock matrix formation ***
  7   -608.50815331   0.0111010791  0.000336  0.000453  0.000687  0.000015
  8   -608.50816513  -0.0000118160  0.000122  0.000346  0.000532  0.000012
  9   -608.50816794  -0.0000028131  0.000077  0.000043  0.000105  0.000002
 10   -608.50816817  -0.0000002243  0.000015  0.000008  0.000019  0.000000
                  ***Gradient check signals convergence***
              ***Rediagonalizing the Fockian in SOSCF/NRSCF***

               *****************************************************
               *                     SUCCESS                       *
               *           SCF CONVERGED AFTER  11 CYCLES          *
               *****************************************************


----------------
TOTAL SCF ENERGY
----------------

Total Energy       :         -608.50816817 Eh          -16558.34907 eV

Components:
Nuclear Repulsion  :          459.76012483 Eh           12510.70903 eV
Electronic Energy  :        -1068.26829300 Eh          -29069.05810 eV
One Electron Energy:        -1756.81244342 Eh          -47805.29696 eV
Two Electron Energy:          688.54415041 Eh           18736.23886 eV

Virial components:
Potential Energy   :        -1216.24715592 Eh          -33095.76767 eV
Kinetic Energy     :          607.73898774 Eh           16537.41860 eV
Virial Ratio       :            2.00126564


---------------
SCF CONVERGENCE
---------------

  Last Energy change         ...   -6.3476e-09  Tolerance :   1.0000e-08
  Last MAX-Density change    ...    4.9356e-06  Tolerance :   1.0000e-07
  Last RMS-Density change    ...    1.1621e-07  Tolerance :   5.0000e-09
  Last Orbital Gradient      ...    2.2350e-06  Tolerance :   1.0000e-05
  Last Orbital Rotation      ...    2.6937e-06  Tolerance :   1.0000e-05

             **** THE GBW FILE WAS UPDATED (12h2o.su.etal.mol1,2,3,5,6,7,8,11-orca.engrad-mp2.def2tzvp.frozencore.gbw) ****
             **** DENSITY FILE WAS UPDATED (12h2o.su.etal.mol1,2,3,5,6,7,8,11-orca.engrad-mp2.def2tzvp.frozencore.scfp) ****
             **** ENERGY FILE WAS UPDATED (12h2o.su.etal.mol1,2,3,5,6,7,8,11-orca.engrad-mp2.def2tzvp.frozencore.en.tmp) ****
             **** THE GBW FILE WAS UPDATED (12h2o.su.etal.mol1,2,3,5,6,7,8,11-orca.engrad-mp2.def2tzvp.frozencore.gbw) ****
             **** DENSITY FILE WAS UPDATED (12h2o.su.etal.mol1,2,3,5,6,7,8,11-orca.engrad-mp2.def2tzvp.frozencore.scfp) ****
----------------
ORBITAL ENERGIES
----------------

  NO   OCC          E(Eh)            E(eV) 
   0   2.0000     -20.629235      -561.3500 
   1   2.0000     -20.613585      -560.9242 
   2   2.0000     -20.586927      -560.1988 
   3   2.0000     -20.560865      -559.4896 
   4   2.0000     -20.555386      -559.3405 
   5   2.0000     -20.546611      -559.1017 
   6   2.0000     -20.523774      -558.4803 
   7   2.0000     -20.494261      -557.6772 
   8   2.0000      -1.412654       -38.4403 
   9   2.0000      -1.393828       -37.9280 
  10   2.0000      -1.376564       -37.4582 
  11   2.0000      -1.348173       -36.6857 
  12   2.0000      -1.337381       -36.3920 
  13   2.0000      -1.334589       -36.3160 
  14   2.0000      -1.309454       -35.6320 
  15   2.0000      -1.279031       -34.8042 
  16   2.0000      -0.771446       -20.9921 
  17   2.0000      -0.759532       -20.6679 
  18   2.0000      -0.737029       -20.0556 
  19   2.0000      -0.728016       -19.8103 
  20   2.0000      -0.712943       -19.4002 
  21   2.0000      -0.706952       -19.2371 
  22   2.0000      -0.691730       -18.8229 
  23   2.0000      -0.659205       -17.9379 
  24   2.0000      -0.655615       -17.8402 
  25   2.0000      -0.632221       -17.2036 
  26   2.0000      -0.617071       -16.7914 
  27   2.0000      -0.607161       -16.5217 
  28   2.0000      -0.587569       -15.9886 
  29   2.0000      -0.575038       -15.6476 
  30   2.0000      -0.566400       -15.4125 
  31   2.0000      -0.551325       -15.0023 
  32   2.0000      -0.545411       -14.8414 
  33   2.0000      -0.526804       -14.3351 
  34   2.0000      -0.516413       -14.0523 
  35   2.0000      -0.502531       -13.6746 
  36   2.0000      -0.499502       -13.5921 
  37   2.0000      -0.490947       -13.3593 
  38   2.0000      -0.474530       -12.9126 
  39   2.0000      -0.444501       -12.0955 
  40   0.0000       0.078919         2.1475 
  41   0.0000       0.108758         2.9595 
  42   0.0000       0.137018         3.7285 
  43   0.0000       0.147980         4.0267 
  44   0.0000       0.163701         4.4545 
  45   0.0000       0.180108         4.9010 
  46   0.0000       0.217871         5.9286 
  47   0.0000       0.226421         6.1612 
  48   0.0000       0.239417         6.5149 
  49   0.0000       0.259498         7.0613 
  50   0.0000       0.279290         7.5999 
  51   0.0000       0.288260         7.8440 
  52   0.0000       0.316008         8.5990 
  53   0.0000       0.333644         9.0789 
  54   0.0000       0.346597         9.4314 
  55   0.0000       0.352761         9.5991 
  56   0.0000       0.415705        11.3119 
  57   0.0000       0.449003        12.2180 
  58   0.0000       0.479223        13.0403 
  59   0.0000       0.489552        13.3214 
  60   0.0000       0.503582        13.7032 
  61   0.0000       0.509629        13.8677 
  62   0.0000       0.517678        14.0867 
  63   0.0000       0.529046        14.3961 
  64   0.0000       0.534969        14.5572 
  65   0.0000       0.546043        14.8586 
  66   0.0000       0.563136        15.3237 
  67   0.0000       0.572881        15.5889 
  68   0.0000       0.583450        15.8765 
  69   0.0000       0.595049        16.1921 
  70   0.0000       0.599159        16.3040 
  71   0.0000       0.605153        16.4671 
  72   0.0000       0.613164        16.6850 
  73   0.0000       0.627590        17.0776 
  74   0.0000       0.634413        17.2632 
  75   0.0000       0.646438        17.5905 
  76   0.0000       0.658158        17.9094 
  77   0.0000       0.681431        18.5427 
  78   0.0000       0.694242        18.8913 
  79   0.0000       0.707872        19.2622 
  80   0.0000       0.718473        19.5506 
  81   0.0000       0.720237        19.5986 
  82   0.0000       0.739672        20.1275 
  83   0.0000       0.747726        20.3467 
  84   0.0000       0.755285        20.5523 
  85   0.0000       0.766457        20.8564 
  86   0.0000       0.782609        21.2959 
  87   0.0000       0.797153        21.6916 
  88   0.0000       0.806972        21.9588 
  89   0.0000       0.817069        22.2336 
  90   0.0000       0.831076        22.6147 
  91   0.0000       0.840892        22.8818 
  92   0.0000       0.853300        23.2195 
  93   0.0000       0.895637        24.3715 
  94   0.0000       0.913280        24.8516 
  95   0.0000       0.921100        25.0644 
  96   0.0000       0.941447        25.6181 
  97   0.0000       0.959655        26.1135 
  98   0.0000       0.999939        27.2097 
  99   0.0000       1.022346        27.8195 
 100   0.0000       1.057832        28.7851 
 101   0.0000       1.076824        29.3019 
 102   0.0000       1.094487        29.7825 
 103   0.0000       1.175762        31.9941 
 104   0.0000       1.339967        36.4624 
 105   0.0000       1.345281        36.6069 
 106   0.0000       1.359032        36.9811 
 107   0.0000       1.387208        37.7479 
 108   0.0000       1.402813        38.1725 
 109   0.0000       1.408052        38.3150 
 110   0.0000       1.412058        38.4241 
 111   0.0000       1.419270        38.6203 
 112   0.0000       1.438555        39.1451 
 113   0.0000       1.453271        39.5455 
 114   0.0000       1.462443        39.7951 
 115   0.0000       1.474666        40.1277 
 116   0.0000       1.504818        40.9482 
 117   0.0000       1.515719        41.2448 
 118   0.0000       1.524786        41.4915 
 119   0.0000       1.549040        42.1515 
 120   0.0000       1.561516        42.4910 
 121   0.0000       1.569797        42.7163 
 122   0.0000       1.583484        43.0888 
 123   0.0000       1.597844        43.4796 
 124   0.0000       1.613753        43.9125 
 125   0.0000       1.617562        44.0161 
 126   0.0000       1.650578        44.9145 
 127   0.0000       1.692264        46.0488 
 128   0.0000       1.789032        48.6820 
 129   0.0000       1.800828        49.0030 
 130   0.0000       1.808525        49.2125 
 131   0.0000       1.825474        49.6737 
 132   0.0000       1.836932        49.9855 
 133   0.0000       1.862877        50.6915 
 134   0.0000       1.892579        51.4997 
 135   0.0000       1.924058        52.3563 
 136   0.0000       1.939787        52.7843 
 137   0.0000       1.952010        53.1169 
 138   0.0000       1.957724        53.2724 
 139   0.0000       1.968260        53.5591 
 140   0.0000       1.996613        54.3306 
 141   0.0000       2.006992        54.6130 
 142   0.0000       2.017960        54.9115 
 143   0.0000       2.037610        55.4462 
 144   0.0000       2.067489        56.2592 
 145   0.0000       2.085923        56.7609 
 146   0.0000       2.097209        57.0680 
 147   0.0000       2.115050        57.5534 
 148   0.0000       2.125785        57.8455 
 149   0.0000       2.172256        59.1101 
 150   0.0000       2.190950        59.6188 
 151   0.0000       2.223787        60.5123 
 152   0.0000       2.247515        61.1580 
 153   0.0000       2.260853        61.5209 
 154   0.0000       2.281419        62.0806 
 155   0.0000       2.289863        62.3103 
 156   0.0000       2.298998        62.5589 
 157   0.0000       2.302877        62.6645 
 158   0.0000       2.318786        63.0974 
 159   0.0000       2.335981        63.5653 
 160   0.0000       2.352586        64.0171 
 161   0.0000       2.366973        64.4086 
 162   0.0000       2.372055        64.5469 
 163   0.0000       2.380076        64.7652 
 164   0.0000       2.385503        64.9128 
 165   0.0000       2.409559        65.5674 
 166   0.0000       2.421281        65.8864 
 167   0.0000       2.449516        66.6547 
 168   0.0000       2.469322        67.1937 
 169   0.0000       2.476587        67.3914 
 170   0.0000       2.491906        67.8082 
 171   0.0000       2.511225        68.3339 
 172   0.0000       2.521185        68.6049 
 173   0.0000       2.544296        69.2338 
 174   0.0000       2.564025        69.7707 
 175   0.0000       2.570722        69.9529 
 176   0.0000       2.597946        70.6937 
 177   0.0000       2.605747        70.9060 
 178   0.0000       2.622113        71.3513 
 179   0.0000       2.630057        71.5675 
 180   0.0000       2.647717        72.0480 
 181   0.0000       2.651985        72.1642 
 182   0.0000       2.668876        72.6238 
 183   0.0000       2.681471        72.9665 
 184   0.0000       2.694054        73.3089 
 185   0.0000       2.701308        73.5063 
 186   0.0000       2.717111        73.9363 
 187   0.0000       2.720791        74.0365 
 188   0.0000       2.756985        75.0214 
 189   0.0000       2.772538        75.4446 
 190   0.0000       2.791740        75.9671 
 191   0.0000       2.825244        76.8788 
 192   0.0000       2.881081        78.3982 
 193   0.0000       2.893492        78.7359 
 194   0.0000       2.917158        79.3799 
 195   0.0000       2.945469        80.1503 
 196   0.0000       2.949273        80.2538 
 197   0.0000       2.962974        80.6266 
 198   0.0000       2.968070        80.7653 
 199   0.0000       2.977879        81.0322 
 200   0.0000       2.983223        81.1776 
 201   0.0000       3.009692        81.8979 
 202   0.0000       3.037052        82.6424 
 203   0.0000       3.048347        82.9497 
 204   0.0000       3.063565        83.3638 
 205   0.0000       3.081336        83.8474 
 206   0.0000       3.103167        84.4415 
 207   0.0000       3.112359        84.6916 
 208   0.0000       3.135461        85.3202 
 209   0.0000       3.140103        85.4466 
 210   0.0000       3.165776        86.1451 
 211   0.0000       3.195972        86.9668 
 212   0.0000       3.229956        87.8916 
 213   0.0000       3.232855        87.9705 
 214   0.0000       3.252891        88.5157 
 215   0.0000       3.262428        88.7752 
 216   0.0000       3.303091        89.8817 
 217   0.0000       3.314795        90.2002 
 218   0.0000       3.356226        91.3275 
 219   0.0000       3.367023        91.6213 
 220   0.0000       3.408010        92.7367 
 221   0.0000       3.434642        93.4614 
 222   0.0000       3.503336        95.3306 
 223   0.0000       3.530791        96.0777 
 224   0.0000       3.974666       108.1562 
 225   0.0000       3.994594       108.6984 
 226   0.0000       4.040688       109.9527 
 227   0.0000       4.048303       110.1599 
 228   0.0000       4.116799       112.0238 
 229   0.0000       4.129379       112.3661 
 230   0.0000       4.137338       112.5827 
 231   0.0000       4.185891       113.9039 
 232   0.0000       4.243501       115.4715 
 233   0.0000       4.268732       116.1581 
 234   0.0000       4.294705       116.8649 
 235   0.0000       4.323357       117.6445 
 236   0.0000       4.351126       118.4002 
 237   0.0000       4.373718       119.0149 
 238   0.0000       4.381222       119.2191 
 239   0.0000       4.410734       120.0222 
 240   0.0000       5.478694       149.0828 
 241   0.0000       5.500704       149.6818 
 242   0.0000       5.518151       150.1565 
 243   0.0000       5.544506       150.8737 
 244   0.0000       5.551434       151.0622 
 245   0.0000       5.551477       151.0634 
 246   0.0000       5.580816       151.8617 
 247   0.0000       5.595691       152.2665 
 248   0.0000       5.606320       152.5557 
 249   0.0000       5.608522       152.6156 
 250   0.0000       5.639432       153.4567 
 251   0.0000       5.657742       153.9550 
 252   0.0000       5.665151       154.1566 
 253   0.0000       5.687626       154.7682 
 254   0.0000       5.691132       154.8636 
 255   0.0000       5.716384       155.5507 
 256   0.0000       5.756904       156.6533 
 257   0.0000       5.763431       156.8309 
 258   0.0000       5.781829       157.3316 
 259   0.0000       5.796916       157.7421 
 260   0.0000       5.805031       157.9629 
 261   0.0000       5.817424       158.3002 
 262   0.0000       5.823743       158.4721 
 263   0.0000       5.830570       158.6579 
 264   0.0000       5.833779       158.7452 
 265   0.0000       5.842532       158.9834 
 266   0.0000       5.859061       159.4331 
 267   0.0000       5.861954       159.5119 
 268   0.0000       5.866918       159.6470 
 269   0.0000       5.872795       159.8069 
 270   0.0000       5.878662       159.9665 
 271   0.0000       5.880799       160.0247 
 272   0.0000       5.890969       160.3014 
 273   0.0000       5.901593       160.5905 
 274   0.0000       5.908088       160.7673 
 275   0.0000       5.914115       160.9313 
 276   0.0000       5.924939       161.2258 
 277   0.0000       5.934281       161.4800 
 278   0.0000       5.945815       161.7939 
 279   0.0000       5.969539       162.4394 
 280   0.0000       6.381644       173.6534 
 281   0.0000       6.405245       174.2956 
 282   0.0000       6.458567       175.7465 
 283   0.0000       6.469149       176.0345 
 284   0.0000       6.481618       176.3738 
 285   0.0000       6.488490       176.5608 
 286   0.0000       6.508293       177.0996 
 287   0.0000       6.555238       178.3771 
 288   0.0000       6.638344       180.6385 
 289   0.0000       6.657796       181.1678 
 290   0.0000       6.678663       181.7357 
 291   0.0000       6.695904       182.2048 
 292   0.0000       6.720672       182.8788 
 293   0.0000       6.741574       183.4476 
 294   0.0000       6.749373       183.6598 
 295   0.0000       6.781842       184.5433 
 296   0.0000       6.826066       185.7467 
 297   0.0000       6.826766       185.7658 
 298   0.0000       6.833015       185.9358 
 299   0.0000       6.845678       186.2804 
 300   0.0000       6.852833       186.4751 
 301   0.0000       6.865134       186.8098 
 302   0.0000       6.877710       187.1520 
 303   0.0000       6.885366       187.3603 
 304   0.0000       6.892284       187.5486 
 305   0.0000       6.896731       187.6696 
 306   0.0000       6.905819       187.9169 
 307   0.0000       6.927115       188.4964 
 308   0.0000       6.929854       188.5709 
 309   0.0000       6.938844       188.8155 
 310   0.0000       6.948712       189.0841 
 311   0.0000       6.957822       189.3320 
 312   0.0000       6.960805       189.4131 
 313   0.0000       6.983069       190.0190 
 314   0.0000       6.986221       190.1047 
 315   0.0000       7.017817       190.9645 
 316   0.0000       7.023311       191.1140 
 317   0.0000       7.056630       192.0207 
 318   0.0000       7.072350       192.4484 
 319   0.0000       7.088883       192.8983 
 320   0.0000       7.328689       199.4238 
 321   0.0000       7.343103       199.8160 
 322   0.0000       7.391529       201.1337 
 323   0.0000       7.405905       201.5249 
 324   0.0000       7.426972       202.0982 
 325   0.0000       7.450916       202.7497 
 326   0.0000       7.462481       203.0644 
 327   0.0000       7.485266       203.6844 
 328   0.0000       7.487024       203.7323 
 329   0.0000       7.519580       204.6182 
 330   0.0000       7.524184       204.7435 
 331   0.0000       7.550078       205.4481 
 332   0.0000       7.569901       205.9875 
 333   0.0000       7.615049       207.2160 
 334   0.0000       7.641725       207.9419 
 335   0.0000       7.658373       208.3949 
 336   0.0000      44.889591      1221.5079 
 337   0.0000      44.922389      1222.4004 
 338   0.0000      44.931991      1222.6616 
 339   0.0000      44.994225      1224.3551 
 340   0.0000      45.011902      1224.8361 
 341   0.0000      45.035064      1225.4664 
 342   0.0000      45.079092      1226.6645 
 343   0.0000      45.149294      1228.5747 

                    ********************************
                    * MULLIKEN POPULATION ANALYSIS *
                    ********************************

-----------------------
MULLIKEN ATOMIC CHARGES
-----------------------
   0 O :   -0.744313
   1 H :    0.373971
   2 H :    0.386446
   3 O :   -0.786318
   4 H :    0.357528
   5 H :    0.411138
   6 O :   -0.768093
   7 H :    0.387393
   8 H :    0.364299
   9 O :   -0.773225
  10 H :    0.374985
  11 H :    0.400390
  12 O :   -0.751574
  13 H :    0.390610
  14 H :    0.379892
  15 O :   -0.786269
  16 H :    0.377085
  17 H :    0.377467
  18 O :   -0.733783
  19 H :    0.399550
  20 H :    0.372140
  21 O :   -0.726359
  22 H :    0.334176
  23 H :    0.382866
Sum of atomic charges:   -0.0000000

--------------------------------
MULLIKEN REDUCED ORBITAL CHARGES
--------------------------------
  0 O s       :     3.807883  s :     3.807883
      pz      :     1.734111  p :     4.910935
      px      :     1.384750
      py      :     1.792074
      dz2     :     0.004129  d :     0.024019
      dxz     :     0.004604
      dyz     :     0.005429
      dx2y2   :     0.002555
      dxy     :     0.007302
      f0      :     0.000086  f :     0.001476
      f+1     :     0.000335
      f-1     :     0.000180
      f+2     :     0.000062
      f-2     :     0.000348
      f+3     :     0.000093
      f-3     :     0.000371
  1 H s       :     0.581062  s :     0.581062
      pz      :     0.017025  p :     0.044968
      px      :     0.013298
      py      :     0.014645
  2 H s       :     0.573078  s :     0.573078
      pz      :     0.010385  p :     0.040476
      px      :     0.017981
      py      :     0.012109
  3 O s       :     3.807459  s :     3.807459
      pz      :     1.721172  p :     4.955272
      px      :     1.798314
      py      :     1.435787
      dz2     :     0.003583  d :     0.022195
      dxz     :     0.005122
      dyz     :     0.004314
      dx2y2   :     0.002239
      dxy     :     0.006937
      f0      :     0.000080  f :     0.001392
      f+1     :     0.000170
      f-1     :     0.000314
      f+2     :     0.000062
      f-2     :     0.000346
      f+3     :     0.000335
      f-3     :     0.000083
  4 H s       :     0.597035  s :     0.597035
      pz      :     0.016837  p :     0.045437
      px      :     0.014819
      py      :     0.013781
  5 H s       :     0.533306  s :     0.533306
      pz      :     0.010015  p :     0.055556
      px      :     0.013124
      py      :     0.032416
  6 O s       :     3.805384  s :     3.805384
      pz      :     1.557003  p :     4.936933
      px      :     1.560842
      py      :     1.819088
      dz2     :     0.011257  d :     0.024345
      dxz     :     0.001191
      dyz     :     0.002792
      dx2y2   :     0.002043
      dxy     :     0.007062
      f0      :     0.000248  f :     0.001431
      f+1     :     0.000370
      f-1     :     0.000159
      f+2     :     0.000056
      f-2     :     0.000054
      f+3     :     0.000064
      f-3     :     0.000480
  7 H s       :     0.564108  s :     0.564108
      pz      :     0.024456  p :     0.048499
      px      :     0.011377
      py      :     0.012666
  8 H s       :     0.585164  s :     0.585164
      pz      :     0.010322  p :     0.050538
      px      :     0.023520
      py      :     0.016695
  9 O s       :     3.796230  s :     3.796230
      pz      :     1.608312  p :     4.951998
      px      :     1.839430
      py      :     1.504255
      dz2     :     0.010956  d :     0.023673
      dxz     :     0.002056
      dyz     :     0.002709
      dx2y2   :     0.003307
      dxy     :     0.004644
      f0      :     0.000151  f :     0.001325
      f+1     :     0.000108
      f-1     :     0.000447
      f+2     :     0.000068
      f-2     :     0.000039
      f+3     :     0.000414
      f-3     :     0.000098
 10 H s       :     0.571830  s :     0.571830
      pz      :     0.009767  p :     0.053186
      px      :     0.015128
      py      :     0.028291
 11 H s       :     0.551189  s :     0.551189
      pz      :     0.025024  p :     0.048421
      px      :     0.012468
      py      :     0.010929
 12 O s       :     3.804428  s :     3.804428
      pz      :     1.579829  p :     4.921446
      px      :     1.484868
      py      :     1.856750
      dz2     :     0.010954  d :     0.024263
      dxz     :     0.002581
      dyz     :     0.002094
      dx2y2   :     0.003492
      dxy     :     0.005141
      f0      :     0.000188  f :     0.001437
      f+1     :     0.000453
      f-1     :     0.000118
      f+2     :     0.000070
      f-2     :     0.000038
      f+3     :     0.000111
      f-3     :     0.000459
 13 H s       :     0.565914  s :     0.565914
      pz      :     0.019328  p :     0.043476
      px      :     0.011272
      py      :     0.012877
 14 H s       :     0.578665  s :     0.578665
      pz      :     0.008973  p :     0.041443
      px      :     0.018850
      py      :     0.013621
 15 O s       :     3.807592  s :     3.807592
      pz      :     1.577230  p :     4.954694
      px      :     1.500789
      py      :     1.876675
      dz2     :     0.009995  d :     0.022593
      dxz     :     0.002552
      dyz     :     0.002294
      dx2y2   :     0.002848
      dxy     :     0.004905
      f0      :     0.000185  f :     0.001390
      f+1     :     0.000422
      f-1     :     0.000117
      f+2     :     0.000076
      f-2     :     0.000036
      f+3     :     0.000113
      f-3     :     0.000440
 16 H s       :     0.573739  s :     0.573739
      pz      :     0.023915  p :     0.049176
      px      :     0.011702
      py      :     0.013559
 17 H s       :     0.568663  s :     0.568663
      pz      :     0.009221  p :     0.053870
      px      :     0.028979
      py      :     0.015671
 18 O s       :     3.797780  s :     3.797780
      pz      :     1.566597  p :     4.909449
      px      :     1.556250
      py      :     1.786602
      dz2     :     0.012064  d :     0.025156
      dxz     :     0.001239
      dyz     :     0.002380
      dx2y2   :     0.002425
      dxy     :     0.007049
      f0      :     0.000230  f :     0.001398
      f+1     :     0.000383
      f-1     :     0.000155
      f+2     :     0.000050
      f-2     :     0.000055
      f+3     :     0.000051
      f-3     :     0.000475
 19 H s       :     0.552671  s :     0.552671
      pz      :     0.024514  p :     0.047779
      px      :     0.011206
      py      :     0.012058
 20 H s       :     0.584389  s :     0.584389
      pz      :     0.010354  p :     0.043472
      px      :     0.018576
      py      :     0.014541
 21 O s       :     3.809547  s :     3.809547
      pz      :     1.490932  p :     4.889916
      px      :     1.822479
      py      :     1.576505
      dz2     :     0.012060  d :     0.025409
      dxz     :     0.002939
      dyz     :     0.001283
      dx2y2   :     0.002042
      dxy     :     0.007085
      f0      :     0.000272  f :     0.001486
      f+1     :     0.000169
      f-1     :     0.000380
      f+2     :     0.000056
      f-2     :     0.000056
      f+3     :     0.000489
      f-3     :     0.000064
 22 H s       :     0.620772  s :     0.620772
      pz      :     0.018618  p :     0.045052
      px      :     0.014014
      py      :     0.012420
 23 H s       :     0.567101  s :     0.567101
      pz      :     0.009848  p :     0.050033
      px      :     0.016328
      py      :     0.023857


                     *******************************
                     * LOEWDIN POPULATION ANALYSIS *
                     *******************************

----------------------
LOEWDIN ATOMIC CHARGES
----------------------
   0 O :   -0.297254
   1 H :    0.167702
   2 H :    0.194585
   3 O :   -0.324220
   4 H :    0.157605
   5 H :    0.156829
   6 O :   -0.365218
   7 H :    0.155317
   8 H :    0.145240
   9 O :   -0.331253
  10 H :    0.145722
  11 H :    0.157754
  12 O :   -0.288831
  13 H :    0.182878
  14 H :    0.183745
  15 O :   -0.358094
  16 H :    0.149375
  17 H :    0.147202
  18 O :   -0.283931
  19 H :    0.162277
  20 H :    0.176599
  21 O :   -0.345884
  22 H :    0.156469
  23 H :    0.155387

-------------------------------
LOEWDIN REDUCED ORBITAL CHARGES
-------------------------------
  0 O s       :     3.462380  s :     3.462380
      pz      :     1.688522  p :     4.801362
      px      :     1.365662
      py      :     1.747178
      dz2     :     0.005522  d :     0.031448
      dxz     :     0.006770
      dyz     :     0.005315
      dx2y2   :     0.004233
      dxy     :     0.009608
      f0      :     0.000093  f :     0.002063
      f+1     :     0.000447
      f-1     :     0.000270
      f+2     :     0.000033
      f-2     :     0.000600
      f+3     :     0.000091
      f-3     :     0.000530
  1 H s       :     0.668122  s :     0.668122
      pz      :     0.066838  p :     0.164176
      px      :     0.044628
      py      :     0.052710
  2 H s       :     0.656249  s :     0.656249
      pz      :     0.033308  p :     0.149167
      px      :     0.072434
      py      :     0.043425
  3 O s       :     3.455453  s :     3.455453
      pz      :     1.681454  p :     4.837933
      px      :     1.752840
      py      :     1.403639
      dz2     :     0.004692  d :     0.028870
      dxz     :     0.005255
      dyz     :     0.006625
      dx2y2   :     0.003587
      dxy     :     0.008711
      f0      :     0.000084  f :     0.001963
      f+1     :     0.000262
      f-1     :     0.000429
      f+2     :     0.000032
      f-2     :     0.000609
      f+3     :     0.000465
      f-3     :     0.000083
  4 H s       :     0.676889  s :     0.676889
      pz      :     0.066057  p :     0.165506
      px      :     0.053360
      py      :     0.046090
  5 H s       :     0.646130  s :     0.646130
      pz      :     0.033298  p :     0.197040
      px      :     0.047581
      py      :     0.116161
  6 O s       :     3.459874  s :     3.459874
      pz      :     1.538343  p :     4.873757
      px      :     1.543246
      py      :     1.792168
      dz2     :     0.014518  d :     0.029577
      dxz     :     0.001849
      dyz     :     0.002150
      dx2y2   :     0.002134
      dxy     :     0.008926
      f0      :     0.000435  f :     0.002011
      f+1     :     0.000541
      f-1     :     0.000302
      f+2     :     0.000023
      f-2     :     0.000047
      f+3     :     0.000002
      f-3     :     0.000661
  7 H s       :     0.672866  s :     0.672866
      pz      :     0.093238  p :     0.171817
      px      :     0.036678
      py      :     0.041902
  8 H s       :     0.680845  s :     0.680845
      pz      :     0.031486  p :     0.173915
      px      :     0.084426
      py      :     0.058003
  9 O s       :     3.455237  s :     3.455237
      pz      :     1.579487  p :     4.845232
      px      :     1.784580
      py      :     1.481165
      dz2     :     0.013282  d :     0.028867
      dxz     :     0.001203
      dyz     :     0.003540
      dx2y2   :     0.004938
      dxy     :     0.005903
      f0      :     0.000323  f :     0.001918
      f+1     :     0.000194
      f-1     :     0.000695
      f+2     :     0.000036
      f-2     :     0.000043
      f+3     :     0.000558
      f-3     :     0.000068
 10 H s       :     0.669942  s :     0.669942
      pz      :     0.030940  p :     0.184336
      px      :     0.052694
      py      :     0.100702
 11 H s       :     0.667527  s :     0.667527
      pz      :     0.094743  p :     0.174719
      px      :     0.042682
      py      :     0.037295
 12 O s       :     3.460031  s :     3.460031
      pz      :     1.542869  p :     4.795036
      px      :     1.461078
      py      :     1.791088
      dz2     :     0.014974  d :     0.031696
      dxz     :     0.003800
      dyz     :     0.001316
      dx2y2   :     0.005150
      dxy     :     0.006455
      f0      :     0.000365  f :     0.002068
      f+1     :     0.000731
      f-1     :     0.000204
      f+2     :     0.000040
      f-2     :     0.000044
      f+3     :     0.000072
      f-3     :     0.000612
 13 H s       :     0.657928  s :     0.657928
      pz      :     0.081420  p :     0.159194
      px      :     0.035381
      py      :     0.042393
 14 H s       :     0.661588  s :     0.661588
      pz      :     0.029200  p :     0.154668
      px      :     0.076189
      py      :     0.049279
 15 O s       :     3.457659  s :     3.457659
      pz      :     1.547157  p :     4.869661
      px      :     1.483839
      py      :     1.838665
      dz2     :     0.013827  d :     0.028839
      dxz     :     0.003913
      dyz     :     0.001518
      dx2y2   :     0.003722
      dxy     :     0.005859
      f0      :     0.000369  f :     0.001935
      f+1     :     0.000694
      f-1     :     0.000181
      f+2     :     0.000042
      f-2     :     0.000043
      f+3     :     0.000065
      f-3     :     0.000541
 16 H s       :     0.678826  s :     0.678826
      pz      :     0.091091  p :     0.171799
      px      :     0.037369
      py      :     0.043340
 17 H s       :     0.665125  s :     0.665125
      pz      :     0.030316  p :     0.187673
      px      :     0.104585
      py      :     0.052773
 18 O s       :     3.452287  s :     3.452287
      pz      :     1.539344  p :     4.797707
      px      :     1.533375
      py      :     1.724988
      dz2     :     0.015597  d :     0.031836
      dxz     :     0.001819
      dyz     :     0.001821
      dx2y2   :     0.003603
      dxy     :     0.008995
      f0      :     0.000417  f :     0.002101
      f+1     :     0.000558
      f-1     :     0.000332
      f+2     :     0.000020
      f-2     :     0.000046
      f+3     :     0.000026
      f-3     :     0.000702
 19 H s       :     0.666928  s :     0.666928
      pz      :     0.093074  p :     0.170795
      px      :     0.036160
      py      :     0.041560
 20 H s       :     0.664790  s :     0.664790
      pz      :     0.030885  p :     0.158610
      px      :     0.073023
      py      :     0.054703
 21 O s       :     3.466606  s :     3.466606
      pz      :     1.502690  p :     4.845357
      px      :     1.793970
      py      :     1.548696
      dz2     :     0.016469  d :     0.031791
      dxz     :     0.002408
      dyz     :     0.002218
      dx2y2   :     0.002062
      dxy     :     0.008635
      f0      :     0.000508  f :     0.002130
      f+1     :     0.000314
      f-1     :     0.000583
      f+2     :     0.000025
      f-2     :     0.000050
      f+3     :     0.000647
      f-3     :     0.000002
 22 H s       :     0.685192  s :     0.685192
      pz      :     0.079215  p :     0.158339
      px      :     0.042705
      py      :     0.036418
 23 H s       :     0.671879  s :     0.671879
      pz      :     0.029490  p :     0.172734
      px      :     0.057738
      py      :     0.085506


                      *****************************
                      * MAYER POPULATION ANALYSIS *
                      *****************************

  NA   - Mulliken gross atomic population
  ZA   - Total nuclear charge
  QA   - Mulliken gross atomic charge
  VA   - Mayer's total valence
  BVA  - Mayer's bonded valence
  FA   - Mayer's free valence

  ATOM       NA         ZA         QA         VA         BVA        FA
  0 O      8.7443     8.0000    -0.7443     1.7545     1.7545    -0.0000
  1 H      0.6260     1.0000     0.3740     0.8760     0.8760    -0.0000
  2 H      0.6136     1.0000     0.3864     0.8653     0.8653    -0.0000
  3 O      8.7863     8.0000    -0.7863     1.6819     1.6819     0.0000
  4 H      0.6425     1.0000     0.3575     0.8896     0.8896    -0.0000
  5 H      0.5889     1.0000     0.4111     0.8660     0.8660    -0.0000
  6 O      8.7681     8.0000    -0.7681     1.7179     1.7179     0.0000
  7 H      0.6126     1.0000     0.3874     0.8781     0.8781     0.0000
  8 H      0.6357     1.0000     0.3643     0.8985     0.8985     0.0000
  9 O      8.7732     8.0000    -0.7732     1.7039     1.7039    -0.0000
 10 H      0.6250     1.0000     0.3750     0.8929     0.8929    -0.0000
 11 H      0.5996     1.0000     0.4004     0.8718     0.8718    -0.0000
 12 O      8.7516     8.0000    -0.7516     1.7489     1.7489    -0.0000
 13 H      0.6094     1.0000     0.3906     0.8649     0.8649     0.0000
 14 H      0.6201     1.0000     0.3799     0.8785     0.8785    -0.0000
 15 O      8.7863     8.0000    -0.7863     1.6773     1.6773    -0.0000
 16 H      0.6229     1.0000     0.3771     0.8844     0.8844     0.0000
 17 H      0.6225     1.0000     0.3775     0.8998     0.8998     0.0000
 18 O      8.7338     8.0000    -0.7338     1.7559     1.7559     0.0000
 19 H      0.6005     1.0000     0.3995     0.8615     0.8615     0.0000
 20 H      0.6279     1.0000     0.3721     0.8801     0.8801    -0.0000
 21 O      8.7264     8.0000    -0.7264     1.7511     1.7511    -0.0000
 22 H      0.6658     1.0000     0.3342     0.9038     0.9038     0.0000
 23 H      0.6171     1.0000     0.3829     0.8836     0.8836    -0.0000

  Mayer bond orders larger than 0.100000
B(  0-O ,  1-H ) :   0.8668 B(  0-O ,  2-H ) :   0.8531 B(  3-O ,  4-H ) :   0.8791 
B(  3-O ,  5-H ) :   0.7818 B(  6-O ,  7-H ) :   0.8495 B(  6-O ,  8-H ) :   0.8643 
B(  9-O , 10-H ) :   0.8419 B(  9-O , 11-H ) :   0.8316 B( 12-O , 13-H ) :   0.8550 
B( 12-O , 14-H ) :   0.8548 B( 15-O , 16-H ) :   0.8599 B( 15-O , 17-H ) :   0.8147 
B( 18-O , 19-H ) :   0.8404 B( 18-O , 20-H ) :   0.8666 B( 21-O , 22-H ) :   0.8972 
B( 21-O , 23-H ) :   0.8492 

-------
TIMINGS
-------

Total SCF time: 0 days 0 hours 0 min 27 sec 

Total time                  ....      27.026 sec
Sum of individual times     ....      26.720 sec  ( 98.9%)

Fock matrix formation       ....      26.130 sec  ( 96.7%)
Diagonalization             ....       0.140 sec  (  0.5%)
Density matrix formation    ....       0.015 sec  (  0.1%)
Population analysis         ....       0.026 sec  (  0.1%)
Initial guess               ....       0.196 sec  (  0.7%)
Orbital Transformation      ....       0.000 sec  (  0.0%)
Orbital Orthonormalization  ....       0.000 sec  (  0.0%)
DIIS solution               ....       0.056 sec  (  0.2%)
SOSCF solution              ....       0.062 sec  (  0.2%)


           ************************************************************
           *        Program running with 6 parallel MPI-processes     *
           *              working on a common directory               *
           ************************************************************

------------------------------------------------------------------------------
                                ORCA  MP2 
------------------------------------------------------------------------------

Freezing NCore=16 chemical core electrons
MP2 will be done in the AO integral direct mode
The Q1-step will be done using symmetric double matrices
Dimension of the basis                    ...  344
Memory devoted for MP2                    ... 8000 MB   
Memory needed for all in one shot         ...  935 MB
Number of MOs that can be treated together...   50      
MP2 density construction                  ... relaxed
The MP2 gradient is requested => amplitudes will be stored on disk
Total number of MOs              ...   32
Number of MOs treated per batch  ...    6 
Number of batches necessary      ...    1 
OPERATORS   0/  0 PASS   0
-----------------------------------------------
 MP2 CORRELATION ENERGY   :     -2.072241180 Eh
-----------------------------------------------


---------------------
MP2 DENSITY FORMATION
---------------------

Completing the external part of the density      ... done
Storing the unrelaxed density                    ... done

Calculating G(D)                                 ... done
Completing the Lagrangian                        ... done
Solving the Z-vector equations                   ... 

------------------------------------------------------------------------------
                           ORCA CP-SCF CALCULATION
------------------------------------------------------------------------------

Input orbitals are from        ... 12h2o.su.etal.mol1,2,3,5,6,7,8,11-orca.engrad-mp2.def2tzvp.frozencore.gbw
Input Perturbation             ... 12h2o.su.etal.mol1,2,3,5,6,7,8,11-orca.engrad-mp2.def2tzvp.frozencore.pin.tmp
Wavefunction output            ... 12h2o.su.etal.mol1,2,3,5,6,7,8,11-orca.engrad-mp2.def2tzvp.frozencore.pout.tmp
Perturbation mode              ... Real perturbation (singlet)
Solver                         ... POPLE
Max. number of iterations      ... 128
Convergence tolerance          ... 1.000e-08
Integral handling              ... Direct
Number of perturbations        ... 1
Number of operators            ... 1
Orbital ranges used for CP-SCF:
 Operator 0:  Orbitals   0... 39  to  40...343
Variables per vector in CP-SCF ... 12160
Number of vectors sought       ... 1
     CP-SCF ITERATION   0: 
     CP-SCF ITERATION   1:      0.001019360621
     CP-SCF ITERATION   2:      0.000026875372
     CP-SCF ITERATION   3:      0.000001044918
     CP-SCF ITERATION   4:      0.000000111392
     CP-SCF ITERATION   5:      0.000000009999
                                                 ... done
Finalizing the relaxed density                   ... done
Transforming P to the AO basis                   ... done
Storing the relaxed density                      ... done

------------------------------------
ENERGY WEIGHTED DENSITY FINALIZATION
------------------------------------

Gathering the parts of the W-matrix              ...                                                      done
Forming the Z-density                            ... done
Transforming Z to the AO basis                   ... done
Calculating G(Z)                                 ... done
Finalizing the W-matrix                          ...                                                      done
Transforming W to the AO basis and storing       ... done

                *********************************************
                * UNRELAXED MP2 DENSITY POPULATION ANALYSIS *
                *********************************************

------------------------------------------------------------------------------
                           ORCA POPULATION ANALYSIS
------------------------------------------------------------------------------
Input electron density              ... 12h2o.su.etal.mol1,2,3,5,6,7,8,11-orca.engrad-mp2.def2tzvp.frozencore.pmp2ur
BaseName (.gbw .S,...)              ... 12h2o.su.etal.mol1,2,3,5,6,7,8,11-orca.engrad-mp2.def2tzvp.frozencore

                    ********************************
                    * MULLIKEN POPULATION ANALYSIS *
                    ********************************

-----------------------
MULLIKEN ATOMIC CHARGES
-----------------------
   0 O :   -0.738589
   1 H :    0.371718
   2 H :    0.383580
   3 O :   -0.779743
   4 H :    0.355175
   5 H :    0.406295
   6 O :   -0.762169
   7 H :    0.384345
   8 H :    0.360874
   9 O :   -0.765779
  10 H :    0.370756
  11 H :    0.397125
  12 O :   -0.745336
  13 H :    0.388267
  14 H :    0.376800
  15 O :   -0.779821
  16 H :    0.374196
  17 H :    0.372646
  18 O :   -0.726977
  19 H :    0.396732
  20 H :    0.369522
  21 O :   -0.720966
  22 H :    0.331688
  23 H :    0.379662
Sum of atomic charges:   -0.0000000

--------------------------------
MULLIKEN REDUCED ORBITAL CHARGES
--------------------------------
  0 O s       :     3.803040  s :     3.803040
      pz      :     1.723084  p :     4.880216
      px      :     1.376900
      py      :     1.780232
      dz2     :     0.009691  d :     0.051289
      dxz     :     0.010010
      dyz     :     0.010924
      dx2y2   :     0.008035
      dxy     :     0.012629
      f0      :     0.000458  f :     0.004045
      f+1     :     0.000698
      f-1     :     0.000548
      f+2     :     0.000431
      f-2     :     0.000713
      f+3     :     0.000464
      f-3     :     0.000732
  1 H s       :     0.581799  s :     0.581799
      pz      :     0.017490  p :     0.046483
      px      :     0.013672
      py      :     0.015320
  2 H s       :     0.574464  s :     0.574464
      pz      :     0.011204  p :     0.041957
      px      :     0.017915
      py      :     0.012838
  3 O s       :     3.802503  s :     3.802503
      pz      :     1.710008  p :     4.923118
      px      :     1.786259
      py      :     1.426851
      dz2     :     0.009275  d :     0.050133
      dxz     :     0.010672
      dyz     :     0.009846
      dx2y2   :     0.007913
      dxy     :     0.012426
      f0      :     0.000454  f :     0.003989
      f+1     :     0.000539
      f-1     :     0.000682
      f+2     :     0.000434
      f-2     :     0.000714
      f+3     :     0.000705
      f-3     :     0.000461
  4 H s       :     0.597775  s :     0.597775
      pz      :     0.017304  p :     0.047050
      px      :     0.015525
      py      :     0.014220
  5 H s       :     0.536529  s :     0.536529
      pz      :     0.010821  p :     0.057177
      px      :     0.013832
      py      :     0.032524
  6 O s       :     3.800580  s :     3.800580
      pz      :     1.547433  p :     4.906178
      px      :     1.551297
      py      :     1.807448
      dz2     :     0.016452  d :     0.051403
      dxz     :     0.006667
      dyz     :     0.008304
      dx2y2   :     0.007617
      dxy     :     0.012363
      f0      :     0.000629  f :     0.004008
      f+1     :     0.000740
      f-1     :     0.000532
      f+2     :     0.000416
      f-2     :     0.000421
      f+3     :     0.000433
      f-3     :     0.000836
  7 H s       :     0.565615  s :     0.565615
      pz      :     0.024500  p :     0.050041
      px      :     0.012048
      py      :     0.013493
  8 H s       :     0.586931  s :     0.586931
      pz      :     0.011141  p :     0.052195
      px      :     0.023725
      py      :     0.017329
  9 O s       :     3.790965  s :     3.790965
      pz      :     1.598228  p :     4.919392
      px      :     1.826339
      py      :     1.494824
      dz2     :     0.016303  d :     0.051489
      dxz     :     0.007773
      dyz     :     0.008198
      dx2y2   :     0.008999
      dxy     :     0.010217
      f0      :     0.000539  f :     0.003932
      f+1     :     0.000485
      f-1     :     0.000819
      f+2     :     0.000435
      f-2     :     0.000408
      f+3     :     0.000775
      f-3     :     0.000471
 10 H s       :     0.574325  s :     0.574325
      pz      :     0.010617  p :     0.054919
      px      :     0.015840
      py      :     0.028462
 11 H s       :     0.552959  s :     0.552959
      pz      :     0.025114  p :     0.049916
      px      :     0.013283
      py      :     0.011520
 12 O s       :     3.799354  s :     3.799354
      pz      :     1.570143  p :     4.890221
      px      :     1.476003
      py      :     1.844075
      dz2     :     0.016283  d :     0.051742
      dxz     :     0.007981
      dyz     :     0.007776
      dx2y2   :     0.009060
      dxy     :     0.010642
      f0      :     0.000573  f :     0.004020
      f+1     :     0.000819
      f-1     :     0.000494
      f+2     :     0.000435
      f-2     :     0.000405
      f+3     :     0.000480
      f-3     :     0.000814
 13 H s       :     0.566792  s :     0.566792
      pz      :     0.019434  p :     0.044942
      px      :     0.011829
      py      :     0.013679
 14 H s       :     0.580270  s :     0.580270
      pz      :     0.009750  p :     0.042929
      px      :     0.018844
      py      :     0.014335
 15 O s       :     3.802590  s :     3.802590
      pz      :     1.567350  p :     4.922971
      px      :     1.491189
      py      :     1.864432
      dz2     :     0.015457  d :     0.050278
      dxz     :     0.008061
      dyz     :     0.007965
      dx2y2   :     0.008415
      dxy     :     0.010380
      f0      :     0.000572  f :     0.003981
      f+1     :     0.000795
      f-1     :     0.000492
      f+2     :     0.000441
      f-2     :     0.000404
      f+3     :     0.000480
      f-3     :     0.000797
 16 H s       :     0.575036  s :     0.575036
      pz      :     0.024042  p :     0.050768
      px      :     0.012310
      py      :     0.014416
 17 H s       :     0.571813  s :     0.571813
      pz      :     0.010038  p :     0.055541
      px      :     0.029114
      py      :     0.016389
 18 O s       :     3.792633  s :     3.792633
      pz      :     1.556946  p :     4.877851
      px      :     1.546766
      py      :     1.774138
      dz2     :     0.017274  d :     0.052498
      dxz     :     0.006685
      dyz     :     0.008001
      dx2y2   :     0.008073
      dxy     :     0.012465
      f0      :     0.000615  f :     0.003996
      f+1     :     0.000752
      f-1     :     0.000534
      f+2     :     0.000413
      f-2     :     0.000422
      f+3     :     0.000425
      f-3     :     0.000834
 19 H s       :     0.553999  s :     0.553999
      pz      :     0.024572  p :     0.049269
      px      :     0.011841
      py      :     0.012856
 20 H s       :     0.585483  s :     0.585483
      pz      :     0.011125  p :     0.044995
      px      :     0.018718
      py      :     0.015152
 21 O s       :     3.804714  s :     3.804714
      pz      :     1.482088  p :     4.860138
      px      :     1.810908
      py      :     1.567143
      dz2     :     0.017059  d :     0.052068
      dxz     :     0.008382
      dyz     :     0.006672
      dx2y2   :     0.007585
      dxy     :     0.012369
      f0      :     0.000646  f :     0.004046
      f+1     :     0.000539
      f-1     :     0.000745
      f+2     :     0.000414
      f-2     :     0.000421
      f+3     :     0.000846
      f-3     :     0.000435
 22 H s       :     0.621545  s :     0.621545
      pz      :     0.018720  p :     0.046766
      px      :     0.014894
      py      :     0.013153
 23 H s       :     0.568733  s :     0.568733
      pz      :     0.010619  p :     0.051605
      px      :     0.016930
      py      :     0.024056


                     *******************************
                     * LOEWDIN POPULATION ANALYSIS *
                     *******************************

----------------------
LOEWDIN ATOMIC CHARGES
----------------------
   0 O :   -0.292889
   1 H :    0.166533
   2 H :    0.192780
   3 O :   -0.320096
   4 H :    0.156253
   5 H :    0.154145
   6 O :   -0.362353
   7 H :    0.153367
   8 H :    0.142978
   9 O :   -0.327066
  10 H :    0.143087
  11 H :    0.155621
  12 O :   -0.284108
  13 H :    0.181531
  14 H :    0.181854
  15 O :   -0.354670
  16 H :    0.147315
  17 H :    0.144454
  18 O :   -0.279475
  19 H :    0.160437
  20 H :    0.175085
  21 O :   -0.342993
  22 H :    0.154893
  23 H :    0.153319

-------------------------------
LOEWDIN REDUCED ORBITAL CHARGES
-------------------------------
  0 O s       :     3.458618  s :     3.458618
      pz      :     1.677073  p :     4.769639
      px      :     1.357466
      py      :     1.735099
      dz2     :     0.011217  d :     0.059807
      dxz     :     0.012382
      dyz     :     0.011101
      dx2y2   :     0.009813
      dxy     :     0.015293
      f0      :     0.000477  f :     0.004826
      f+1     :     0.000858
      f-1     :     0.000657
      f+2     :     0.000409
      f-2     :     0.001008
      f+3     :     0.000476
      f-3     :     0.000943
  1 H s       :     0.666373  s :     0.666373
      pz      :     0.068013  p :     0.167095
      px      :     0.045420
      py      :     0.053662
  2 H s       :     0.655108  s :     0.655108
      pz      :     0.034141  p :     0.152112
      px      :     0.073596
      py      :     0.044375
  3 O s       :     3.451808  s :     3.451808
      pz      :     1.669824  p :     4.805571
      px      :     1.740694
      py      :     1.395054
      dz2     :     0.010511  d :     0.057957
      dxz     :     0.011149
      dyz     :     0.012375
      dx2y2   :     0.009355
      dxy     :     0.014567
      f0      :     0.000470  f :     0.004760
      f+1     :     0.000650
      f-1     :     0.000846
      f+2     :     0.000411
      f-2     :     0.001021
      f+3     :     0.000887
      f-3     :     0.000474
  4 H s       :     0.675091  s :     0.675091
      pz      :     0.067278  p :     0.168656
      px      :     0.054360
      py      :     0.047018
  5 H s       :     0.646438  s :     0.646438
      pz      :     0.034129  p :     0.199417
      px      :     0.048445
      py      :     0.116844
  6 O s       :     3.456253  s :     3.456253
      pz      :     1.528800  p :     4.843538
      px      :     1.533716
      py      :     1.781022
      dz2     :     0.020398  d :     0.057779
      dxz     :     0.007279
      dyz     :     0.007607
      dx2y2   :     0.007694
      dxy     :     0.014799
      f0      :     0.000857  f :     0.004783
      f+1     :     0.000965
      f-1     :     0.000699
      f+2     :     0.000388
      f-2     :     0.000421
      f+3     :     0.000376
      f-3     :     0.001076
  7 H s       :     0.671945  s :     0.671945
      pz      :     0.094551  p :     0.174688
      px      :     0.037441
      py      :     0.042697
  8 H s       :     0.680037  s :     0.680037
      pz      :     0.032288  p :     0.176985
      px      :     0.085707
      py      :     0.058990
  9 O s       :     3.451542  s :     3.451542
      pz      :     1.569477  p :     4.813011
      px      :     1.771657
      py      :     1.471878
      dz2     :     0.019250  d :     0.057786
      dxz     :     0.006841
      dyz     :     0.009067
      dx2y2   :     0.010807
      dxy     :     0.011822
      f0      :     0.000743  f :     0.004726
      f+1     :     0.000587
      f-1     :     0.001137
      f+2     :     0.000411
      f-2     :     0.000418
      f+3     :     0.000977
      f-3     :     0.000452
 10 H s       :     0.669635  s :     0.669635
      pz      :     0.031802  p :     0.187278
      px      :     0.053591
      py      :     0.101885
 11 H s       :     0.666871  s :     0.666871
      pz      :     0.096004  p :     0.177508
      px      :     0.043440
      py      :     0.038064
 12 O s       :     3.456178  s :     3.456178
      pz      :     1.532565  p :     4.762877
      px      :     1.451942
      py      :     1.778370
      dz2     :     0.020915  d :     0.060207
      dxz     :     0.009230
      dyz     :     0.006917
      dx2y2   :     0.010899
      dxy     :     0.012247
      f0      :     0.000781  f :     0.004847
      f+1     :     0.001165
      f-1     :     0.000596
      f+2     :     0.000412
      f-2     :     0.000416
      f+3     :     0.000452
      f-3     :     0.001024
 13 H s       :     0.656458  s :     0.656458
      pz      :     0.082769  p :     0.162011
      px      :     0.036092
      py      :     0.043149
 14 H s       :     0.660516  s :     0.660516
      pz      :     0.029996  p :     0.157630
      px      :     0.077432
      py      :     0.050202
 15 O s       :     3.454025  s :     3.454025
      pz      :     1.536667  p :     4.838204
      px      :     1.474506
      py      :     1.827030
      dz2     :     0.019890  d :     0.057715
      dxz     :     0.009484
      dyz     :     0.007133
      dx2y2   :     0.009504
      dxy     :     0.011704
      f0      :     0.000788  f :     0.004726
      f+1     :     0.001137
      f-1     :     0.000572
      f+2     :     0.000414
      f-2     :     0.000418
      f+3     :     0.000443
      f-3     :     0.000953
 16 H s       :     0.677854  s :     0.677854
      pz      :     0.092510  p :     0.174831
      px      :     0.038189
      py      :     0.044133
 17 H s       :     0.665074  s :     0.665074
      pz      :     0.031169  p :     0.190473
      px      :     0.105674
      py      :     0.053630
 18 O s       :     3.448480  s :     3.448480
      pz      :     1.529636  p :     4.765884
      px      :     1.523775
      py      :     1.712473
      dz2     :     0.021482  d :     0.060216
      dxz     :     0.007223
      dyz     :     0.007373
      dx2y2   :     0.009230
      dxy     :     0.014908
      f0      :     0.000842  f :     0.004896
      f+1     :     0.000981
      f-1     :     0.000734
      f+2     :     0.000388
      f-2     :     0.000421
      f+3     :     0.000406
      f-3     :     0.001122
 19 H s       :     0.665963  s :     0.665963
      pz      :     0.094354  p :     0.173600
      px      :     0.036891
      py      :     0.042355
 20 H s       :     0.663320  s :     0.663320
      pz      :     0.031631  p :     0.161595
      px      :     0.074271
      py      :     0.055693
 21 O s       :     3.462900  s :     3.462900
      pz      :     1.493432  p :     4.815649
      px      :     1.782874
      py      :     1.539342
      dz2     :     0.022204  d :     0.059561
      dxz     :     0.007791
      dyz     :     0.007544
      dx2y2   :     0.007572
      dxy     :     0.014450
      f0      :     0.000924  f :     0.004884
      f+1     :     0.000707
      f-1     :     0.001003
      f+2     :     0.000389
      f-2     :     0.000422
      f+3     :     0.001062
      f-3     :     0.000377
 22 H s       :     0.683403  s :     0.683403
      pz      :     0.080947  p :     0.161704
      px      :     0.043540
      py      :     0.037217
 23 H s       :     0.671088  s :     0.671088
      pz      :     0.030236  p :     0.175593
      px      :     0.058665
      py      :     0.086693


                      *****************************
                      * MAYER POPULATION ANALYSIS *
                      *****************************

  NA   - Mulliken gross atomic population
  ZA   - Total nuclear charge
  QA   - Mulliken gross atomic charge
[...]
      f+1     :     0.000730
      f-1     :     0.000525
      f+2     :     0.000414
      f-2     :     0.000421
      f+3     :     0.000425
      f-3     :     0.000809
 19 H s       :     0.565463  s :     0.565463
      pz      :     0.023749  p :     0.049645
      px      :     0.012270
      py      :     0.013626
 20 H s       :     0.592230  s :     0.592230
      pz      :     0.011812  p :     0.045606
      px      :     0.018143
      py      :     0.015651
 21 O s       :     3.806030  s :     3.806030
      pz      :     1.475255  p :     4.843050
      px      :     1.803364
      py      :     1.564431
      dz2     :     0.015681  d :     0.049932
      dxz     :     0.008352
      dyz     :     0.006617
      dx2y2   :     0.007537
      dxy     :     0.011745
      f0      :     0.000628  f :     0.003973
      f+1     :     0.000529
      f-1     :     0.000723
      f+2     :     0.000415
      f-2     :     0.000420
      f+3     :     0.000824
      f-3     :     0.000435
 22 H s       :     0.626782  s :     0.626782
      pz      :     0.017946  p :     0.047598
      px      :     0.015882
      py      :     0.013770
 23 H s       :     0.584273  s :     0.584273
      pz      :     0.011259  p :     0.052128
      px      :     0.017321
      py      :     0.023548


                     *******************************
                     * LOEWDIN POPULATION ANALYSIS *
                     *******************************

----------------------
LOEWDIN ATOMIC CHARGES
----------------------
   0 O :   -0.287356
   1 H :    0.168055
   2 H :    0.193531
   3 O :   -0.313155
   4 H :    0.158120
   5 H :    0.146488
   6 O :   -0.361860
   7 H :    0.149921
   8 H :    0.138572
   9 O :   -0.319677
  10 H :    0.136974
  11 H :    0.150907
  12 O :   -0.277078
  13 H :    0.182596
  14 H :    0.181574
  15 O :   -0.351445
  16 H :    0.143745
  17 H :    0.137308
  18 O :   -0.272146
  19 H :    0.157638
  20 H :    0.176256
  21 O :   -0.344154
  22 H :    0.156321
  23 H :    0.148866

-------------------------------
LOEWDIN REDUCED ORBITAL CHARGES
-------------------------------
  0 O s       :     3.460458  s :     3.460458
      pz      :     1.672297  p :     4.763241
      px      :     1.362515
      py      :     1.728428
      dz2     :     0.011185  d :     0.058811
      dxz     :     0.012031
      dyz     :     0.011103
      dx2y2   :     0.009609
      dxy     :     0.014883
      f0      :     0.000480  f :     0.004846
      f+1     :     0.000863
      f-1     :     0.000657
      f+2     :     0.000410
      f-2     :     0.001008
      f+3     :     0.000479
      f-3     :     0.000949
  1 H s       :     0.665119  s :     0.665119
      pz      :     0.068064  p :     0.166827
      px      :     0.044636
      py      :     0.054127
  2 H s       :     0.654517  s :     0.654517
      pz      :     0.034841  p :     0.151952
      px      :     0.072141
      py      :     0.044970
  3 O s       :     3.453446  s :     3.453446
      pz      :     1.664528  p :     4.797362
      px      :     1.734059
      py      :     1.398775
      dz2     :     0.010599  d :     0.057548
      dxz     :     0.011118
      dyz     :     0.012039
      dx2y2   :     0.009417
      dxy     :     0.014375
      f0      :     0.000473  f :     0.004799
      f+1     :     0.000652
      f-1     :     0.000857
      f+2     :     0.000412
      f-2     :     0.001023
      f+3     :     0.000903
      f-3     :     0.000479
  4 H s       :     0.673224  s :     0.673224
      pz      :     0.067194  p :     0.168656
      px      :     0.054855
      py      :     0.046608
  5 H s       :     0.653932  s :     0.653932
      pz      :     0.034687  p :     0.199579
      px      :     0.048905
      py      :     0.115987
  6 O s       :     3.456875  s :     3.456875
      pz      :     1.530052  p :     4.843325
      px      :     1.534893
      py      :     1.778381
      dz2     :     0.019872  d :     0.056853
      dxz     :     0.007164
      dyz     :     0.007626
      dx2y2   :     0.007660
      dxy     :     0.014530
      f0      :     0.000861  f :     0.004806
      f+1     :     0.000973
      f-1     :     0.000698
      f+2     :     0.000390
      f-2     :     0.000421
      f+3     :     0.000376
      f-3     :     0.001087
  7 H s       :     0.675137  s :     0.675137
      pz      :     0.093712  p :     0.174942
      px      :     0.037822
      py      :     0.043408
  8 H s       :     0.683646  s :     0.683646
      pz      :     0.032849  p :     0.177782
      px      :     0.085319
      py      :     0.059614
  9 O s       :     3.452177  s :     3.452177
      pz      :     1.570863  p :     4.805458
      px      :     1.760267
      py      :     1.474328
      dz2     :     0.018907  d :     0.057285
      dxz     :     0.006906
      dyz     :     0.008903
      dx2y2   :     0.010813
      dxy     :     0.011755
      f0      :     0.000744  f :     0.004758
      f+1     :     0.000589
      f-1     :     0.001149
      f+2     :     0.000413
      f-2     :     0.000417
      f+3     :     0.000990
      f-3     :     0.000455
 10 H s       :     0.674895  s :     0.674895
      pz      :     0.032416  p :     0.188131
      px      :     0.054164
      py      :     0.101552
 11 H s       :     0.671235  s :     0.671235
      pz      :     0.095502  p :     0.177858
      px      :     0.044072
      py      :     0.038284
 12 O s       :     3.457485  s :     3.457485
      pz      :     1.531564  p :     4.755472
      px      :     1.455063
      py      :     1.768845
      dz2     :     0.020425  d :     0.059256
      dxz     :     0.009014
      dyz     :     0.006996
      dx2y2   :     0.010781
      dxy     :     0.012040
      f0      :     0.000781  f :     0.004865
      f+1     :     0.001173
      f-1     :     0.000598
      f+2     :     0.000414
      f-2     :     0.000415
      f+3     :     0.000454
      f-3     :     0.001031
 13 H s       :     0.655757  s :     0.655757
      pz      :     0.081821  p :     0.161648
      px      :     0.035938
      py      :     0.043888
 14 H s       :     0.660911  s :     0.660911
      pz      :     0.030380  p :     0.157516
      px      :     0.076301
      py      :     0.050835
 15 O s       :     3.454976  s :     3.454976
      pz      :     1.534654  p :     4.834552
      px      :     1.476358
      py      :     1.823540
      dz2     :     0.019593  d :     0.057154
      dxz     :     0.009306
      dyz     :     0.007204
      dx2y2   :     0.009450
      dxy     :     0.011602
      f0      :     0.000793  f :     0.004763
      f+1     :     0.001150
      f-1     :     0.000573
      f+2     :     0.000417
      f-2     :     0.000417
      f+3     :     0.000446
      f-3     :     0.000967
 16 H s       :     0.680936  s :     0.680936
      pz      :     0.091920  p :     0.175319
      px      :     0.038386
      py      :     0.045013
 17 H s       :     0.671404  s :     0.671404
      pz      :     0.031623  p :     0.191288
      px      :     0.105383
      py      :     0.054282
 18 O s       :     3.449221  s :     3.449221
      pz      :     1.531073  p :     4.758645
      px      :     1.525214
      py      :     1.702358
      dz2     :     0.020946  d :     0.059366
      dxz     :     0.007115
      dyz     :     0.007423
      dx2y2   :     0.009275
      dxy     :     0.014608
      f0      :     0.000845  f :     0.004914
      f+1     :     0.000987
      f-1     :     0.000735
      f+2     :     0.000390
      f-2     :     0.000421
      f+3     :     0.000408
      f-3     :     0.001128
 19 H s       :     0.668670  s :     0.668670
      pz      :     0.093473  p :     0.173692
      px      :     0.037228
      py      :     0.042990
 20 H s       :     0.662261  s :     0.662261
      pz      :     0.032032  p :     0.161483
      px      :     0.073474
      py      :     0.055977
 21 O s       :     3.464388  s :     3.464388
      pz      :     1.495208  p :     4.816471
      px      :     1.780254
      py      :     1.541008
      dz2     :     0.021431  d :     0.058391
      dxz     :     0.007814
      dyz     :     0.007398
      dx2y2   :     0.007539
      dxy     :     0.014209
      f0      :     0.000924  f :     0.004904
      f+1     :     0.000705
      f-1     :     0.001012
      f+2     :     0.000391
      f-2     :     0.000421
      f+3     :     0.001074
      f-3     :     0.000377
 22 H s       :     0.681496  s :     0.681496
      pz      :     0.080268  p :     0.162183
      px      :     0.044441
      py      :     0.037474
 23 H s       :     0.675126  s :     0.675126
      pz      :     0.030592  p :     0.176008
      px      :     0.059156
      py      :     0.086260


                      *****************************
                      * MAYER POPULATION ANALYSIS *
                      *****************************

  NA   - Mulliken gross atomic population
  ZA   - Total nuclear charge
  QA   - Mulliken gross atomic charge
  VA   - Mayer's total valence
  BVA  - Mayer's bonded valence
  FA   - Mayer's free valence

  ATOM       NA         ZA         QA         VA         BVA        FA
  0 O      8.7163     8.0000    -0.7163     2.1055     1.7197     0.3858
  1 H      0.6356     1.0000     0.3644     0.8872     0.8426     0.0446
  2 H      0.6240     1.0000     0.3760     0.8793     0.8328     0.0465
  3 O      8.7497     8.0000    -0.7497     2.0422     1.6522     0.3900
  4 H      0.6519     1.0000     0.3481     0.9005     0.8540     0.0465
  5 H      0.6175     1.0000     0.3825     0.9019     0.8572     0.0447
  6 O      8.7388     8.0000    -0.7388     2.0516     1.6652     0.3864
  7 H      0.6296     1.0000     0.3704     0.9031     0.8589     0.0442
  8 H      0.6559     1.0000     0.3441     0.9290     0.8826     0.0464
  9 O      8.7305     8.0000    -0.7305     2.0618     1.6738     0.3880
 10 H      0.6488     1.0000     0.3512     0.9275     0.8807     0.0468
 11 H      0.6194     1.0000     0.3806     0.9008     0.8575     0.0433
 12 O      8.7199     8.0000    -0.7199     2.1051     1.7194     0.3857
 13 H      0.6196     1.0000     0.3804     0.8774     0.8335     0.0439
 14 H      0.6332     1.0000     0.3668     0.8983     0.8520     0.0463
 15 O      8.7507     8.0000    -0.7507     2.0234     1.6328     0.3906
 16 H      0.6405     1.0000     0.3595     0.9087     0.8636     0.0451
 17 H      0.6526     1.0000     0.3474     0.9408     0.8939     0.0470
 18 O      8.6986     8.0000    -0.6986     2.1036     1.7212     0.3824
 19 H      0.6151     1.0000     0.3849     0.8829     0.8397     0.0432
 20 H      0.6378     1.0000     0.3622     0.8939     0.8481     0.0457
 21 O      8.7030     8.0000    -0.7030     2.0708     1.6876     0.3831
 22 H      0.6744     1.0000     0.3256     0.9148     0.8659     0.0489
 23 H      0.6364     1.0000     0.3636     0.9127     0.8684     0.0443

  Mayer bond orders larger than 0.100000
B(  0-O ,  1-H ) :   0.8318 B(  0-O ,  2-H ) :   0.8165 B(  3-O ,  4-H ) :   0.8417 
B(  3-O ,  5-H ) :   0.7447 B(  6-O ,  7-H ) :   0.8172 B(  6-O ,  8-H ) :   0.8288 
B(  9-O , 10-H ) :   0.8037 B(  9-O , 11-H ) :   0.7994 B(  9-O , 17-H ) :   0.1029 
B( 12-O , 13-H ) :   0.8208 B( 12-O , 14-H ) :   0.8183 B( 15-O , 16-H ) :   0.8261 
B( 15-O , 17-H ) :   0.7739 B( 18-O , 19-H ) :   0.8078 B( 18-O , 20-H ) :   0.8301 
B( 21-O , 22-H ) :   0.8580 B( 21-O , 23-H ) :   0.8160 


----------------------------------
MP2 DERIVATIVE INTEGRAL GENERATION
----------------------------------


Input Wavefunction Amplitudes       ... 12h2o.su.etal.mol1,2,3,5,6,7,8,11-orca.engrad-mp2.def2tzvp.frozencore.mp2tsaa.tmp
Input Correlated Electron Density   ... 12h2o.su.etal.mol1,2,3,5,6,7,8,11-orca.engrad-mp2.def2tzvp.frozencore.pmp2re
Input Energy Weighted Density       ... 12h2o.su.etal.mol1,2,3,5,6,7,8,11-orca.engrad-mp2.def2tzvp.frozencore.wmp2.tmp
Input SCF Electron Density          ... 12h2o.su.etal.mol1,2,3,5,6,7,8,11-orca.engrad-mp2.def2tzvp.frozencore.scfp

One-Electron Terms    ...
                        ... One-Electron Terms done
Prescreening matrices              ... done

Batch handling in the gradient evaluation:
Memory available                      ... 8000.0 MB
Memory per occupied orbital in Q2     ...   28.9 MB
Memory per occupied orbital in Q3     ...    0.1 MB
Total memory requirement per |i>      ...   29.0 MB
Max. Number of orbitals possible      ...    275
Number of orbitals treated per batch  ...     32
Number of batches to be done          ...      1
Batch   0: i=    8 ...    39

---------------------------------------
MP2 TOTAL ENERGY:     -610.580409353 Eh
---------------------------------------

The final MP2 gradient
  0:  -0.02569115   0.00719209  -0.00343737
  1:  -0.00008706   0.00260925  -0.00276768
  2:   0.02561061  -0.00710384   0.00208293
  3:  -0.00478790  -0.00362749  -0.00129227
  4:  -0.00054830   0.00008211   0.00132705
  5:   0.00305999   0.00882316   0.00231017
  6:  -0.00420715   0.00184923   0.00049043
  7:  -0.00176296  -0.00264676   0.00189384
  8:   0.00648528  -0.00165219  -0.00158073
  9:  -0.00400934  -0.00616703  -0.00256001
 10:   0.00297565   0.01299815   0.00123033
 11:   0.00131850  -0.00130340   0.00129843
 12:   0.01409591  -0.01128504  -0.00917628
 13:  -0.00008653  -0.00124896   0.00582318
 14:  -0.01266452   0.00687153  -0.00031583
 15:  -0.00181687   0.00098793  -0.00553492
 16:  -0.00203348  -0.00185002   0.00720464
 17:   0.00425498  -0.00090696  -0.00005916
 18:   0.00684834  -0.00719408  -0.00357426
 19:  -0.00150742  -0.00044112   0.00209757
 20:  -0.00593701   0.00492359   0.00224388
 21:  -0.00067107   0.00089808   0.01014926
 22:   0.00207175   0.00255981  -0.01013898
 23:  -0.00091026  -0.00436801   0.00228577

-----------------------------------
NORM OF THE MP2 GRADIENT:  0.055688
-----------------------------------

-------------------------   --------------------
FINAL SINGLE POINT ENERGY      -610.580409353282
-------------------------   --------------------


                            ***************************************
                            *     ORCA property calculations      *
                            ***************************************

                                    ---------------------
                                    Active property flags
                                    ---------------------
   (+) Dipole Moment


------------------------------------------------------------------------------
                       ORCA ELECTRIC PROPERTIES CALCULATION
------------------------------------------------------------------------------

Dipole Moment Calculation                       ... on
Quadrupole Moment Calculation                   ... off
Polarizability Calculation                      ... off
GBWName                                         ... 12h2o.su.etal.mol1,2,3,5,6,7,8,11-orca.engrad-mp2.def2tzvp.frozencore.gbw
Electron density file                           ... 12h2o.su.etal.mol1,2,3,5,6,7,8,11-orca.engrad-mp2.def2tzvp.frozencore.scfp
The origin for moment calculation is the CENTER OF MASS  = (-0.157829, -0.644518 -0.673413)

-------------
DIPOLE MOMENT
-------------
                                X             Y             Z
Electronic contribution:      0.30661       0.22333       0.10605
Nuclear contribution   :      0.87642      -0.37074       1.46039
                        -----------------------------------------
Total Dipole Moment    :      1.18303      -0.14742       1.56643
                        -----------------------------------------
Magnitude (a.u.)       :      1.96850
Magnitude (Debye)      :      5.00353



--------------------
Rotational spectrum 
--------------------
 
Rotational constants in cm-1:     0.037543     0.018035     0.015226 
Rotational constants in MHz :  1125.521129   540.662622   456.475724 

 Dipole components along the rotational axes: 
x,y,z [a.u.] :     1.029574    -1.098654     1.268043 
x,y,z [Debye]:     2.616969    -2.792558     3.223110 

 

                         *** MP2 UNRELAXED DENSITY ***

------------------------------------------------------------------------------
                       ORCA ELECTRIC PROPERTIES CALCULATION
------------------------------------------------------------------------------

Dipole Moment Calculation                       ... on
Quadrupole Moment Calculation                   ... off
Polarizability Calculation                      ... off
GBWName                                         ... 12h2o.su.etal.mol1,2,3,5,6,7,8,11-orca.engrad-mp2.def2tzvp.frozencore.gbw
Electron density file                           ... 12h2o.su.etal.mol1,2,3,5,6,7,8,11-orca.engrad-mp2.def2tzvp.frozencore.pmp2ur
The origin for moment calculation is the CENTER OF MASS  = (-0.157829, -0.644518 -0.673413)

-------------
DIPOLE MOMENT
-------------
                                X             Y             Z
Electronic contribution:      0.30157       0.22917       0.09317
Nuclear contribution   :      0.87642      -0.37074       1.46039
                        -----------------------------------------
Total Dipole Moment    :      1.17799      -0.14158       1.55355
                        -----------------------------------------
Magnitude (a.u.)       :      1.95480
Magnitude (Debye)      :      4.96869



--------------------
Rotational spectrum 
--------------------
 
Rotational constants in cm-1:     0.037543     0.018035     0.015226 
Rotational constants in MHz :  1125.521129   540.662622   456.475724 

 Dipole components along the rotational axes: 
x,y,z [a.u.] :     1.020212    -1.096068     1.256593 
x,y,z [Debye]:     2.593173    -2.785982     3.194007 

 

                           *** MP2 RELAXED DENSITY ***

------------------------------------------------------------------------------
                       ORCA ELECTRIC PROPERTIES CALCULATION
------------------------------------------------------------------------------

Dipole Moment Calculation                       ... on
Quadrupole Moment Calculation                   ... off
Polarizability Calculation                      ... off
GBWName                                         ... 12h2o.su.etal.mol1,2,3,5,6,7,8,11-orca.engrad-mp2.def2tzvp.frozencore.gbw
Electron density file                           ... 12h2o.su.etal.mol1,2,3,5,6,7,8,11-orca.engrad-mp2.def2tzvp.frozencore.pmp2re
The origin for moment calculation is the CENTER OF MASS  = (-0.157829, -0.644518 -0.673413)

-------------
DIPOLE MOMENT
-------------
                                X             Y             Z
Electronic contribution:      0.31183       0.24773       0.07483
Nuclear contribution   :      0.87642      -0.37074       1.46039
                        -----------------------------------------
Total Dipole Moment    :      1.18824      -0.12301       1.53522
                        -----------------------------------------
Magnitude (a.u.)       :      1.94524
Magnitude (Debye)      :      4.94440



--------------------
Rotational spectrum 
--------------------
 
Rotational constants in cm-1:     0.037543     0.018035     0.015226 
Rotational constants in MHz :  1125.521129   540.662622   456.475724 

 Dipole components along the rotational axes: 
x,y,z [a.u.] :     1.002516    -1.112065     1.241861 
x,y,z [Debye]:     2.548194    -2.826646     3.156560 

 

Timings for individual modules:

Sum of individual times         ...      189.086 sec (=   3.151 min)
GTO integral calculation        ...        1.008 sec (=   0.017 min)   0.5 %
SCF iterations                  ...       27.682 sec (=   0.461 min)  14.6 %
MP2 module                      ...      160.396 sec (=   2.673 min)  84.8 %
                             ****ORCA TERMINATED NORMALLY****
TOTAL RUN TIME: 0 days 0 hours 3 minutes 10 seconds 135 msec
