46
Energy:   -673.60001831
O    2.63159920   0.50359626   1.28943756
H    3.33455077   0.84828863   1.84014447
H    2.81121622  -0.43474176   1.23035011
O    0.09393121  -1.42367707   1.12299734
H   -0.32513962  -2.02649682   0.50881509
H    0.94791064  -1.81769186   1.30105163
O    1.93554189  -2.28076112  -1.60542654
H    1.62247720  -1.37641803  -1.62507139
H    2.44999481  -2.37409920  -2.40721083
O   -0.63746430  -3.11488125  -0.97703986
H   -0.76542189  -4.06266005  -0.93736563
H    0.26274341  -3.00689110  -1.28395361
O    2.75764630  -2.23166595   1.01852572
H    2.61911186  -2.36376956   0.08066182
H    3.31041267  -2.96619126   1.28527234
O    0.95400166   3.19440330   0.40872665
H    1.78724207   3.68816227   0.39040247
C   -0.10373987   4.12985844   0.27219718
H   -1.03471201   3.55691594   0.29484618
H   -0.06453577   4.67995003  -0.68102872
H   -0.13311214   4.86157572   1.09469607
O   -1.90363647   1.00845929   0.07070691
H   -2.17067856   0.43191867  -0.66053362
C   -3.05977554   1.28540864   0.84477105
H   -2.74105561   1.93576624   1.66387899
H   -3.50567098   0.37860722   1.28256752
H   -3.83819480   1.81383877   0.27240545
O   -1.94568988  -0.85738108  -2.04473474
H   -1.71745782  -1.76262064  -1.78613322
C   -2.95281797  -0.93524274  -3.04080921
H   -3.19805220   0.09287900  -3.32065036
H   -3.87318599  -1.41908423  -2.67804560
H   -2.61570350  -1.46424880  -3.94595216
O    0.64524569   0.19127694  -1.55794977
H   -0.24857171  -0.01445540  -1.86969955
C    1.14910925   1.24635277  -2.36136143
H    2.15635153   1.46540660  -1.99671967
H    0.54915812   2.16628810  -2.28039870
H    1.22332055   0.97242648  -3.42542646
O   -0.14292261   1.57608960   3.07943349
H    0.12100003   2.29229360   3.67593994
C   -0.82116234   0.59942496   3.85315877
H   -1.11136801  -0.19986452   3.16584356
H   -1.73508884   0.99131337   4.32638088
H   -0.18444048   0.16086196   4.63739413
Na   0.33946241   0.92709303   0.84458179
