46
Energy:   -671.97612396
O    1.89574394  -1.50380814   2.87214496
H    1.88668258  -0.88889785   2.13863622
H    2.74433263  -1.36372372   3.29227048
O   -1.33388820  -0.17688859   2.22527559
H   -1.15514913  -1.06502889   2.53429178
H   -1.29480001   0.36405202   3.01400066
O    1.66163474   0.05021355   0.60696548
H    2.01182107  -0.52025323  -0.07726331
H    2.06444512   0.90205928   0.43863693
O   -0.49785279  -2.74803595   2.73899928
H    0.38878065  -2.42097479   2.89113079
H   -0.62143550  -3.42490433   3.40443775
O    2.00905596  -1.86253331  -1.36643217
H    1.23080233  -2.24393563  -0.96012513
H    2.58084286  -2.61058714  -1.53878949
O    2.60050970   2.65922146   0.16058019
H    3.25840956   3.17686012   0.64806483
C    2.87051019   2.81400560  -1.22349906
H    2.12039779   2.22459864  -1.75774247
H    3.86584888   2.43776789  -1.50726556
H    2.78558487   3.85947166  -1.55900726
O   -2.86348115   0.30408081  -0.97107567
H   -3.17646694   0.49626103  -1.86747398
C   -3.99511191   0.28048337  -0.11586297
H   -3.62459911   0.06276189   0.88952393
H   -4.71902246  -0.50283944  -0.38997284
H   -4.52367618   1.24605693  -0.08323121
O   -0.42326191  -2.27498723  -0.03272726
H   -0.48424796  -2.63103401   0.86612460
C   -1.44594903  -2.88174997  -0.80634461
H   -1.36283197  -2.46952734  -1.81562617
H   -2.45543128  -2.65705565  -0.42788008
H   -1.33570853  -3.97538228  -0.87411433
O    0.20041811   0.12190436  -2.21983932
H    0.90108863  -0.54292177  -2.29393601
C   -0.00840497   0.67282735  -3.51034719
H   -0.80052470   1.41962128  -3.40870876
H   -0.33934435  -0.07805221  -4.24481048
H    0.88671376   1.17652844  -3.90761913
O   -0.27665172   2.49045499   0.17447136
H    0.64211021   2.79708033   0.19122512
C   -1.11286022   3.63643523   0.17018135
H   -2.14387906   3.27294348   0.15123138
H   -0.95864226   4.27206495  -0.71580342
H   -0.98662722   4.25833072   1.07023055
Na  -0.70357492   0.18922948  -0.00575538
