46
Energy:   -673.46771932
O    2.53072570  -1.01160274   2.65856761
H    3.28065897  -1.22146700   3.21515447
H    2.55372709  -1.67184632   1.96590521
O   -0.16208387  -0.47019079   3.08322475
H    0.78429690  -0.61269144   3.10022001
H   -0.45250739  -0.68109939   3.97058240
O    2.22970710  -2.67923799   0.49715336
H    2.20605611  -3.63547133   0.46123304
H    1.31076440  -2.41468999   0.45483893
O    2.17470499   1.02659527   0.84516896
H    2.38956143   0.40088122   1.53694240
H    3.01971651   1.38779361   0.57735722
O   -0.23202096  -1.49989292   0.52529648
H   -1.10774924  -1.73911888   0.22181208
H   -0.36103811  -1.21504456   1.42997754
O    1.92533825  -0.84365156  -1.71097800
H    2.35534402  -1.53549424  -1.18669560
C    1.79150207  -1.32917753  -3.03720807
H    1.30545070  -0.53762011  -3.61398889
H    1.16285827  -2.23131016  -3.09837205
H    2.76174682  -1.54908411  -3.50948293
O    0.94546828   2.53466516  -1.93520152
H    1.25936067   2.75429853  -2.82495206
C    0.94629643   3.73001182  -1.17121234
H    0.59015088   3.46454682  -0.17212582
H    0.27134656   4.49739256  -1.58151320
H    1.95107687   4.16925522  -1.06992637
O   -2.79535944  -2.05480899  -0.48186550
H   -3.23558350  -2.88658177  -0.71160468
C   -3.69656089  -1.29440820   0.30690593
H   -3.18482410  -0.36105291   0.55682303
H   -3.96707254  -1.79803555   1.24816056
H   -4.62374320  -1.04192990  -0.23102064
O   -1.48261959   0.02988202  -1.95547024
H   -2.06902937  -0.67471330  -1.64227339
C   -2.20036036   0.79424748  -2.91104724
H   -1.52526280   1.58325651  -3.25338223
H   -3.09687881   1.27249789  -2.48641969
H   -2.50498587   0.20144716  -3.78772757
O   -0.99278320   1.43748422   1.10507051
H   -0.76711519   1.04894522   1.96328649
C   -1.88846690   2.51197443   1.34119602
H   -2.13230936   2.93817170   0.36427128
H   -1.44438916   3.30770042   1.95957490
H   -2.82746354   2.18641949   1.81561845
Na   0.39400706   0.62027413  -0.66085114
