46
Energy:   -672.75323752
O    0.27928562  -2.80271280   2.06340560
H    0.40760967  -3.63841392   2.51214654
H   -0.52921589  -2.91983967   1.56456850
O    0.17012601  -0.09948171   2.62268861
H    0.19164518  -1.05492345   2.56883834
H    0.41601408   0.09551777   3.52698176
O   -1.10184284  -0.25636523  -3.04849714
H   -0.80125684  -1.14070370  -2.83915205
H   -1.49774720  -0.33659975  -3.91628399
O   -0.27019866  -2.66819014  -1.99578120
H   -0.88088700  -2.84839060  -1.28106489
H   -0.07169189  -3.52889423  -2.36458384
O    1.28944546  -1.35115637  -0.08589994
H    1.14701565  -1.95164640   0.64578122
H    0.91391448  -1.80144109  -0.84250552
O    2.93757504   1.15373121   0.98760038
H    3.59845945   0.45463406   0.87394193
C    3.60787760   2.30425668   1.47700758
H    2.84892890   3.08177006   1.59929829
H    4.37229674   2.68013599   0.77904236
H    4.08395241   2.13499323   2.45551665
O   -1.60996189   0.18149947  -0.30212772
H   -1.60597195   0.18485373  -1.27083619
C   -2.63711385   1.06084099   0.12711710
H   -2.62765609   1.04506312   1.22034480
H   -3.63647228   0.74421225  -0.21023479
H   -2.47250867   2.09919854  -0.20074883
O   -1.86515354  -2.57231360   0.31397689
H   -1.94069256  -1.60834917   0.25490305
C   -3.16430412  -3.09239294   0.54691256
H   -3.06091159  -4.17900146   0.61076481
H   -3.86665423  -2.86371340  -0.26990279
H   -3.60226074  -2.73501942   1.49203451
O    0.80210897   1.41624617  -1.80223064
H    0.25360509   0.95702167  -2.45543782
C    2.03553004   1.73722303  -2.42527164
H    2.64105553   2.25387731  -1.67567679
H    1.91349466   2.41014152  -3.28844335
H    2.58980239   0.84491333  -2.75594200
O   -0.05105016   2.98120377   1.34581387
H   -0.36309286   3.30794408   2.20272309
C    0.05588892   4.09485562   0.47353102
H    0.40846861   3.70898208  -0.48682016
H    0.78124148   4.84411077   0.82744868
H   -0.90933454   4.59781409   0.30574015
Na   0.63793274   0.86297120   0.50414101
