46
Energy:   -673.99749566
O    3.13001093  -0.04719217  -0.25782912
H    4.01953669  -0.20951820   0.05621869
H    2.99437060   0.89034478  -0.12050460
O   -0.88941935  -1.19798911   2.91072226
H   -1.14077065  -1.78431947   3.62435457
H   -0.04556156  -1.53467028   2.60942229
O    1.86374134  -1.06484754  -2.48271417
H    2.41647501  -0.70894030  -1.78697904
H    2.39611849  -0.98910282  -3.27459115
O    0.66636873  -3.20243467  -1.20629038
H    1.07728167  -2.56842718  -1.79401218
H    1.02054878  -4.04839972  -1.48039158
O    1.05221404  -1.47267701   0.92053326
H    1.81224447  -0.97133757   0.62516170
H    0.97842074  -2.18992387   0.29097521
O    2.70612374   2.67417737   0.19488194
H    3.31969969   3.33893924   0.54134908
C    2.09855551   3.21379213  -0.96796394
H    1.41067995   2.45222347  -1.34522458
H    2.82690515   3.43962902  -1.76249640
H    1.51737675   4.12577452  -0.75988539
O   -3.15004417   0.84265652   1.01550200
H   -4.00717571   0.60085158   1.39665705
C   -3.14590073   2.24809685   0.82248885
H   -2.17347763   2.50330753   0.39266794
H   -3.26006922   2.80703201   1.76447312
H   -3.92715418   2.58350815   0.12254624
O   -1.80273176  -2.20839138  -0.20674777
H   -1.12834825  -2.74328730  -0.65117607
C   -3.01390631  -2.94695369  -0.21750397
H   -3.76255450  -2.33001896   0.28687945
H   -2.93498457  -3.90110878   0.32668053
H   -3.37489492  -3.15693025  -1.23651055
O   -0.37301948   0.34811945  -1.47320387
H    0.34265809  -0.08689965  -1.96001727
C   -1.47136483   0.49152654  -2.35954786
H   -2.26840036   0.98313560  -1.79515429
H   -1.85527473  -0.47534457  -2.72086598
H   -1.23406555   1.11935674  -3.23264329
O    0.29178865   1.67308024   1.41664335
H    1.08517816   2.08318879   1.04145361
C    0.19867427   2.07756299   2.77320414
H   -0.70021742   1.60675730   3.18041530
H    0.09366440   3.16803454   2.88555204
H    1.05959690   1.74750543   3.37540973
Na  -1.03886201  -0.17631030   0.76410783
