46
Energy:   -672.71287305
O    2.45075986  -2.46631508  -0.63914479
H    3.21916394  -2.89396658  -1.01716755
H    2.57280599  -1.53723212  -0.83444315
O    1.35326621  -1.64526761   1.75065329
H    1.76820277  -1.86597733   2.58452782
H    1.87048505  -2.11203018   1.09426223
O    0.25351787  -0.01569828  -3.09609075
H   -0.03613100  -0.76908588  -2.58155941
H    0.22390398  -0.31909211  -4.00345344
O   -0.24492833  -1.82746563  -1.05507928
H    0.57227805  -2.31688080  -0.96085419
H   -0.91424576  -2.40505454  -0.68815003
O    2.03568437   0.25137135  -0.96522114
H    2.40239038   1.12080194  -0.80444490
H    1.58555382   0.33250357  -1.80607304
O    2.94273449   2.81926302  -0.27174914
H    3.84847841   3.16244548  -0.25510523
C    2.13273456   3.77439086  -0.93820596
H    1.11612880   3.37202078  -0.94801591
H    2.44367964   3.94185497  -1.98130052
H    2.10999560   4.74690583  -0.42199388
O   -1.90151140  -0.76854208   1.47618243
H   -2.19028624  -1.65499321   1.21305365
C   -2.69453186  -0.36814300   2.58222624
H   -2.35609837   0.63215037   2.86570668
H   -2.57292089  -1.02957721   3.45428868
H   -3.76666600  -0.30922989   2.33761438
O   -2.25405478  -3.32756693   0.21929764
H   -2.24613872  -4.22960448   0.57241075
C   -3.42820056  -3.18205412  -0.56348042
H   -3.42119597  -2.16060654  -0.95345603
H   -4.35010419  -3.31701563   0.02359405
H   -3.45699192  -3.87413901  -1.41961528
O   -0.90730400   1.44316604  -0.96534722
H   -0.77292111   1.23868255  -1.90265774
C   -2.17241041   2.07254842  -0.83918320
H   -2.30765342   2.29598115   0.22254762
H   -3.00336827   1.42513673  -1.16034433
H   -2.23382483   3.01958912  -1.39785978
O    1.08625370   1.82723170   1.69087074
H    1.74962789   2.32668058   1.19196317
C    0.88322308   2.49551092   2.92566433
H    0.13333994   1.91975039   3.47490043
H    0.50007656   3.51990001   2.79681138
H    1.79617030   2.54067853   3.53988301
Na   0.13203453  -0.00564865   0.58740419
