46
Energy:   -674.17430245
O    2.20150725  -2.53348473  -0.10372272
H    3.15117214  -2.64572455  -0.14580201
H    2.05332580  -1.63269228  -0.39155440
O    0.97278041  -1.33989653   2.09912174
H    1.08200345  -1.76781670   2.94834875
H    1.41951343  -1.91742468   1.48015269
O   -0.24132208  -0.84413545  -2.97528145
H   -0.13172212  -1.76201560  -2.72685497
H   -0.19889486  -0.84761386  -3.93153438
O    0.28188518  -3.35649865  -1.90293716
H    1.01729366  -3.23299590  -1.30280944
H    0.36418961  -4.26267750  -2.20008650
O    1.30785744  -0.07280760  -0.82408046
H    1.67380286   0.80953435  -0.88563101
H    0.83554046  -0.19471660  -1.64766210
O    2.30337522   2.56421960  -0.83018648
H    2.38947143   3.24207787  -1.51685880
C    3.54285044   2.48627198  -0.14450499
H    3.42829247   1.71825257   0.62524034
H    3.81365599   3.43062726   0.35312418
H    4.37468164   2.18906856  -0.80215559
O   -2.17955218   0.15555827   2.58130998
H   -2.50825355  -0.32446763   3.35587684
C   -3.05667576   1.24547862   2.34623208
H   -2.67179758   1.77526450   1.47062891
H   -3.08837414   1.95498957   3.18787735
H   -4.08606048   0.92280636   2.12481154
O   -1.35695766  -2.07031073  -0.00860616
H   -0.92975585  -2.69378458  -0.61457831
C   -2.74895088  -2.34370736  -0.02056139
H   -3.21469118  -1.63260758   0.66712188
H   -2.98551292  -3.36106195   0.32844486
H   -3.20134119  -2.20344012  -1.01476733
O   -1.63066645   0.85221544  -1.09498036
H   -1.46054525   0.29131203  -1.86625814
C   -2.03981970   2.12477763  -1.57007286
H   -2.22726426   2.74383840  -0.68853245
H   -2.96891596   2.08001312  -2.15960962
H   -1.26651098   2.62074562  -2.17735098
O    0.38212958   2.11628138   1.25867176
H    1.03320016   2.48491411   0.64333423
C    0.55743849   2.76289770   2.50914683
H   -0.18363636   2.33585277   3.19026788
H    0.38460118   3.84911908   2.45412220
H    1.55618748   2.59136304   2.94025430
Na  -0.55653280  -0.01221861   0.86768161
