46
Energy:   -671.56170936
O    3.07087018  -0.25034376   1.77696302
H    3.85950640  -0.78324762   1.67548278
H    2.47895370  -0.56514620   1.09376015
O   -0.82438945  -0.32766602   2.47366937
H   -0.09082399   0.09736038   2.91804097
H   -1.59828879  -0.03680005   2.95606821
O    1.13397055  -1.08994766   0.01242776
H    0.75893252  -1.87593079   0.40967936
H    1.26299996  -1.32382015  -0.90674954
O    1.37051383   0.97799967   3.48502576
H    1.77506004   1.21804941   4.31866257
H    2.06939294   0.54468114   2.99509220
O   -0.31739228  -2.89401216   1.52358610
H   -0.20988048  -3.61204461   2.14736689
H   -0.50717693  -2.12975807   2.06776375
O    1.43012439  -1.50003854  -2.76160782
H    1.37229793  -2.28249500  -3.32979905
C    2.64278289  -0.83204205  -3.07108125
H    2.69188101   0.04661828  -2.42221255
H    2.68365086  -0.48733232  -4.11620438
H    3.53172850  -1.45165886  -2.87454107
O    0.63064864   2.12618841   0.99650277
H    0.98622533   2.04850240   1.89425183
C    1.60365134   2.78769992   0.20391079
H    1.18697573   2.86683402  -0.80386123
H    2.55050049   2.22910084   0.13894094
H    1.82437756   3.80513234   0.56292130
O   -2.00302965  -1.53510262  -0.31660825
H   -1.72176269  -2.30646693   0.19750192
C   -2.71595112  -2.00858704  -1.44801855
H   -3.02536302  -1.12697035  -2.01591069
H   -3.62091079  -2.57344500  -1.17459432
H   -2.09833513  -2.63932127  -2.10642735
O   -0.32541093   0.69745553  -2.14934939
H    0.22754793   0.03823832  -2.59442517
C   -0.88733623   1.53320147  -3.14850025
H   -1.50705861   2.26975380  -2.62992524
H   -1.52984761   0.98145210  -3.85243851
H   -0.12393898   2.07628615  -3.72734479
O   -2.56675730   1.90607287   0.55415546
H   -2.55680078   2.84760110   0.78185863
C   -3.90502586   1.55252523   0.24339015
H   -3.89810178   0.48910491  -0.01072498
H   -4.30166876   2.10753014  -0.62114515
H   -4.59098731   1.69606282   1.09287892
Na  -0.76917410   0.43894717   0.14500891
