
                                 *****************
                                 * O   R   C   A *
                                 *****************

           --- An Ab Initio, DFT and Semiempirical electronic structure package ---

                  #######################################################
                  #                        -***-                        #
                  #          Department of theory and spectroscopy      #
                  #               Directorship: Frank Neese             #
                  #        Max Planck Institute fuer Kohlenforschung    #
                  #                Kaiser Wilhelm Platz 1               #
                  #                 D-45470 Muelheim/Ruhr               #
                  #                      Germany                        #
                  #                                                     #
                  #                  All rights reserved                #
                  #                        -***-                        #
                  #######################################################


                         Program Version 4.2.0 -  RELEASE  -


 With contributions from (in alphabetic order):
   Daniel Aravena         : Magnetic Suceptibility
   Michael Atanasov       : Ab Initio Ligand Field Theory (pilot matlab implementation)
   Alexander A. Auer      : GIAO ZORA, VPT2
   Ute Becker             : Parallelization
   Giovanni Bistoni       : ED, misc. LED, open-shell LED, HFLED
   Martin Brehm           : Molecular dynamics
   Dmytro Bykov           : SCF Hessian
   Vijay G. Chilkuri      : MRCI spin determinant printing, contributions to CSF-ICE
   Dipayan Datta          : RHF DLPNO-CCSD density
   Achintya Kumar Dutta   : EOM-CC, STEOM-CC
   Dmitry Ganyushin       : Spin-Orbit,Spin-Spin,Magnetic field MRCI
   Miquel Garcia          : C-PCM Hessian, Gaussian charge scheme
   Yang Guo               : DLPNO-NEVPT2, CIM, IAO-localization
   Andreas Hansen         : Spin unrestricted coupled pair/coupled cluster methods
   Benjamin Helmich-Paris : CASSCF linear response (MC-RPA)
   Lee Huntington         : MR-EOM, pCC
   Robert Izsak           : Overlap fitted RIJCOSX, COSX-SCS-MP3, EOM
   Christian Kollmar      : KDIIS, OOCD, Brueckner-CCSD(T), CCSD density
   Simone Kossmann        : Meta GGA functionals, TD-DFT gradient, OOMP2, MP2 Hessian
   Martin Krupicka        : AUTO-CI
   Lucas Lang             : DCDCAS
   Dagmar Lenk            : GEPOL surface, SMD
   Dimitrios Liakos       : Extrapolation schemes; Compound Job, initial MDCI parallelization
   Dimitrios Manganas     : Further ROCIS development; embedding schemes
   Dimitrios Pantazis     : SARC Basis sets
   Taras Petrenko         : DFT Hessian,TD-DFT gradient, ASA, ECA, R-Raman, ABS, FL, XAS/XES, NRVS
   Peter Pinski           : DLPNO-MP2, DLPNO-MP2 Gradient
   Christoph Reimann      : Effective Core Potentials
   Marius Retegan         : Local ZFS, SOC
   Christoph Riplinger    : Optimizer, TS searches, QM/MM, DLPNO-CCSD(T), (RO)-DLPNO pert. Triples
   Tobias Risthaus        : Range-separated hybrids, TD-DFT gradient, RPA, STAB
   Michael Roemelt        : Original ROCIS implementation
   Masaaki Saitow         : Open-shell DLPNO-CCSD energy and density
   Barbara Sandhoefer     : DKH picture change effects
   Avijit Sen             : IP-ROCIS
   Kantharuban Sivalingam : CASSCF convergence, NEVPT2, FIC-MRCI
   Bernardo de Souza      : ESD, SOC TD-DFT
   Georgi Stoychev        : AutoAux, RI-MP2 NMR
   Willem Van den Heuvel  : Paramagnetic NMR
   Boris Wezisla          : Elementary symmetry handling
   Frank Wennmohs         : Technical directorship


 We gratefully acknowledge several colleagues who have allowed us to
 interface, adapt or use parts of their codes:
   Stefan Grimme, W. Hujo, H. Kruse,             : VdW corrections, initial TS optimization,
                  C. Bannwarth                     DFT functionals, gCP, sTDA/sTD-DF
   Ed Valeev, F. Pavosevic, A. Kumar             : LibInt (2-el integral package), F12 methods
   Garnet Chan, S. Sharma, J. Yang, R. Olivares  : DMRG
   Ulf Ekstrom                                   : XCFun DFT Library
   Mihaly Kallay                                 : mrcc  (arbitrary order and MRCC methods)
   Andreas Klamt, Michael Diedenhofen            : otool_cosmo (COSMO solvation model)
   Jiri Pittner, Ondrej Demel                    : Mk-CCSD
   Frank Weinhold                                : gennbo (NPA and NBO analysis)
   Christopher J. Cramer and Donald G. Truhlar   : smd solvation model
   Lars Goerigk                                  : TD-DFT with DH, B97 family of functionals
   V. Asgeirsson, H. Jonsson                     : NEB implementation
   FAccTs GmbH                                   : IRC, NEB, NEB-TS, Multilevel, MM, QM/MM, CI optimization
   S Lehtola, MJT Oliveira, MAL Marques          : LibXC Library


 Your calculation uses the libint2 library for the computation of 2-el integrals
 For citations please refer to: http://libint.valeyev.net

 Your ORCA version has been built with support for libXC version: 4.2.3
 For citations please refer to: https://tddft.org/programs/libxc/

 This ORCA versions uses:
   CBLAS   interface :  Fast vector & matrix operations
   LAPACKE interface :  Fast linear algebra routines
   SCALAPACK package :  Parallel linear algebra routines


----- Orbital basis set information -----
Your calculation utilizes the basis: def2-TZVP
   F. Weigend and R. Ahlrichs, Phys. Chem. Chem. Phys. 7, 3297 (2005).

================================================================================
                                        WARNINGS
                       Please study these warnings very carefully!
================================================================================


WARNING: The frozen-core approximation for MP2-gradient calculations is turned on by default.

INFO   : the flag for use of LIBINT has been found!

================================================================================
                                       INPUT FILE
================================================================================
NAME = 12h2o.su.etal.mol4,5,6,7,9,11-orca.engrad-mp2.def2tzvp.frozencore.inp
|  1> # 12h2o.su.etal.mol4,5,6,7,9,11
|  2> ! MP2 def2-TZVP EnGrad TightSCF
|  3> 
|  4> %pal
|  5>     nprocs 6
|  6> end
|  7> 
|  8> %maxcore 8000
|  9> 
| 10> %scf
| 11>     ConvForced true
| 12> end
| 13> 
| 14> *xyz 0 1
| 15> O  -0.885520000   1.737840000   0.052730000
| 16> H  -1.032320000   2.090180000  -0.841890000
| 17> H  -1.284090000   0.839590000   0.017130000
| 18> O   0.885520000  -1.737840000   0.052730000
| 19> H   1.284090000  -0.839590000   0.017130000
| 20> H   1.032320000  -2.090180000  -0.841890000
| 21> O   1.737840000   0.885520000  -0.052730000
| 22> H   2.090180000   1.032320000   0.841890000
| 23> H   0.839590000   1.284090000  -0.017130000
| 24> O  -1.737840000  -0.885520000  -0.052730000
| 25> H  -2.090180000  -1.032320000   0.841890000
| 26> H  -0.839590000  -1.284090000  -0.017130000
| 27> O   0.741530000  -1.752130000   2.896280000
| 28> H   0.920500000  -2.036450000   1.984040000
| 29> H   1.242140000  -0.921210000   2.984230000
| 30> O  -0.741530000   1.752130000   2.896280000
| 31> H  -0.920500000   2.036450000   1.984040000
| 32> H  -1.242140000   0.921210000   2.984230000
| 33> *
| 34> 
| 35>                          ****END OF INPUT****
================================================================================

                     *******************************
                     * Energy+Gradient Calculation *
                     *******************************

---------------------------------
CARTESIAN COORDINATES (ANGSTROEM)
---------------------------------
  O     -0.885520    1.737840    0.052730
  H     -1.032320    2.090180   -0.841890
  H     -1.284090    0.839590    0.017130
  O      0.885520   -1.737840    0.052730
  H      1.284090   -0.839590    0.017130
  H      1.032320   -2.090180   -0.841890
  O      1.737840    0.885520   -0.052730
  H      2.090180    1.032320    0.841890
  H      0.839590    1.284090   -0.017130
  O     -1.737840   -0.885520   -0.052730
  H     -2.090180   -1.032320    0.841890
  H     -0.839590   -1.284090   -0.017130
  O      0.741530   -1.752130    2.896280
  H      0.920500   -2.036450    1.984040
  H      1.242140   -0.921210    2.984230
  O     -0.741530    1.752130    2.896280
  H     -0.920500    2.036450    1.984040
  H     -1.242140    0.921210    2.984230

----------------------------
CARTESIAN COORDINATES (A.U.)
----------------------------
  NO LB      ZA    FRAG     MASS         X           Y           Z
   0 O     8.0000    0    15.999   -1.673390    3.284042    0.099645
   1 H     1.0000    0     1.008   -1.950802    3.949868   -1.590942
   2 H     1.0000    0     1.008   -2.426578    1.586595    0.032371
   3 O     8.0000    0    15.999    1.673390   -3.284042    0.099645
   4 H     1.0000    0     1.008    2.426578   -1.586595    0.032371
   5 H     1.0000    0     1.008    1.950802   -3.949868   -1.590942
   6 O     8.0000    0    15.999    3.284042    1.673390   -0.099645
   7 H     1.0000    0     1.008    3.949868    1.950802    1.590942
   8 H     1.0000    0     1.008    1.586595    2.426578   -0.032371
   9 O     8.0000    0    15.999   -3.284042   -1.673390   -0.099645
  10 H     1.0000    0     1.008   -3.949868   -1.950802    1.590942
  11 H     1.0000    0     1.008   -1.586595   -2.426578   -0.032371
  12 O     8.0000    0    15.999    1.401289   -3.311046    5.473176
  13 H     1.0000    0     1.008    1.739493   -3.848333    3.749292
  14 H     1.0000    0     1.008    2.347304   -1.740835    5.639377
  15 O     8.0000    0    15.999   -1.401289    3.311046    5.473176
  16 H     1.0000    0     1.008   -1.739493    3.848333    3.749292
  17 H     1.0000    0     1.008   -2.347304    1.740835    5.639377

--------------------------------
INTERNAL COORDINATES (ANGSTROEM)
--------------------------------
 O      0   0   0     0.000000000000     0.00000000     0.00000000
 H      1   0   0     0.972645187106     0.00000000     0.00000000
 H      1   2   0     0.983350632989   103.67575169     0.00000000
 O      3   1   2     3.369216573181   115.93827062   108.73265366
 H      4   3   1     0.983350632989    64.01297461   355.38487433
 H      4   3   1     0.972645187106   111.38238039   260.12892927
 O      5   4   3     1.785153773264   170.81379649   358.44265882
 H      7   5   4     0.972645187106   101.65007623   109.44492584
 H      7   5   4     0.983350632989    99.09581498     3.33484705
 O      3   1   2     1.785153773264   170.81379649   105.82965911
 H     10   3   1     0.972645187106   101.65007623   109.44492584
 H     10   3   1     0.983350632989    99.09581498     3.33484705
 O      4   3   1     2.847229166523    88.95865904    89.80090032
 H     13   4   3     0.972136791249    19.08819947   164.57944949
 H     13   4   3     0.974050112161    93.43428486   288.67572938
 O      1   2   3     2.847229166523   157.57903710   220.97619018
 H     16   1   2     0.972136791249    19.08819947     8.79504813
 H     16   1   2     0.974050112161    93.43428486   132.89132802

---------------------------
INTERNAL COORDINATES (A.U.)
---------------------------
 O      0   0   0     0.000000000000     0.00000000     0.00000000
 H      1   0   0     1.838033029106     0.00000000     0.00000000
 H      1   2   0     1.858263389967   103.67575169     0.00000000
 O      3   1   2     6.366896609181   115.93827062   108.73265366
 H      4   3   1     1.858263389967    64.01297461   355.38487433
 H      4   3   1     1.838033029106   111.38238039   260.12892927
 O      5   4   3     3.373451738406   170.81379649   358.44265882
 H      7   5   4     1.838033029106   101.65007623   109.44492584
 H      7   5   4     1.858263389967    99.09581498     3.33484705
 O      3   1   2     3.373451738406   170.81379649   105.82965911
 H     10   3   1     1.838033029106   101.65007623   109.44492584
 H     10   3   1     1.858263389967    99.09581498     3.33484705
 O      4   3   1     5.380483365242    88.95865904    89.80090032
 H     13   4   3     1.837072300170    19.08819947   164.57944949
 H     13   4   3     1.840687952699    93.43428486   288.67572938
 O      1   2   3     5.380483365242   157.57903710   220.97619018
 H     16   1   2     1.837072300170    19.08819947     8.79504813
 H     16   1   2     1.840687952699    93.43428486   132.89132802

---------------------
BASIS SET INFORMATION
---------------------
There are 2 groups of distinct atoms

 Group   1 Type O   : 11s6p2d1f contracted to 5s3p2d1f pattern {62111/411/11/1}
 Group   2 Type H   : 5s1p contracted to 3s1p pattern {311/1}

Atom   0O    basis set group =>   1
Atom   1H    basis set group =>   2
Atom   2H    basis set group =>   2
Atom   3O    basis set group =>   1
Atom   4H    basis set group =>   2
Atom   5H    basis set group =>   2
Atom   6O    basis set group =>   1
Atom   7H    basis set group =>   2
Atom   8H    basis set group =>   2
Atom   9O    basis set group =>   1
Atom  10H    basis set group =>   2
Atom  11H    basis set group =>   2
Atom  12O    basis set group =>   1
Atom  13H    basis set group =>   2
Atom  14H    basis set group =>   2
Atom  15O    basis set group =>   1
Atom  16H    basis set group =>   2
Atom  17H    basis set group =>   2


           ************************************************************
           *        Program running with 6 parallel MPI-processes     *
           *              working on a common directory               *
           ************************************************************
------------------------------------------------------------------------------
                           ORCA GTO INTEGRAL CALCULATION
------------------------------------------------------------------------------

                         BASIS SET STATISTICS AND STARTUP INFO

 # of primitive gaussian shells          ...  192
 # of primitive gaussian functions       ...  372
 # of contracted shells                  ...  114
 # of contracted basis functions         ...  258
 Highest angular momentum                ...    3
 Maximum contraction depth               ...    6
 Integral package used                   ... LIBINT
 Integral threshhold            Thresh   ...  2.500e-11
 Primitive cut-off              TCut     ...  2.500e-12


------------------------------ INTEGRAL EVALUATION ----------------------------


 * One electron integrals 
 Pre-screening matrix                    ... done
 Shell pair data                         ... done (   0.002 sec)



           ************************************************************
           *        Program running with 6 parallel MPI-processes     *
           *              working on a common directory               *
           ************************************************************
-------------------------------------------------------------------------------
                                 ORCA SCF
-------------------------------------------------------------------------------

------------
SCF SETTINGS
------------
Hamiltonian:
 Ab initio Hamiltonian  Method          .... Hartree-Fock(GTOs)


General Settings:
 Integral files         IntName         .... 12h2o.su.etal.mol4,5,6,7,9,11-orca.engrad-mp2.def2tzvp.frozencore
 Hartree-Fock type      HFTyp           .... RHF
 Total Charge           Charge          ....    0
 Multiplicity           Mult            ....    1
 Number of Electrons    NEL             ....   60
 Basis Dimension        Dim             ....  258
 Nuclear Repulsion      ENuc            ....    287.5874004819 Eh

Convergence Acceleration:
 DIIS                   CNVDIIS         .... on
   Start iteration      DIISMaxIt       ....    12
   Startup error        DIISStart       ....  0.200000
   # of expansion vecs  DIISMaxEq       ....     5
   Bias factor          DIISBfac        ....   1.050
   Max. coefficient     DIISMaxC        ....  10.000
 Newton-Raphson         CNVNR           .... off
 SOSCF                  CNVSOSCF        .... on
   Start iteration      SOSCFMaxIt      ....   150
   Startup grad/error   SOSCFStart      ....  0.003300
 Level Shifting         CNVShift        .... on
   Level shift para.    LevelShift      ....    0.2500
   Turn off err/grad.   ShiftErr        ....    0.0010
 Zerner damping         CNVZerner       .... off
 Static damping         CNVDamp         .... on
   Fraction old density DampFac         ....    0.7000
   Max. Damping (<1)    DampMax         ....    0.9800
   Min. Damping (>=0)   DampMin         ....    0.0000
   Turn off err/grad.   DampErr         ....    0.1000
 Fernandez-Rico         CNVRico         .... off

SCF Procedure:
 Maximum # iterations   MaxIter         ....   125
 SCF integral mode      SCFMode         .... Direct
   Integral package                     .... LIBINT
 Reset frequency        DirectResetFreq ....    20
 Integral Threshold     Thresh          ....  2.500e-11 Eh
 Primitive CutOff       TCut            ....  2.500e-12 Eh

Convergence Tolerance:
 Convergence Check Mode ConvCheckMode   .... Total+1el-Energy
 Convergence forced     ConvForced      .... 1
 Energy Change          TolE            ....  1.000e-08 Eh
 1-El. energy change                    ....  1.000e-05 Eh
 Orbital Gradient       TolG            ....  1.000e-05
 Orbital Rotation angle TolX            ....  1.000e-05
 DIIS Error             TolErr          ....  5.000e-07


Diagonalization of the overlap matrix:
Smallest eigenvalue                        ... 3.071e-03
Time for diagonalization                   ...    0.011 sec
Threshold for overlap eigenvalues          ... 1.000e-08
Number of eigenvalues below threshold      ... 0
Time for construction of square roots      ...    0.005 sec
Total time needed                          ...    0.017 sec

-------------------
DFT GRID GENERATION
-------------------

General Integration Accuracy     IntAcc      ...  4.340
Radial Grid Type                 RadialGrid  ... Gauss-Chebyshev
Angular Grid (max. acc.)         AngularGrid ... Lebedev-110
Angular grid pruning method      GridPruning ... 3 (G Style)
Weight generation scheme         WeightScheme... Becke
Basis function cutoff            BFCut       ...    1.0000e-11
Integration weight cutoff        WCut        ...    1.0000e-14
Grids for H and He will be reduced by one unit

# of grid points (after initial pruning)     ...  19824 (   0.0 sec)
# of grid points (after weights+screening)   ...  18574 (   0.0 sec)
nearest neighbour list constructed           ...    0.0 sec
Grid point re-assignment to atoms done       ...    0.0 sec
Grid point division into batches done        ...    0.0 sec
Reduced shell lists constructed in    0.0 sec

Total number of grid points                  ...    18574
Total number of batches                      ...      298
Average number of points per batch           ...       62
Average number of grid points per atom       ...     1032
Average number of shells per batch           ...    67.02 (58.79%)
Average number of basis functions per batch  ...   140.16 (54.32%)
Average number of large shells per batch     ...    49.00 (73.11%)
Average number of large basis fcns per batch ...    97.94 (69.88%)
Maximum spatial batch extension              ...  19.01, 12.66, 11.14 au
Average spatial batch extension              ...   0.62,  0.49,  0.46 au

Time for grid setup =    0.056 sec

------------------------------
INITIAL GUESS: MODEL POTENTIAL
------------------------------
Loading Hartree-Fock densities                     ... done
Calculating cut-offs                               ... done
Setting up the integral package                    ... done
Initializing the effective Hamiltonian             ... done
Starting the Coulomb interaction                   ... done (   0.0 sec)
Reading the grid                                   ... done
Mapping shells                                     ... done
Starting the XC term evaluation                    ... done (   0.0 sec)
Transforming the Hamiltonian                       ... done (   0.0 sec)
Diagonalizing the Hamiltonian                      ... done (   0.0 sec)
Back transforming the eigenvectors                 ... done (   0.0 sec)
Now organizing SCF variables                       ... done
                      ------------------
                      INITIAL GUESS DONE (   0.2 sec)
                      ------------------
--------------
SCF ITERATIONS
--------------
ITER       Energy         Delta-E        Max-DP      RMS-DP      [F,P]     Damp
               ***  Starting incremental Fock matrix formation  ***
  0   -455.8664152438   0.000000000000 0.04343877  0.00096148  0.3414181 0.7000
  1   -456.0695580219  -0.203142778141 0.02869674  0.00066606  0.2162095 0.7000
                               ***Turning on DIIS***
  2   -456.1772583808  -0.107700358831 0.01619424  0.00037177  0.1636422 0.7000
  3   -457.1422825796  -0.965024198801 0.00732694  0.00016889  0.1218045 0.7000
  4   -456.9460421597   0.196240419854 0.01606203  0.00038853  0.0861355 0.0000
  5   -456.4224470131   0.523595146571 0.00199806  0.00006358  0.0053177 0.0000
                      *** Initiating the SOSCF procedure ***
                           *** Shutting down DIIS ***
                      *** Re-Reading the Fockian *** 
                      *** Removing any level shift *** 
ITER      Energy       Delta-E        Grad      Rot      Max-DP    RMS-DP
  6   -456.39268731   0.0297597043  0.000974  0.000974  0.001420  0.000040
               *** Restarting incremental Fock matrix formation ***
  7   -456.38522375   0.0074635617  0.000325  0.000478  0.000692  0.000018
  8   -456.38523266  -0.0000089148  0.000207  0.000376  0.000619  0.000016
  9   -456.38523491  -0.0000022458  0.000079  0.000056  0.000104  0.000003
 10   -456.38523510  -0.0000001873  0.000010  0.000007  0.000018  0.000000
 11   -456.38523510  -0.0000000048  0.000003  0.000003  0.000006  0.000000
                  ***Gradient check signals convergence***
              ***Rediagonalizing the Fockian in SOSCF/NRSCF***

               *****************************************************
               *                     SUCCESS                       *
               *           SCF CONVERGED AFTER  12 CYCLES          *
               *****************************************************


----------------
TOTAL SCF ENERGY
----------------

Total Energy       :         -456.38523510 Eh          -12418.87361 eV

Components:
Nuclear Repulsion  :          287.58740048 Eh            7825.65102 eV
Electronic Energy  :         -743.97263558 Eh          -20244.52463 eV
One Electron Energy:        -1202.62923993 Eh          -32725.20534 eV
Two Electron Energy:          458.65660435 Eh           12480.68071 eV

Virial components:
Potential Energy   :         -912.18210464 Eh          -24821.73698 eV
Kinetic Energy     :          455.79686954 Eh           12402.86337 eV
Virial Ratio       :            2.00129085


---------------
SCF CONVERGENCE
---------------

  Last Energy change         ...   -1.1482e-11  Tolerance :   1.0000e-08
  Last MAX-Density change    ...    1.7470e-06  Tolerance :   1.0000e-07
  Last RMS-Density change    ...    4.6583e-08  Tolerance :   5.0000e-09
  Last Orbital Gradient      ...    1.4605e-06  Tolerance :   1.0000e-05
  Last Orbital Rotation      ...    1.1169e-06  Tolerance :   1.0000e-05

             **** THE GBW FILE WAS UPDATED (12h2o.su.etal.mol4,5,6,7,9,11-orca.engrad-mp2.def2tzvp.frozencore.gbw) ****
             **** DENSITY FILE WAS UPDATED (12h2o.su.etal.mol4,5,6,7,9,11-orca.engrad-mp2.def2tzvp.frozencore.scfp) ****
             **** ENERGY FILE WAS UPDATED (12h2o.su.etal.mol4,5,6,7,9,11-orca.engrad-mp2.def2tzvp.frozencore.en.tmp) ****
             **** THE GBW FILE WAS UPDATED (12h2o.su.etal.mol4,5,6,7,9,11-orca.engrad-mp2.def2tzvp.frozencore.gbw) ****
             **** DENSITY FILE WAS UPDATED (12h2o.su.etal.mol4,5,6,7,9,11-orca.engrad-mp2.def2tzvp.frozencore.scfp) ****
----------------
ORBITAL ENERGIES
----------------

  NO   OCC          E(Eh)            E(eV) 
   0   2.0000     -20.592486      -560.3500 
   1   2.0000     -20.592486      -560.3500 
   2   2.0000     -20.579982      -560.0098 
   3   2.0000     -20.579982      -560.0098 
   4   2.0000     -20.546635      -559.1024 
   5   2.0000     -20.546634      -559.1023 
   6   2.0000      -1.391014       -37.8514 
   7   2.0000      -1.380654       -37.5695 
   8   2.0000      -1.365071       -37.1455 
   9   2.0000      -1.355033       -36.8723 
  10   2.0000      -1.328598       -36.1530 
  11   2.0000      -1.327870       -36.1332 
  12   2.0000      -0.748583       -20.3700 
  13   2.0000      -0.744867       -20.2689 
  14   2.0000      -0.735045       -20.0016 
  15   2.0000      -0.730670       -19.8825 
  16   2.0000      -0.700716       -19.0674 
  17   2.0000      -0.697055       -18.9678 
  18   2.0000      -0.644933       -17.5495 
  19   2.0000      -0.625623       -17.0241 
  20   2.0000      -0.611952       -16.6521 
  21   2.0000      -0.597195       -16.2505 
  22   2.0000      -0.565679       -15.3929 
  23   2.0000      -0.562476       -15.3058 
  24   2.0000      -0.536237       -14.5917 
  25   2.0000      -0.535834       -14.5808 
  26   2.0000      -0.526019       -14.3137 
  27   2.0000      -0.522807       -14.2263 
  28   2.0000      -0.495991       -13.4966 
  29   2.0000      -0.489844       -13.3293 
  30   0.0000       0.091377         2.4865 
  31   0.0000       0.133015         3.6195 
  32   0.0000       0.139710         3.8017 
  33   0.0000       0.142446         3.8762 
  34   0.0000       0.205556         5.5935 
  35   0.0000       0.207901         5.6573 
  36   0.0000       0.264177         7.1886 
  37   0.0000       0.265527         7.2254 
  38   0.0000       0.296360         8.0644 
  39   0.0000       0.300861         8.1868 
  40   0.0000       0.311278         8.4703 
  41   0.0000       0.340136         9.2556 
  42   0.0000       0.415173        11.2974 
  43   0.0000       0.469058        12.7637 
  44   0.0000       0.475411        12.9366 
  45   0.0000       0.497849        13.5472 
  46   0.0000       0.501138        13.6367 
  47   0.0000       0.523398        14.2424 
  48   0.0000       0.523686        14.2502 
  49   0.0000       0.539321        14.6757 
  50   0.0000       0.559419        15.2226 
  51   0.0000       0.586876        15.9697 
  52   0.0000       0.588733        16.0202 
  53   0.0000       0.591806        16.1039 
  54   0.0000       0.601868        16.3777 
  55   0.0000       0.618196        16.8220 
  56   0.0000       0.626769        17.0553 
  57   0.0000       0.630700        17.1622 
  58   0.0000       0.692330        18.8393 
  59   0.0000       0.694587        18.9007 
  60   0.0000       0.708105        19.2685 
  61   0.0000       0.717485        19.5238 
  62   0.0000       0.724646        19.7186 
  63   0.0000       0.762116        20.7382 
  64   0.0000       0.791792        21.5458 
  65   0.0000       0.799360        21.7517 
  66   0.0000       0.819333        22.2952 
  67   0.0000       0.831223        22.6187 
  68   0.0000       0.831618        22.6295 
  69   0.0000       0.864762        23.5314 
  70   0.0000       0.870857        23.6972 
  71   0.0000       0.892534        24.2871 
  72   0.0000       0.919930        25.0326 
  73   0.0000       0.932653        25.3788 
  74   0.0000       1.009640        27.4737 
  75   0.0000       1.065552        28.9951 
  76   0.0000       1.075339        29.2615 
  77   0.0000       1.126069        30.6419 
  78   0.0000       1.315475        35.7959 
  79   0.0000       1.368140        37.2290 
  80   0.0000       1.386518        37.7291 
  81   0.0000       1.396363        37.9970 
  82   0.0000       1.407697        38.3054 
  83   0.0000       1.421436        38.6792 
  84   0.0000       1.431910        38.9642 
  85   0.0000       1.434085        39.0234 
  86   0.0000       1.459801        39.7232 
  87   0.0000       1.489787        40.5392 
  88   0.0000       1.494343        40.6631 
  89   0.0000       1.535774        41.7905 
  90   0.0000       1.562453        42.5165 
  91   0.0000       1.569236        42.7011 
  92   0.0000       1.575474        42.8708 
  93   0.0000       1.582468        43.0611 
  94   0.0000       1.606304        43.7097 
  95   0.0000       1.611279        43.8451 
  96   0.0000       1.803168        49.0667 
  97   0.0000       1.815572        49.4042 
  98   0.0000       1.841453        50.1085 
  99   0.0000       1.845132        50.2086 
 100   0.0000       1.852529        50.4099 
 101   0.0000       1.862406        50.6786 
 102   0.0000       1.881453        51.1969 
 103   0.0000       1.977601        53.8133 
 104   0.0000       1.978198        53.8295 
 105   0.0000       1.990956        54.1767 
 106   0.0000       2.004798        54.5533 
 107   0.0000       2.025971        55.1295 
 108   0.0000       2.029869        55.2356 
 109   0.0000       2.095383        57.0183 
 110   0.0000       2.095571        57.0234 
 111   0.0000       2.106392        57.3178 
 112   0.0000       2.149441        58.4893 
 113   0.0000       2.219925        60.4072 
 114   0.0000       2.231180        60.7135 
 115   0.0000       2.265327        61.6427 
 116   0.0000       2.290702        62.3332 
 117   0.0000       2.293117        62.3989 
 118   0.0000       2.329728        63.3951 
 119   0.0000       2.338063        63.6219 
 120   0.0000       2.342690        63.7478 
 121   0.0000       2.365473        64.3678 
 122   0.0000       2.377977        64.7080 
 123   0.0000       2.388991        65.0078 
 124   0.0000       2.405851        65.4665 
 125   0.0000       2.423731        65.9531 
 126   0.0000       2.450752        66.6884 
 127   0.0000       2.461743        66.9874 
 128   0.0000       2.483853        67.5891 
 129   0.0000       2.519697        68.5644 
 130   0.0000       2.531453        68.8843 
 131   0.0000       2.592275        70.5394 
 132   0.0000       2.599975        70.7489 
 133   0.0000       2.607751        70.9605 
 134   0.0000       2.621061        71.3227 
 135   0.0000       2.631771        71.6141 
 136   0.0000       2.636173        71.7339 
 137   0.0000       2.647722        72.0482 
 138   0.0000       2.681905        72.9783 
 139   0.0000       2.708256        73.6954 
 140   0.0000       2.708917        73.7134 
 141   0.0000       2.727629        74.2226 
 142   0.0000       2.748202        74.7824 
 143   0.0000       2.768839        75.3439 
 144   0.0000       2.907434        79.1153 
 145   0.0000       2.919457        79.4425 
 146   0.0000       2.935816        79.8876 
 147   0.0000       2.937435        79.9317 
 148   0.0000       2.974841        80.9495 
 149   0.0000       2.976816        81.0033 
 150   0.0000       2.982903        81.1689 
 151   0.0000       3.005971        81.7966 
 152   0.0000       3.010183        81.9112 
 153   0.0000       3.030559        82.4657 
 154   0.0000       3.078630        83.7738 
 155   0.0000       3.088592        84.0449 
 156   0.0000       3.133713        85.2727 
 157   0.0000       3.182431        86.5984 
 158   0.0000       3.208063        87.2958 
 159   0.0000       3.236669        88.0742 
 160   0.0000       3.245959        88.3270 
 161   0.0000       3.259009        88.6822 
 162   0.0000       3.262003        88.7636 
 163   0.0000       3.317680        90.2787 
 164   0.0000       3.368085        91.6502 
 165   0.0000       3.425130        93.2025 
 166   0.0000       3.456654        94.0603 
 167   0.0000       3.470616        94.4403 
 168   0.0000       4.034385       109.7812 
 169   0.0000       4.055801       110.3640 
 170   0.0000       4.064953       110.6130 
 171   0.0000       4.074391       110.8698 
 172   0.0000       4.098825       111.5347 
 173   0.0000       4.117562       112.0446 
 174   0.0000       4.301178       117.0410 
 175   0.0000       4.317618       117.4883 
 176   0.0000       4.321425       117.5920 
 177   0.0000       4.329767       117.8190 
 178   0.0000       4.337454       118.0281 
 179   0.0000       4.340708       118.1167 
 180   0.0000       5.509170       149.9121 
 181   0.0000       5.509813       149.9296 
 182   0.0000       5.521199       150.2395 
 183   0.0000       5.521221       150.2401 
 184   0.0000       5.561170       151.3271 
 185   0.0000       5.561236       151.3289 
 186   0.0000       5.636174       153.3681 
 187   0.0000       5.639626       153.4620 
 188   0.0000       5.649103       153.7199 
 189   0.0000       5.652749       153.8191 
 190   0.0000       5.666442       154.1917 
 191   0.0000       5.667097       154.2096 
 192   0.0000       5.783417       157.3748 
 193   0.0000       5.789864       157.5502 
 194   0.0000       5.798675       157.7900 
 195   0.0000       5.807663       158.0345 
 196   0.0000       5.812967       158.1789 
 197   0.0000       5.819612       158.3597 
 198   0.0000       5.833794       158.7456 
 199   0.0000       5.840399       158.9253 
 200   0.0000       5.841158       158.9460 
 201   0.0000       5.850959       159.2127 
 202   0.0000       5.859084       159.4338 
 203   0.0000       5.859925       159.4567 
 204   0.0000       5.871641       159.7755 
 205   0.0000       5.875684       159.8855 
 206   0.0000       5.886930       160.1915 
 207   0.0000       5.887644       160.2109 
 208   0.0000       5.915979       160.9820 
 209   0.0000       5.916729       161.0024 
 210   0.0000       6.446532       175.4191 
 211   0.0000       6.447850       175.4549 
 212   0.0000       6.455965       175.6757 
 213   0.0000       6.456601       175.6930 
 214   0.0000       6.502784       176.9497 
 215   0.0000       6.508568       177.1071 
 216   0.0000       6.623111       180.2240 
 217   0.0000       6.686816       181.9575 
 218   0.0000       6.697398       182.2455 
 219   0.0000       6.712464       182.6554 
 220   0.0000       6.738433       183.3621 
 221   0.0000       6.750314       183.6854 
 222   0.0000       6.829215       185.8324 
 223   0.0000       6.843086       186.2098 
 224   0.0000       6.843649       186.2252 
 225   0.0000       6.858878       186.6396 
 226   0.0000       6.861202       186.7028 
 227   0.0000       6.863258       186.7587 
 228   0.0000       6.880718       187.2339 
 229   0.0000       6.880960       187.2404 
 230   0.0000       6.886701       187.3967 
 231   0.0000       6.904518       187.8815 
 232   0.0000       6.908043       187.9774 
 233   0.0000       6.949771       189.1129 
 234   0.0000       6.968053       189.6104 
 235   0.0000       6.970076       189.6654 
 236   0.0000       6.992521       190.2762 
 237   0.0000       7.003832       190.5839 
 238   0.0000       7.036603       191.4757 
 239   0.0000       7.084173       192.7702 
 240   0.0000       7.328524       199.4193 
 241   0.0000       7.379160       200.7971 
 242   0.0000       7.390229       201.0984 
 243   0.0000       7.430069       202.1825 
 244   0.0000       7.440302       202.4609 
 245   0.0000       7.495782       203.9706 
 246   0.0000       7.532161       204.9605 
 247   0.0000       7.547143       205.3682 
 248   0.0000       7.565797       205.8758 
 249   0.0000       7.566579       205.8971 
 250   0.0000       7.572499       206.0582 
 251   0.0000       7.581830       206.3121 
 252   0.0000      44.913352      1222.1544 
 253   0.0000      44.945736      1223.0357 
 254   0.0000      44.999344      1224.4944 
 255   0.0000      45.006677      1224.6939 
 256   0.0000      45.038497      1225.5598 
 257   0.0000      45.071147      1226.4483 

                    ********************************
                    * MULLIKEN POPULATION ANALYSIS *
                    ********************************

-----------------------
MULLIKEN ATOMIC CHARGES
-----------------------
   0 O :   -0.779509
   1 H :    0.372123
   2 H :    0.397959
   3 O :   -0.779509
   4 H :    0.397959
   5 H :    0.372123
   6 O :   -0.753198
   7 H :    0.361958
   8 H :    0.401004
   9 O :   -0.753198
  10 H :    0.361958
  11 H :    0.401004
  12 O :   -0.722888
  13 H :    0.386419
  14 H :    0.336133
  15 O :   -0.722888
  16 H :    0.386419
  17 H :    0.336133
Sum of atomic charges:   -0.0000000

--------------------------------
MULLIKEN REDUCED ORBITAL CHARGES
--------------------------------
  0 O s       :     3.803022  s :     3.803022
      pz      :     1.566090  p :     4.952065
      px      :     1.850385
      py      :     1.535590
      dz2     :     0.010798  d :     0.023069
      dxz     :     0.001978
      dyz     :     0.002608
      dx2y2   :     0.003155
      dxy     :     0.004530
      f0      :     0.000188  f :     0.001353
      f+1     :     0.000110
      f-1     :     0.000447
      f+2     :     0.000068
      f-2     :     0.000037
      f+3     :     0.000409
      f-3     :     0.000094
  1 H s       :     0.584085  s :     0.584085
      pz      :     0.018943  p :     0.043793
      px      :     0.013171
      py      :     0.011678
  2 H s       :     0.549360  s :     0.549360
      pz      :     0.008537  p :     0.052681
      px      :     0.014304
      py      :     0.029839
  3 O s       :     3.803022  s :     3.803022
      pz      :     1.566090  p :     4.952065
      px      :     1.850385
      py      :     1.535590
      dz2     :     0.010798  d :     0.023069
      dxz     :     0.001978
      dyz     :     0.002608
      dx2y2   :     0.003155
      dxy     :     0.004530
      f0      :     0.000188  f :     0.001353
      f+1     :     0.000110
      f-1     :     0.000447
      f+2     :     0.000068
      f-2     :     0.000037
      f+3     :     0.000409
      f-3     :     0.000094
  4 H s       :     0.549360  s :     0.549360
      pz      :     0.008537  p :     0.052681
      px      :     0.014304
      py      :     0.029839
  5 H s       :     0.584085  s :     0.584085
      pz      :     0.018943  p :     0.043793
      px      :     0.013171
      py      :     0.011678
  6 O s       :     3.802620  s :     3.802620
      pz      :     1.554178  p :     4.924477
      px      :     1.532020
      py      :     1.838279
      dz2     :     0.011889  d :     0.024751
      dxz     :     0.002944
      dyz     :     0.002149
      dx2y2   :     0.003323
      dxy     :     0.004446
      f0      :     0.000168  f :     0.001350
      f+1     :     0.000465
      f-1     :     0.000110
      f+2     :     0.000067
      f-2     :     0.000041
      f+3     :     0.000093
      f-3     :     0.000407
  7 H s       :     0.594175  s :     0.594175
      pz      :     0.018884  p :     0.043867
      px      :     0.011595
      py      :     0.013389
  8 H s       :     0.545833  s :     0.545833
      pz      :     0.009147  p :     0.053163
      px      :     0.029521
      py      :     0.014495
  9 O s       :     3.802620  s :     3.802620
      pz      :     1.554178  p :     4.924477
      px      :     1.532020
      py      :     1.838279
      dz2     :     0.011889  d :     0.024751
      dxz     :     0.002944
      dyz     :     0.002149
      dx2y2   :     0.003323
      dxy     :     0.004446
      f0      :     0.000168  f :     0.001350
      f+1     :     0.000465
      f-1     :     0.000110
      f+2     :     0.000067
      f-2     :     0.000041
      f+3     :     0.000093
      f-3     :     0.000407
 10 H s       :     0.594175  s :     0.594175
      pz      :     0.018884  p :     0.043867
      px      :     0.011595
      py      :     0.013389
 11 H s       :     0.545833  s :     0.545833
      pz      :     0.009147  p :     0.053163
      px      :     0.029521
      py      :     0.014495
 12 O s       :     3.812396  s :     3.812396
      pz      :     1.551330  p :     4.883347
      px      :     1.812127
      py      :     1.519890
      dz2     :     0.011784  d :     0.025659
      dxz     :     0.002982
      dyz     :     0.001246
      dx2y2   :     0.002128
      dxy     :     0.007518
      f0      :     0.000249  f :     0.001486
      f+1     :     0.000165
      f-1     :     0.000374
      f+2     :     0.000055
      f-2     :     0.000055
      f+3     :     0.000519
      f-3     :     0.000069
 13 H s       :     0.564828  s :     0.564828
      pz      :     0.024169  p :     0.048753
      px      :     0.012988
      py      :     0.011595
 14 H s       :     0.618993  s :     0.618993
      pz      :     0.010981  p :     0.044874
      px      :     0.015843
      py      :     0.018050
 15 O s       :     3.812396  s :     3.812396
      pz      :     1.551330  p :     4.883347
      px      :     1.812127
      py      :     1.519890
      dz2     :     0.011784  d :     0.025659
      dxz     :     0.002982
      dyz     :     0.001246
      dx2y2   :     0.002128
      dxy     :     0.007518
      f0      :     0.000249  f :     0.001486
      f+1     :     0.000165
      f-1     :     0.000374
      f+2     :     0.000055
      f-2     :     0.000055
      f+3     :     0.000519
      f-3     :     0.000069
 16 H s       :     0.564828  s :     0.564828
      pz      :     0.024169  p :     0.048753
      px      :     0.012988
      py      :     0.011595
 17 H s       :     0.618993  s :     0.618993
      pz      :     0.010981  p :     0.044874
      px      :     0.015843
      py      :     0.018050


                     *******************************
                     * LOEWDIN POPULATION ANALYSIS *
                     *******************************

----------------------
LOEWDIN ATOMIC CHARGES
----------------------
   0 O :   -0.308691
   1 H :    0.172738
   2 H :    0.156037
   3 O :   -0.308691
   4 H :    0.156037
   5 H :    0.172738
   6 O :   -0.317401
   7 H :    0.167735
   8 H :    0.155374
   9 O :   -0.317401
  10 H :    0.167735
  11 H :    0.155374
  12 O :   -0.340431
  13 H :    0.155758
  14 H :    0.158880
  15 O :   -0.340431
  16 H :    0.155758
  17 H :    0.158880

-------------------------------
LOEWDIN REDUCED ORBITAL CHARGES
-------------------------------
  0 O s       :     3.456085  s :     3.456085
      pz      :     1.535468  p :     4.820751
      px      :     1.789728
      py      :     1.495554
      dz2     :     0.014731  d :     0.029889
      dxz     :     0.001265
      dyz     :     0.003965
      dx2y2   :     0.004528
      dxy     :     0.005401
      f0      :     0.000378  f :     0.001965
      f+1     :     0.000193
      f-1     :     0.000728
      f+2     :     0.000038
      f-2     :     0.000047
      f+3     :     0.000517
      f-3     :     0.000064
  1 H s       :     0.667325  s :     0.667325
      pz      :     0.079858  p :     0.159937
      px      :     0.042891
      py      :     0.037188
  2 H s       :     0.654591  s :     0.654591
      pz      :     0.028997  p :     0.189372
      px      :     0.052730
      py      :     0.107645
  3 O s       :     3.456085  s :     3.456085
      pz      :     1.535468  p :     4.820751
      px      :     1.789728
      py      :     1.495554
      dz2     :     0.014731  d :     0.029889
      dxz     :     0.001265
      dyz     :     0.003965
      dx2y2   :     0.004528
      dxy     :     0.005401
      f0      :     0.000378  f :     0.001965
      f+1     :     0.000193
      f-1     :     0.000728
      f+2     :     0.000038
      f-2     :     0.000047
      f+3     :     0.000517
      f-3     :     0.000064
  4 H s       :     0.654591  s :     0.654591
      pz      :     0.028997  p :     0.189372
      px      :     0.052730
      py      :     0.107645
  5 H s       :     0.667325  s :     0.667325
      pz      :     0.079858  p :     0.159937
      px      :     0.042891
      py      :     0.037188
  6 O s       :     3.461244  s :     3.461244
      pz      :     1.547522  p :     4.823781
      px      :     1.493124
      py      :     1.783136
      dz2     :     0.014817  d :     0.030400
      dxz     :     0.004127
      dyz     :     0.001321
      dx2y2   :     0.004731
      dxy     :     0.005404
      f0      :     0.000368  f :     0.001976
      f+1     :     0.000740
      f-1     :     0.000196
      f+2     :     0.000040
      f-2     :     0.000046
      f+3     :     0.000064
      f-3     :     0.000521
  7 H s       :     0.672439  s :     0.672439
      pz      :     0.079623  p :     0.159825
      px      :     0.037168
      py      :     0.043035
  8 H s       :     0.657501  s :     0.657501
      pz      :     0.029060  p :     0.187125
      px      :     0.105488
      py      :     0.052577
  9 O s       :     3.461244  s :     3.461244
      pz      :     1.547522  p :     4.823781
      px      :     1.493124
      py      :     1.783136
      dz2     :     0.014817  d :     0.030400
      dxz     :     0.004127
      dyz     :     0.001321
      dx2y2   :     0.004731
      dxy     :     0.005404
      f0      :     0.000368  f :     0.001976
      f+1     :     0.000740
      f-1     :     0.000196
      f+2     :     0.000040
      f-2     :     0.000046
      f+3     :     0.000064
      f-3     :     0.000521
 10 H s       :     0.672439  s :     0.672439
      pz      :     0.079623  p :     0.159825
      px      :     0.037168
      py      :     0.043035
 11 H s       :     0.657501  s :     0.657501
      pz      :     0.029060  p :     0.187125
      px      :     0.105488
      py      :     0.052577
 12 O s       :     3.467167  s :     3.467167
      pz      :     1.533954  p :     4.838939
      px      :     1.784637
      py      :     1.520348
      dz2     :     0.015536  d :     0.032194
      dxz     :     0.002315
      dyz     :     0.001880
      dx2y2   :     0.002404
      dxy     :     0.010059
      f0      :     0.000442  f :     0.002132
      f+1     :     0.000317
      f-1     :     0.000563
      f+2     :     0.000024
      f-2     :     0.000045
      f+3     :     0.000738
      f-3     :     0.000003
 13 H s       :     0.674019  s :     0.674019
      pz      :     0.092367  p :     0.170223
      px      :     0.041952
      py      :     0.035904
 14 H s       :     0.683693  s :     0.683693
      pz      :     0.031317  p :     0.157427
      px      :     0.054792
      py      :     0.071318
 15 O s       :     3.467167  s :     3.467167
      pz      :     1.533954  p :     4.838939
      px      :     1.784637
      py      :     1.520348
      dz2     :     0.015536  d :     0.032194
      dxz     :     0.002315
      dyz     :     0.001880
      dx2y2   :     0.002404
      dxy     :     0.010059
      f0      :     0.000442  f :     0.002132
      f+1     :     0.000317
      f-1     :     0.000563
      f+2     :     0.000024
      f-2     :     0.000045
      f+3     :     0.000738
      f-3     :     0.000003
 16 H s       :     0.674019  s :     0.674019
      pz      :     0.092367  p :     0.170223
      px      :     0.041952
      py      :     0.035904
 17 H s       :     0.683693  s :     0.683693
      pz      :     0.031317  p :     0.157427
      px      :     0.054792
      py      :     0.071318


                      *****************************
                      * MAYER POPULATION ANALYSIS *
                      *****************************

  NA   - Mulliken gross atomic population
  ZA   - Total nuclear charge
  QA   - Mulliken gross atomic charge
  VA   - Mayer's total valence
  BVA  - Mayer's bonded valence
  FA   - Mayer's free valence

  ATOM       NA         ZA         QA         VA         BVA        FA
  0 O      8.7795     8.0000    -0.7795     1.6926     1.6926    -0.0000
  1 H      0.6279     1.0000     0.3721     0.8773     0.8773    -0.0000
  2 H      0.6020     1.0000     0.3980     0.8891     0.8891     0.0000
  3 O      8.7795     8.0000    -0.7795     1.6926     1.6926    -0.0000
  4 H      0.6020     1.0000     0.3980     0.8891     0.8891     0.0000
  5 H      0.6279     1.0000     0.3721     0.8773     0.8773    -0.0000
  6 O      8.7532     8.0000    -0.7532     1.7280     1.7280     0.0000
  7 H      0.6380     1.0000     0.3620     0.8849     0.8849    -0.0000
  8 H      0.5990     1.0000     0.4010     0.8785     0.8785     0.0000
  9 O      8.7532     8.0000    -0.7532     1.7280     1.7280    -0.0000
 10 H      0.6380     1.0000     0.3620     0.8849     0.8849     0.0000
 11 H      0.5990     1.0000     0.4010     0.8785     0.8785    -0.0000
 12 O      8.7229     8.0000    -0.7229     1.7624     1.7624    -0.0000
 13 H      0.6136     1.0000     0.3864     0.8742     0.8742    -0.0000
 14 H      0.6639     1.0000     0.3361     0.9059     0.9059    -0.0000
 15 O      8.7229     8.0000    -0.7229     1.7624     1.7624     0.0000
 16 H      0.6136     1.0000     0.3864     0.8742     0.8742     0.0000
 17 H      0.6639     1.0000     0.3361     0.9059     0.9059     0.0000

  Mayer bond orders larger than 0.100000
B(  0-O ,  1-H ) :   0.8694 B(  0-O ,  2-H ) :   0.7880 B(  3-O ,  4-H ) :   0.7880 
B(  3-O ,  5-H ) :   0.8694 B(  6-O ,  7-H ) :   0.8765 B(  6-O ,  8-H ) :   0.8061 
B(  9-O , 10-H ) :   0.8765 B(  9-O , 11-H ) :   0.8061 B( 12-O , 13-H ) :   0.8530 
B( 12-O , 14-H ) :   0.8940 B( 15-O , 16-H ) :   0.8530 B( 15-O , 17-H ) :   0.8940 


-------
TIMINGS
-------

Total SCF time: 0 days 0 hours 0 min 14 sec 

Total time                  ....      14.769 sec
Sum of individual times     ....      14.511 sec  ( 98.3%)

Fock matrix formation       ....      14.127 sec  ( 95.7%)
Diagonalization             ....       0.076 sec  (  0.5%)
Density matrix formation    ....       0.010 sec  (  0.1%)
Population analysis         ....       0.026 sec  (  0.2%)
Initial guess               ....       0.150 sec  (  1.0%)
Orbital Transformation      ....       0.000 sec  (  0.0%)
Orbital Orthonormalization  ....       0.000 sec  (  0.0%)
DIIS solution               ....       0.027 sec  (  0.2%)
SOSCF solution              ....       0.039 sec  (  0.3%)


           ************************************************************
           *        Program running with 6 parallel MPI-processes     *
           *              working on a common directory               *
           ************************************************************

------------------------------------------------------------------------------
                                ORCA  MP2 
------------------------------------------------------------------------------

Freezing NCore=12 chemical core electrons
MP2 will be done in the AO integral direct mode
The Q1-step will be done using symmetric double matrices
Dimension of the basis                    ...  258
Memory devoted for MP2                    ... 8000 MB   
Memory needed for all in one shot         ...  264 MB
Number of MOs that can be treated together...  120      
MP2 density construction                  ... relaxed
The MP2 gradient is requested => amplitudes will be stored on disk
Total number of MOs              ...   24
Number of MOs treated per batch  ...    4 
Number of batches necessary      ...    1 
OPERATORS   0/  0 PASS   0
-----------------------------------------------
 MP2 CORRELATION ENERGY   :     -1.554203737 Eh
-----------------------------------------------


---------------------
MP2 DENSITY FORMATION
---------------------

Completing the external part of the density      ... done
Storing the unrelaxed density                    ... done

Calculating G(D)                                 ... done
Completing the Lagrangian                        ... done
Solving the Z-vector equations                   ... 

------------------------------------------------------------------------------
                           ORCA CP-SCF CALCULATION
------------------------------------------------------------------------------

Input orbitals are from        ... 12h2o.su.etal.mol4,5,6,7,9,11-orca.engrad-mp2.def2tzvp.frozencore.gbw
Input Perturbation             ... 12h2o.su.etal.mol4,5,6,7,9,11-orca.engrad-mp2.def2tzvp.frozencore.pin.tmp
Wavefunction output            ... 12h2o.su.etal.mol4,5,6,7,9,11-orca.engrad-mp2.def2tzvp.frozencore.pout.tmp
Perturbation mode              ... Real perturbation (singlet)
Solver                         ... POPLE
Max. number of iterations      ... 128
Convergence tolerance          ... 1.000e-08
Integral handling              ... Direct
Number of perturbations        ... 1
Number of operators            ... 1
Orbital ranges used for CP-SCF:
 Operator 0:  Orbitals   0... 29  to  30...257
Variables per vector in CP-SCF ... 6840
Number of vectors sought       ... 1
     CP-SCF ITERATION   0: 
     CP-SCF ITERATION   1:      0.000848287608
     CP-SCF ITERATION   2:      0.000023969837
     CP-SCF ITERATION   3:      0.000001448745
     CP-SCF ITERATION   4:      0.000000139047
     CP-SCF ITERATION   5:      0.000000014920
     CP-SCF ITERATION   6:      0.000000000797
                                                 ... done
Finalizing the relaxed density                   ... done
Transforming P to the AO basis                   ... done
Storing the relaxed density                      ... done

------------------------------------
ENERGY WEIGHTED DENSITY FINALIZATION
------------------------------------

Gathering the parts of the W-matrix              ...                                                      done
Forming the Z-density                            ... done
Transforming Z to the AO basis                   ... done
Calculating G(Z)                                 ... done
Finalizing the W-matrix                          ...                                                      done
Transforming W to the AO basis and storing       ... done

                *********************************************
                * UNRELAXED MP2 DENSITY POPULATION ANALYSIS *
                *********************************************

------------------------------------------------------------------------------
                           ORCA POPULATION ANALYSIS
------------------------------------------------------------------------------
Input electron density              ... 12h2o.su.etal.mol4,5,6,7,9,11-orca.engrad-mp2.def2tzvp.frozencore.pmp2ur
BaseName (.gbw .S,...)              ... 12h2o.su.etal.mol4,5,6,7,9,11-orca.engrad-mp2.def2tzvp.frozencore

                    ********************************
                    * MULLIKEN POPULATION ANALYSIS *
                    ********************************

-----------------------
MULLIKEN ATOMIC CHARGES
-----------------------
   0 O :   -0.772459
   1 H :    0.369731
   2 H :    0.393038
   3 O :   -0.772459
   4 H :    0.393038
   5 H :    0.369731
   6 O :   -0.745943
   7 H :    0.359427
   8 H :    0.396516
   9 O :   -0.745943
  10 H :    0.359427
  11 H :    0.396516
  12 O :   -0.717357
  13 H :    0.383546
  14 H :    0.333500
  15 O :   -0.717357
  16 H :    0.383546
  17 H :    0.333500
Sum of atomic charges:   -0.0000000

--------------------------------
MULLIKEN REDUCED ORBITAL CHARGES
--------------------------------
  0 O s       :     3.797734  s :     3.797734
      pz      :     1.556569  p :     4.919777
      px      :     1.837296
      py      :     1.525912
      dz2     :     0.016191  d :     0.050989
      dxz     :     0.007695
      dyz     :     0.008099
      dx2y2   :     0.008866
      dxy     :     0.010138
      f0      :     0.000573  f :     0.003959
      f+1     :     0.000487
      f-1     :     0.000816
      f+2     :     0.000435
      f-2     :     0.000406
      f+3     :     0.000772
      f-3     :     0.000468
  1 H s       :     0.584900  s :     0.584900
      pz      :     0.019089  p :     0.045369
      px      :     0.013999
      py      :     0.012281
  2 H s       :     0.552709  s :     0.552709
      pz      :     0.009302  p :     0.054253
      px      :     0.014963
      py      :     0.029988
  3 O s       :     3.797734  s :     3.797734
      pz      :     1.556569  p :     4.919777
      px      :     1.837296
      py      :     1.525912
      dz2     :     0.016191  d :     0.050989
      dxz     :     0.007695
      dyz     :     0.008099
      dx2y2   :     0.008866
      dxy     :     0.010138
      f0      :     0.000573  f :     0.003959
      f+1     :     0.000487
      f-1     :     0.000816
      f+2     :     0.000435
      f-2     :     0.000406
      f+3     :     0.000772
      f-3     :     0.000468
  4 H s       :     0.552709  s :     0.552709
      pz      :     0.009302  p :     0.054253
      px      :     0.014963
      py      :     0.029988
  5 H s       :     0.584900  s :     0.584900
      pz      :     0.019089  p :     0.045369
      px      :     0.013999
      py      :     0.012281
  6 O s       :     3.797302  s :     3.797302
      pz      :     1.544745  p :     4.892499
      px      :     1.522585
      py      :     1.825169
      dz2     :     0.017048  d :     0.052198
      dxz     :     0.008354
      dyz     :     0.007775
      dx2y2   :     0.008995
      dxy     :     0.010026
      f0      :     0.000551  f :     0.003944
      f+1     :     0.000833
      f-1     :     0.000483
      f+2     :     0.000433
      f-2     :     0.000408
      f+3     :     0.000467
      f-3     :     0.000770
  7 H s       :     0.595083  s :     0.595083
      pz      :     0.019024  p :     0.045490
      px      :     0.012233
      py      :     0.014233
  8 H s       :     0.548704  s :     0.548704
      pz      :     0.009942  p :     0.054780
      px      :     0.029679
      py      :     0.015158
  9 O s       :     3.797302  s :     3.797302
      pz      :     1.544745  p :     4.892499
      px      :     1.522585
      py      :     1.825169
      dz2     :     0.017048  d :     0.052198
      dxz     :     0.008354
      dyz     :     0.007775
      dx2y2   :     0.008995
      dxy     :     0.010026
      f0      :     0.000551  f :     0.003944
      f+1     :     0.000833
      f-1     :     0.000483
      f+2     :     0.000433
      f-2     :     0.000408
      f+3     :     0.000467
      f-3     :     0.000770
 10 H s       :     0.595083  s :     0.595083
      pz      :     0.019024  p :     0.045490
      px      :     0.012233
      py      :     0.014233
 11 H s       :     0.548704  s :     0.548704
      pz      :     0.009942  p :     0.054780
      px      :     0.029679
      py      :     0.015158
 12 O s       :     3.807629  s :     3.807629
      pz      :     1.541881  p :     4.853380
      px      :     1.800698
      py      :     1.510801
      dz2     :     0.016891  d :     0.052301
      dxz     :     0.008449
      dyz     :     0.006637
      dx2y2   :     0.007596
      dxy     :     0.012728
      f0      :     0.000629  f :     0.004046
      f+1     :     0.000539
      f-1     :     0.000741
      f+2     :     0.000414
      f-2     :     0.000420
      f+3     :     0.000869
      f-3     :     0.000435
 13 H s       :     0.566145  s :     0.566145
      pz      :     0.024228  p :     0.050308
      px      :     0.013827
      py      :     0.012253
 14 H s       :     0.619925  s :     0.619925
      pz      :     0.011803  p :     0.046575
      px      :     0.016547
      py      :     0.018225
 15 O s       :     3.807629  s :     3.807629
      pz      :     1.541881  p :     4.853380
      px      :     1.800698
      py      :     1.510801
      dz2     :     0.016891  d :     0.052301
      dxz     :     0.008449
      dyz     :     0.006637
      dx2y2   :     0.007596
      dxy     :     0.012728
      f0      :     0.000629  f :     0.004046
      f+1     :     0.000539
      f-1     :     0.000741
      f+2     :     0.000414
      f-2     :     0.000420
      f+3     :     0.000869
      f-3     :     0.000435
 16 H s       :     0.566145  s :     0.566145
      pz      :     0.024228  p :     0.050308
      px      :     0.013827
      py      :     0.012253
 17 H s       :     0.619925  s :     0.619925
      pz      :     0.011803  p :     0.046575
      px      :     0.016547
      py      :     0.018225


                     *******************************
                     * LOEWDIN POPULATION ANALYSIS *
                     *******************************

----------------------
LOEWDIN ATOMIC CHARGES
----------------------
   0 O :   -0.304267
   1 H :    0.171295
   2 H :    0.153274
   3 O :   -0.304267
   4 H :    0.153274
   5 H :    0.171295
   6 O :   -0.313096
   7 H :    0.166213
   8 H :    0.152745
   9 O :   -0.313096
  10 H :    0.166213
  11 H :    0.152745
  12 O :   -0.337259
  13 H :    0.153880
  14 H :    0.157215
  15 O :   -0.337259
  16 H :    0.153880
  17 H :    0.157215

-------------------------------
LOEWDIN REDUCED ORBITAL CHARGES
-------------------------------
  0 O s       :     3.452347  s :     3.452347
      pz      :     1.525234  p :     4.788264
      px      :     1.776803
      py      :     1.486227
      dz2     :     0.020750  d :     0.058886
      dxz     :     0.006913
      dyz     :     0.009494
      dx2y2   :     0.010400
      dxy     :     0.011329
      f0      :     0.000796  f :     0.004770
      f+1     :     0.000585
      f-1     :     0.001168
      f+2     :     0.000413
      f-2     :     0.000422
      f+3     :     0.000937
      f-3     :     0.000449
  1 H s       :     0.665692  s :     0.665692
      pz      :     0.081371  p :     0.163013
      px      :     0.043657
      py      :     0.037984
  2 H s       :     0.654758  s :     0.654758
      pz      :     0.029797  p :     0.191968
      px      :     0.053539
      py      :     0.108632
  3 O s       :     3.452347  s :     3.452347
      pz      :     1.525234  p :     4.788264
      px      :     1.776803
      py      :     1.486227
      dz2     :     0.020750  d :     0.058886
      dxz     :     0.006913
      dyz     :     0.009494
      dx2y2   :     0.010400
      dxy     :     0.011329
      f0      :     0.000796  f :     0.004770
      f+1     :     0.000585
      f-1     :     0.001168
      f+2     :     0.000413
      f-2     :     0.000422
      f+3     :     0.000937
      f-3     :     0.000449
  4 H s       :     0.654758  s :     0.654758
      pz      :     0.029797  p :     0.191968
      px      :     0.053539
      py      :     0.108632
  5 H s       :     0.665692  s :     0.665692
      pz      :     0.081371  p :     0.163013
      px      :     0.043657
      py      :     0.037984
  6 O s       :     3.457450  s :     3.457450
      pz      :     1.537819  p :     4.791962
      px      :     1.483965
      py      :     1.770178
      dz2     :     0.020632  d :     0.058916
      dxz     :     0.009554
      dyz     :     0.006870
      dx2y2   :     0.010564
      dxy     :     0.011295
      f0      :     0.000783  f :     0.004767
      f+1     :     0.001177
      f-1     :     0.000585
      f+2     :     0.000413
      f-2     :     0.000420
      f+3     :     0.000449
      f-3     :     0.000940
  7 H s       :     0.670811  s :     0.670811
      pz      :     0.081198  p :     0.162977
      px      :     0.037976
      py      :     0.043803
  8 H s       :     0.657486  s :     0.657486
      pz      :     0.029860  p :     0.189769
      px      :     0.106523
      py      :     0.053387
  9 O s       :     3.457450  s :     3.457450
      pz      :     1.537819  p :     4.791962
      px      :     1.483965
      py      :     1.770178
      dz2     :     0.020632  d :     0.058916
      dxz     :     0.009554
      dyz     :     0.006870
      dx2y2   :     0.010564
      dxy     :     0.011295
      f0      :     0.000783  f :     0.004767
      f+1     :     0.001177
      f-1     :     0.000585
      f+2     :     0.000413
      f-2     :     0.000420
      f+3     :     0.000449
      f-3     :     0.000940
 10 H s       :     0.670811  s :     0.670811
      pz      :     0.081198  p :     0.162977
      px      :     0.037976
      py      :     0.043803
 11 H s       :     0.657486  s :     0.657486
      pz      :     0.029860  p :     0.189769
      px      :     0.106523
      py      :     0.053387
 12 O s       :     3.463450  s :     3.463450
      pz      :     1.524405  p :     4.808944
      px      :     1.773512
      py      :     1.511028
      dz2     :     0.021334  d :     0.059978
      dxz     :     0.007729
      dyz     :     0.007227
      dx2y2   :     0.007874
      dxy     :     0.015814
      f0      :     0.000862  f :     0.004887
      f+1     :     0.000713
      f-1     :     0.000984
      f+2     :     0.000387
      f-2     :     0.000417
      f+3     :     0.001148
      f-3     :     0.000375
 13 H s       :     0.672990  s :     0.672990
      pz      :     0.093721  p :     0.173130
      px      :     0.042764
      py      :     0.036645
 14 H s       :     0.682029  s :     0.682029
      pz      :     0.032098  p :     0.160756
      px      :     0.055881
      py      :     0.072777
 15 O s       :     3.463450  s :     3.463450
      pz      :     1.524405  p :     4.808944
      px      :     1.773512
      py      :     1.511028
      dz2     :     0.021334  d :     0.059978
      dxz     :     0.007729
      dyz     :     0.007227
      dx2y2   :     0.007874
      dxy     :     0.015814
      f0      :     0.000862  f :     0.004887
      f+1     :     0.000713
      f-1     :     0.000984
      f+2     :     0.000387
      f-2     :     0.000417
      f+3     :     0.001148
      f-3     :     0.000375
 16 H s       :     0.672990  s :     0.672990
      pz      :     0.093721  p :     0.173130
      px      :     0.042764
      py      :     0.036645
 17 H s       :     0.682029  s :     0.682029
      pz      :     0.032098  p :     0.160756
      px      :     0.055881
      py      :     0.072777


                      *****************************
                      * MAYER POPULATION ANALYSIS *
                      *****************************

  NA   - Mulliken gross atomic population
  ZA   - Total nuclear charge
  QA   - Mulliken gross atomic charge
  VA   - Mayer's total valence
  BVA  - Mayer's bonded valence
  FA   - Mayer's free valence

  ATOM       NA         ZA         QA         VA         BVA        FA
  0 O      8.7725     8.0000    -0.7725     2.0099     1.6153     0.3946
  1 H      0.6303     1.0000     0.3697     0.8828     0.8370     0.0458
  2 H      0.6070     1.0000     0.3930     0.8972     0.8507     0.0465
  3 O      8.7725     8.0000    -0.7725     2.0099     1.6153     0.3946
  4 H      0.6070     1.0000     0.3930     0.8972     0.8507     0.0465
  5 H      0.6303     1.0000     0.3697     0.8828     0.8370     0.0458
  6 O      8.7459     8.0000    -0.7459     2.0413     1.6489     0.3924
  7 H      0.6406     1.0000     0.3594     0.8908     0.8439     0.0469
  8 H      0.6035     1.0000     0.3965     0.8861     0.8405     0.0456
  9 O      8.7459     8.0000    -0.7459     2.0413     1.6489     0.3924
 10 H      0.6406     1.0000     0.3594     0.8908     0.8439     0.0469
 11 H      0.6035     1.0000     0.3965     0.8861     0.8405     0.0456
 12 O      8.7174     8.0000    -0.7174     2.0702     1.6814     0.3888
 13 H      0.6165     1.0000     0.3835     0.8802     0.8358     0.0444
 14 H      0.6665     1.0000     0.3335     0.9124     0.8633     0.0491
 15 O      8.7174     8.0000    -0.7174     2.0702     1.6814     0.3888
 16 H      0.6165     1.0000     0.3835     0.8802     0.8358     0.0444
 17 H      0.6665     1.0000     0.3335     0.9124     0.8633     0.0491

  Mayer bond orders larger than 0.100000
B(  0-O ,  1-H ) :   0.8297 B(  0-O ,  2-H ) :   0.7528 B(  3-O ,  4-H ) :   0.7528 
B(  3-O ,  5-H ) :   0.8297 B(  6-O ,  7-H ) :   0.8361 B(  6-O ,  8-H ) :   0.7703 
B(  9-O , 10-H ) :   0.8361 B(  9-O , 11-H ) :   0.7703 B( 12-O , 13-H ) :   0.8152 
B( 12-O , 14-H ) :   0.8521 B( 15-O , 16-H ) :   0.8152 B( 15-O , 17-H ) :   0.8521 



                *******************************************
                * RELAXED MP2 DENSITY POPULATION ANALYSIS *
                *******************************************

------------------------------------------------------------------------------
                           ORCA POPULATION ANALYSIS
------------------------------------------------------------------------------
Input electron density              ... 12h2o.su.etal.mol4,5,6,7,9,11-orca.engrad-mp2.def2tzvp.frozencore.pmp2re
BaseName (.gbw .S,...)              ... 12h2o.su.etal.mol4,5,6,7,9,11-orca.engrad-mp2.def2tzvp.frozencore

                    ********************************
                    * MULLIKEN POPULATION ANALYSIS *
                    ********************************

-----------------------
MULLIKEN ATOMIC CHARGES
-----------------------
   0 O :   -0.740664
   1 H :    0.362318
   2 H :    0.367560
   3 O :   -0.740664
   4 H :    0.367560
   5 H :    0.362318
   6 O :   -0.715068
   7 H :    0.353259
   8 H :    0.373914
   9 O :   -0.715068
  10 H :    0.353259
  11 H :    0.373914
  12 O :   -0.698250
  13 H :    0.370814
  14 H :    0.326115
  15 O :   -0.698250
  16 H :    0.370814
  17 H :    0.326115
Sum of atomic charges:   -0.0000000

--------------------------------
MULLIKEN REDUCED ORBITAL CHARGES
--------------------------------
  0 O s       :     3.798820  s :     3.798820
      pz      :     1.548298  p :     4.888799
      px      :     1.818689
      py      :     1.521811
      dz2     :     0.015089  d :     0.049156
      dxz     :     0.007738
      dyz     :     0.007838
      dx2y2   :     0.008689
      dxy     :     0.009802
      f0      :     0.000561  f :     0.003889
      f+1     :     0.000481
      f-1     :     0.000789
      f+2     :     0.000434
      f-2     :     0.000405
      f+3     :     0.000754
      f-3     :     0.000466
  1 H s       :     0.591678  s :     0.591678
      pz      :     0.018376  p :     0.046004
      px      :     0.014920
      py      :     0.012708
  2 H s       :     0.577881  s :     0.577881
      pz      :     0.009926  p :     0.054559
      px      :     0.015416
      py      :     0.029216
  3 O s       :     3.798820  s :     3.798820
      pz      :     1.548298  p :     4.888799
      px      :     1.818689
      py      :     1.521811
      dz2     :     0.015089  d :     0.049156
      dxz     :     0.007738
      dyz     :     0.007838
      dx2y2   :     0.008689
      dxy     :     0.009802
      f0      :     0.000561  f :     0.003889
      f+1     :     0.000481
      f-1     :     0.000789
      f+2     :     0.000434
      f-2     :     0.000405
      f+3     :     0.000754
      f-3     :     0.000466
  4 H s       :     0.577881  s :     0.577881
      pz      :     0.009926  p :     0.054559
      px      :     0.015416
      py      :     0.029216
  5 H s       :     0.591678  s :     0.591678
      pz      :     0.018376  p :     0.046004
      px      :     0.014920
      py      :     0.012708
  6 O s       :     3.795820  s :     3.795820
      pz      :     1.539813  p :     4.865029
      px      :     1.520600
      py      :     1.804616
      dz2     :     0.015889  d :     0.050344
      dxz     :     0.008127
      dyz     :     0.007831
      dx2y2   :     0.008797
      dxy     :     0.009700
      f0      :     0.000537  f :     0.003875
      f+1     :     0.000806
      f-1     :     0.000478
      f+2     :     0.000432
      f-2     :     0.000406
      f+3     :     0.000464
      f-3     :     0.000751
  7 H s       :     0.600576  s :     0.600576
      pz      :     0.018371  p :     0.046165
      px      :     0.012631
      py      :     0.015163
  8 H s       :     0.571062  s :     0.571062
      pz      :     0.010562  p :     0.055024
      px      :     0.028864
      py      :     0.015598
  9 O s       :     3.795820  s :     3.795820
      pz      :     1.539813  p :     4.865029
      px      :     1.520600
      py      :     1.804616
      dz2     :     0.015889  d :     0.050344
      dxz     :     0.008127
      dyz     :     0.007831
      dx2y2   :     0.008797
      dxy     :     0.009700
      f0      :     0.000537  f :     0.003875
      f+1     :     0.000806
      f-1     :     0.000478
      f+2     :     0.000432
      f-2     :     0.000406
      f+3     :     0.000464
      f-3     :     0.000751
 10 H s       :     0.600576  s :     0.600576
      pz      :     0.018371  p :     0.046165
      px      :     0.012631
      py      :     0.015163
 11 H s       :     0.571062  s :     0.571062
      pz      :     0.010562  p :     0.055024
      px      :     0.028864
      py      :     0.015598
 12 O s       :     3.809296  s :     3.809296
      pz      :     1.537998  p :     4.834867
      px      :     1.793943
      py      :     1.502925
      dz2     :     0.015644  d :     0.050113
      dxz     :     0.008424
      dyz     :     0.006598
      dx2y2   :     0.007496
      dxy     :     0.011951
      f0      :     0.000612  f :     0.003973
      f+1     :     0.000529
      f-1     :     0.000719
      f+2     :     0.000414
      f-2     :     0.000419
      f+3     :     0.000845
      f-3     :     0.000435
 13 H s       :     0.578386  s :     0.578386
      pz      :     0.023353  p :     0.050800
      px      :     0.014697
      py      :     0.012750
 14 H s       :     0.626462  s :     0.626462
      pz      :     0.012570  p :     0.047423
      px      :     0.017213
      py      :     0.017640
 15 O s       :     3.809296  s :     3.809296
      pz      :     1.537998  p :     4.834867
      px      :     1.793943
      py      :     1.502925
      dz2     :     0.015644  d :     0.050113
      dxz     :     0.008424
      dyz     :     0.006598
      dx2y2   :     0.007496
      dxy     :     0.011951
      f0      :     0.000612  f :     0.003973
      f+1     :     0.000529
      f-1     :     0.000719
      f+2     :     0.000414
      f-2     :     0.000419
      f+3     :     0.000845
      f-3     :     0.000435
 16 H s       :     0.578386  s :     0.578386
      pz      :     0.023353  p :     0.050800
      px      :     0.014697
      py      :     0.012750
 17 H s       :     0.626462  s :     0.626462
      pz      :     0.012570  p :     0.047423
      px      :     0.017213
      py      :     0.017640


                     *******************************
                     * LOEWDIN POPULATION ANALYSIS *
                     *******************************

----------------------
LOEWDIN ATOMIC CHARGES
----------------------
   0 O :   -0.296487
   1 H :    0.172717
   2 H :    0.145337
   3 O :   -0.296487
   4 H :    0.145337
   5 H :    0.172717
   6 O :   -0.306392
   7 H :    0.167626
   8 H :    0.145439
   9 O :   -0.306392
  10 H :    0.167626
  11 H :    0.145439
  12 O :   -0.337460
  13 H :    0.150788
  14 H :    0.158432
  15 O :   -0.337460
  16 H :    0.150788
  17 H :    0.158432

-------------------------------
LOEWDIN REDUCED ORBITAL CHARGES
-------------------------------
  0 O s       :     3.453770  s :     3.453770
      pz      :     1.524558  p :     4.779464
      px      :     1.765778
      py      :     1.489128
      dz2     :     0.020378  d :     0.058449
      dxz     :     0.006990
      dyz     :     0.009306
      dx2y2   :     0.010456
      dxy     :     0.011320
      f0      :     0.000797  f :     0.004805
      f+1     :     0.000588
      f-1     :     0.001181
      f+2     :     0.000415
      f-2     :     0.000421
      f+3     :     0.000951
      f-3     :     0.000452
  1 H s       :     0.664322  s :     0.664322
      pz      :     0.080563  p :     0.162961
      px      :     0.044317
      py      :     0.038080
  2 H s       :     0.661962  s :     0.661962
      pz      :     0.030110  p :     0.192702
      px      :     0.054030
      py      :     0.108561
  3 O s       :     3.453770  s :     3.453770
      pz      :     1.524558  p :     4.779464
      px      :     1.765778
      py      :     1.489128
      dz2     :     0.020378  d :     0.058449
      dxz     :     0.006990
      dyz     :     0.009306
      dx2y2   :     0.010456
      dxy     :     0.011320
      f0      :     0.000797  f :     0.004805
      f+1     :     0.000588
      f-1     :     0.001181
      f+2     :     0.000415
      f-2     :     0.000421
      f+3     :     0.000951
      f-3     :     0.000452
  4 H s       :     0.661962  s :     0.661962
      pz      :     0.030110  p :     0.192702
      px      :     0.054030
      py      :     0.108561
  5 H s       :     0.664322  s :     0.664322
      pz      :     0.080563  p :     0.162961
      px      :     0.044317
      py      :     0.038080
  6 O s       :     3.458603  s :     3.458603
      pz      :     1.539571  p :     4.784770
      px      :     1.487230
      py      :     1.757968
      dz2     :     0.020072  d :     0.058224
      dxz     :     0.009342
      dyz     :     0.006941
      dx2y2   :     0.010593
      dxy     :     0.011277
      f0      :     0.000779  f :     0.004795
      f+1     :     0.001189
      f-1     :     0.000587
      f+2     :     0.000415
      f-2     :     0.000419
      f+3     :     0.000452
      f-3     :     0.000954
  7 H s       :     0.669357  s :     0.669357
      pz      :     0.080496  p :     0.163017
      px      :     0.038110
      py      :     0.044411
  8 H s       :     0.664173  s :     0.664173
      pz      :     0.030270  p :     0.190388
      px      :     0.106287
      py      :     0.053831
  9 O s       :     3.458603  s :     3.458603
      pz      :     1.539571  p :     4.784770
      px      :     1.487230
      py      :     1.757968
      dz2     :     0.020072  d :     0.058224
      dxz     :     0.009342
      dyz     :     0.006941
      dx2y2   :     0.010593
      dxy     :     0.011277
      f0      :     0.000779  f :     0.004795
      f+1     :     0.001189
      f-1     :     0.000587
      f+2     :     0.000415
      f-2     :     0.000419
      f+3     :     0.000452
      f-3     :     0.000954
 10 H s       :     0.669357  s :     0.669357
      pz      :     0.080496  p :     0.163017
      px      :     0.038110
      py      :     0.044411
 11 H s       :     0.664173  s :     0.664173
      pz      :     0.030270  p :     0.190388
      px      :     0.106287
      py      :     0.053831
 12 O s       :     3.464925  s :     3.464925
      pz      :     1.525383  p :     4.808873
      px      :     1.770857
      py      :     1.512633
      dz2     :     0.020696  d :     0.058759
      dxz     :     0.007767
      dyz     :     0.007107
      dx2y2   :     0.007786
      dxy     :     0.015404
      f0      :     0.000866  f :     0.004904
      f+1     :     0.000712
      f-1     :     0.000991
      f+2     :     0.000389
      f-2     :     0.000416
      f+3     :     0.001154
      f-3     :     0.000375
 13 H s       :     0.675846  s :     0.675846
      pz      :     0.092817  p :     0.173366
      px      :     0.043589
      py      :     0.036960
 14 H s       :     0.680431  s :     0.680431
      pz      :     0.032547  p :     0.161136
      px      :     0.056441
      py      :     0.072148
 15 O s       :     3.464925  s :     3.464925
      pz      :     1.525383  p :     4.808873
      px      :     1.770857
      py      :     1.512633
      dz2     :     0.020696  d :     0.058759
      dxz     :     0.007767
      dyz     :     0.007107
      dx2y2   :     0.007786
      dxy     :     0.015404
      f0      :     0.000866  f :     0.004904
      f+1     :     0.000712
      f-1     :     0.000991
      f+2     :     0.000389
      f-2     :     0.000416
      f+3     :     0.001154
      f-3     :     0.000375
 16 H s       :     0.675846  s :     0.675846
      pz      :     0.092817  p :     0.173366
      px      :     0.043589
      py      :     0.036960
 17 H s       :     0.680431  s :     0.680431
      pz      :     0.032547  p :     0.161136
      px      :     0.056441
      py      :     0.072148


                      *****************************
                      * MAYER POPULATION ANALYSIS *
                      *****************************

  NA   - Mulliken gross atomic population
  ZA   - Total nuclear charge
  QA   - Mulliken gross atomic charge
  VA   - Mayer's total valence
  BVA  - Mayer's bonded valence
  FA   - Mayer's free valence

  ATOM       NA         ZA         QA         VA         BVA        FA
  0 O      8.7407     8.0000    -0.7407     2.0517     1.6634     0.3883
  1 H      0.6377     1.0000     0.3623     0.8878     0.8419     0.0459
  2 H      0.6324     1.0000     0.3676     0.9311     0.8860     0.0451
  3 O      8.7407     8.0000    -0.7407     2.0517     1.6634     0.3883
  4 H      0.6324     1.0000     0.3676     0.9311     0.8860     0.0451
  5 H      0.6377     1.0000     0.3623     0.8878     0.8419     0.0459
  6 O      8.7151     8.0000    -0.7151     2.0755     1.6893     0.3863
  7 H      0.6467     1.0000     0.3533     0.8958     0.8489     0.0469
  8 H      0.6261     1.0000     0.3739     0.9177     0.8732     0.0445
  9 O      8.7151     8.0000    -0.7151     2.0755     1.6893     0.3863
 10 H      0.6467     1.0000     0.3533     0.8958     0.8489     0.0469
 11 H      0.6261     1.0000     0.3739     0.9177     0.8732     0.0445
 12 O      8.6982     8.0000    -0.6982     2.0872     1.7038     0.3833
 13 H      0.6292     1.0000     0.3708     0.8977     0.8535     0.0442
 14 H      0.6739     1.0000     0.3261     0.9200     0.8711     0.0489
 15 O      8.6982     8.0000    -0.6982     2.0872     1.7038     0.3833
 16 H      0.6292     1.0000     0.3708     0.8977     0.8535     0.0442
 17 H      0.6739     1.0000     0.3261     0.9200     0.8711     0.0489

  Mayer bond orders larger than 0.100000
B(  0-O ,  1-H ) :   0.8327 B(  0-O ,  2-H ) :   0.7490 B(  2-H ,  9-O ) :   0.1173 
B(  3-O ,  4-H ) :   0.7490 B(  3-O ,  5-H ) :   0.8327 B(  4-H ,  6-O ) :   0.1173 
B(  6-O ,  7-H ) :   0.8389 B(  6-O ,  8-H ) :   0.7695 B(  9-O , 10-H ) :   0.8389 
B(  9-O , 11-H ) :   0.7695 B( 12-O , 13-H ) :   0.8205 B( 12-O , 14-H ) :   0.8551 
B( 15-O , 16-H ) :   0.8205 B( 15-O , 17-H ) :   0.8551 


----------------------------------
MP2 DERIVATIVE INTEGRAL GENERATION
----------------------------------


Input Wavefunction Amplitudes       ... 12h2o.su.etal.mol4,5,6,7,9,11-orca.engrad-mp2.def2tzvp.frozencore.mp2tsaa.tmp
Input Correlated Electron Density   ... 12h2o.su.etal.mol4,5,6,7,9,11-orca.engrad-mp2.def2tzvp.frozencore.pmp2re
Input Energy Weighted Density       ... 12h2o.su.etal.mol4,5,6,7,9,11-orca.engrad-mp2.def2tzvp.frozencore.wmp2.tmp
Input SCF Electron Density          ... 12h2o.su.etal.mol4,5,6,7,9,11-orca.engrad-mp2.def2tzvp.frozencore.scfp

One-Electron Terms    ...
                        ... One-Electron Terms done
Prescreening matrices              ... done

Batch handling in the gradient evaluation:
Memory available                      ... 8000.0 MB
Memory per occupied orbital in Q2     ...   12.2 MB
Memory per occupied orbital in Q3     ...    0.1 MB
Total memory requirement per |i>      ...   12.3 MB
Max. Number of orbitals possible      ...    651
Number of orbitals treated per batch  ...     24
Number of batches to be done          ...      1
Batch   0: i=    6 ...    29

---------------------------------------
MP2 TOTAL ENERGY:     -457.939438837 Eh
---------------------------------------

The final MP2 gradient
  0:  -0.00102689  -0.00169050   0.01260443
  1:   0.00139115  -0.00073523  -0.00855320
  2:   0.00246094   0.00380104   0.00178471
  3:   0.00102689   0.00169050   0.01260443
  4:  -0.00246094  -0.00380104   0.00178471
  5:  -0.00139115   0.00073523  -0.00855320
  6:   0.00051690   0.00440389  -0.01109747
  7:   0.00108249  -0.00251859   0.00807938
  8:  -0.00236204  -0.00150764  -0.00115810
  9:  -0.00051690  -0.00440389  -0.01109747
 10:  -0.00108249   0.00251859   0.00807938
 11:   0.00236204   0.00150764  -0.00115810
 12:  -0.00505500  -0.00934596   0.00299879
 13:   0.00086809  -0.00034776  -0.00388135
 14:   0.00642899   0.00937935  -0.00077720
 15:   0.00505500   0.00934596   0.00299879
 16:  -0.00086809   0.00034776  -0.00388135
 17:  -0.00642899  -0.00937935  -0.00077720

-----------------------------------
NORM OF THE MP2 GRADIENT:  0.038850
-----------------------------------

-------------------------   --------------------
FINAL SINGLE POINT ENERGY      -457.939438837380
-------------------------   --------------------


                            ***************************************
                            *     ORCA property calculations      *
                            ***************************************

                                    ---------------------
                                    Active property flags
                                    ---------------------
   (+) Dipole Moment


------------------------------------------------------------------------------
                       ORCA ELECTRIC PROPERTIES CALCULATION
------------------------------------------------------------------------------

Dipole Moment Calculation                       ... on
Quadrupole Moment Calculation                   ... off
Polarizability Calculation                      ... off
GBWName                                         ... 12h2o.su.etal.mol4,5,6,7,9,11-orca.engrad-mp2.def2tzvp.frozencore.gbw
Electron density file                           ... 12h2o.su.etal.mol4,5,6,7,9,11-orca.engrad-mp2.def2tzvp.frozencore.scfp
The origin for moment calculation is the CENTER OF MASS  = (-0.000000,  0.000000  1.795339)

-------------
DIPOLE MOMENT
-------------
                                X             Y             Z
Electronic contribution:     -0.00000       0.00000      -0.11282
Nuclear contribution   :     -0.00000      -0.00000      -1.37221
                        -----------------------------------------
Total Dipole Moment    :     -0.00000       0.00000      -1.48503
                        -----------------------------------------
Magnitude (a.u.)       :      1.48503
Magnitude (Debye)      :      3.77466



--------------------
Rotational spectrum 
--------------------
 
Rotational constants in cm-1:     0.049814     0.041565     0.036119 
Rotational constants in MHz :  1493.387539  1246.079435  1082.833462 

 Dipole components along the rotational axes: 
x,y,z [a.u.] :     0.000000    -1.485034     0.000000 
x,y,z [Debye]:     0.000000    -3.774657     0.000000 

 

                         *** MP2 UNRELAXED DENSITY ***

------------------------------------------------------------------------------
                       ORCA ELECTRIC PROPERTIES CALCULATION
------------------------------------------------------------------------------

Dipole Moment Calculation                       ... on
Quadrupole Moment Calculation                   ... off
Polarizability Calculation                      ... off
GBWName                                         ... 12h2o.su.etal.mol4,5,6,7,9,11-orca.engrad-mp2.def2tzvp.frozencore.gbw
Electron density file                           ... 12h2o.su.etal.mol4,5,6,7,9,11-orca.engrad-mp2.def2tzvp.frozencore.pmp2ur
The origin for moment calculation is the CENTER OF MASS  = (-0.000000,  0.000000  1.795339)

-------------
DIPOLE MOMENT
-------------
                                X             Y             Z
Electronic contribution:     -0.00000       0.00000      -0.10084
Nuclear contribution   :     -0.00000      -0.00000      -1.37221
                        -----------------------------------------
Total Dipole Moment    :     -0.00000       0.00000      -1.47305
                        -----------------------------------------
Magnitude (a.u.)       :      1.47305
Magnitude (Debye)      :      3.74420



--------------------
Rotational spectrum 
--------------------
 
Rotational constants in cm-1:     0.049814     0.041565     0.036119 
Rotational constants in MHz :  1493.387539  1246.079435  1082.833462 

 Dipole components along the rotational axes: 
x,y,z [a.u.] :     0.000000    -1.473050     0.000000 
x,y,z [Debye]:     0.000000    -3.744197     0.000000 

 

                           *** MP2 RELAXED DENSITY ***

------------------------------------------------------------------------------
                       ORCA ELECTRIC PROPERTIES CALCULATION
------------------------------------------------------------------------------

Dipole Moment Calculation                       ... on
Quadrupole Moment Calculation                   ... off
Polarizability Calculation                      ... off
GBWName                                         ... 12h2o.su.etal.mol4,5,6,7,9,11-orca.engrad-mp2.def2tzvp.frozencore.gbw
Electron density file                           ... 12h2o.su.etal.mol4,5,6,7,9,11-orca.engrad-mp2.def2tzvp.frozencore.pmp2re
The origin for moment calculation is the CENTER OF MASS  = (-0.000000,  0.000000  1.795339)

-------------
DIPOLE MOMENT
-------------
                                X             Y             Z
Electronic contribution:     -0.00000       0.00000      -0.08376
Nuclear contribution   :     -0.00000      -0.00000      -1.37221
                        -----------------------------------------
Total Dipole Moment    :     -0.00000       0.00000      -1.45597
                        -----------------------------------------
Magnitude (a.u.)       :      1.45597
Magnitude (Debye)      :      3.70078



--------------------
Rotational spectrum 
--------------------
 
Rotational constants in cm-1:     0.049814     0.041565     0.036119 
Rotational constants in MHz :  1493.387539  1246.079435  1082.833462 

 Dipole components along the rotational axes: 
x,y,z [a.u.] :     0.000000    -1.455969     0.000000 
x,y,z [Debye]:     0.000000    -3.700778     0.000000 

 

Timings for individual modules:

Sum of individual times         ...       76.681 sec (=   1.278 min)
GTO integral calculation        ...        0.985 sec (=   0.016 min)   1.3 %
SCF iterations                  ...       15.484 sec (=   0.258 min)  20.2 %
MP2 module                      ...       60.212 sec (=   1.004 min)  78.5 %
                             ****ORCA TERMINATED NORMALLY****
TOTAL RUN TIME: 0 days 0 hours 1 minutes 17 seconds 653 msec
