24
Energy:    -71.59589940
C   -1.43665432   2.20633282   0.44399076
H   -2.34606738   2.16908146  -0.11857515
H   -1.39648670   3.12156417   0.99683543
H   -1.40208840   1.37870957   1.12129723
C   -0.23533763   2.13385662  -0.51683461
N    0.65909726   2.07989480  -1.23221277
C    0.15077792  -0.64179399  -3.02159190
H    0.80259921   0.15096558  -3.32418313
H   -0.82292251  -0.24606514  -2.82107947
H    0.08614462  -1.36872344  -3.80408485
C    0.70706790  -1.30609508  -1.74846758
N    1.12125107  -1.80069743  -0.80056866
C   -1.63058465  -2.01923261   1.60277825
H   -1.66364725  -1.35185724   2.43849181
H   -0.61919908  -2.32124022   1.42730824
H   -2.22924454  -2.88132335   1.81087675
C   -2.17701667  -1.30432156   0.35301257
N   -2.58386014  -0.77203779  -0.57749479
C    2.89691976   0.36782261   0.95972070
H    3.74667927   0.95777797   1.23314642
H    2.58971115   0.62345327  -0.03283909
H    3.15615407  -0.66963726   0.99678394
C    1.74294634   0.64397801   1.94139455
N    0.88376069   0.84958826   2.67229536
