24
Energy:    -71.56884717
C   -2.15487151  -2.38468948   0.29906766
H   -3.01037101  -1.86786215  -0.08291441
H   -2.47538909  -3.22177566   0.88340857
H   -1.55249645  -2.72825886  -0.51579642
C   -1.32925435  -1.42927139   1.18061888
N   -0.71454485  -0.71791918   1.83697384
C    0.04022806   0.34657031  -2.73350997
H    0.15130803   1.13268404  -3.45085690
H    0.04197417  -0.59794440  -3.23629026
H    0.85209556   0.38158214  -2.03741772
C   -1.29064182   0.52415873  -1.97929004
N   -2.28153494   0.65638139  -1.41773901
C   -0.52452046   2.78948675   1.69895655
H   -0.88307338   3.78912452   1.56832609
H   -0.08575181   2.69198350   2.66997368
H   -1.33994589   2.10301781   1.60546398
C    0.53363377   2.47908900   0.62398546
N    1.32147770   2.24798376  -0.17637938
C    2.72989122  -0.74646649   0.88573160
H    3.16846345   0.08734710   0.37847478
H    3.50287333  -1.35287129   1.30960772
H    2.08701883  -0.39235553   1.66433265
C    1.91141288  -1.58342171  -0.11486781
N    1.30201856  -2.20657292  -0.85985955
