24
Energy:    -70.94236850
C    0.49725840   0.41106198   3.14779880
H   -0.14309378  -0.43759107   3.02681424
H   -0.09000928   1.26675961   3.40817800
H    1.20612635   0.21508442   3.92497196
C    1.24387469   0.68298472   1.82862400
N    1.79976445   0.88544356   0.84643841
C   -2.69998465  -0.44720639  -0.05465325
H   -3.33215133  -0.25591011  -0.89647936
H   -3.26219059  -0.94462599   0.70784090
H   -1.88193761  -1.06733715  -0.35654060
C   -2.15835617   0.88590944   0.49401857
N   -1.75508914   1.87847478   0.90252968
C    0.81247102   2.26084695  -2.18165550
H    0.18083482   2.91125533  -1.61340834
H    1.03451035   2.71404113  -3.12516632
H    1.72238717   2.08927171  -1.64545252
C    0.09238400   0.91942198  -2.41328822
N   -0.44375352  -0.07932989  -2.58574931
C    1.50740436  -2.29878658  -0.99299161
H    1.86250206  -1.29979575  -1.13729380
H    0.95314728  -2.60821466  -1.85435823
H    2.33958321  -2.95586382  -0.84937080
C    0.59632788  -2.34554152   0.24771530
N   -0.08200996  -2.38035269   1.17147799
