24
Energy:    -71.78008518
C   -1.02995806  -2.70094165   0.90640437
H   -0.88310673  -3.17179344  -0.04313945
H   -1.52207392  -3.38131577   1.56958770
H   -0.08170231  -2.42470999   1.31799420
C   -1.89781621  -1.44160180   0.72616739
N   -2.54397606  -0.50396604   0.59197277
C   -1.30272922   1.07725198  -2.55848678
H   -1.61461047   1.66331714  -3.39762794
H   -2.14197075   0.89212996  -1.92106809
H   -0.90379150   0.14588643  -2.90244316
C   -0.22014309   1.84066512  -1.77311574
N    0.58589149   2.40906090  -1.18837130
C   -0.60147127   1.82676074   2.30413918
H   -0.08548520   2.72126858   2.58434317
H   -1.37043895   1.61981714   3.01881544
H   -1.03932908   1.95583594   1.33639995
C    0.39282281   0.65140830   2.26507634
N    1.13311996  -0.22369502   2.23599227
C    2.91898954  -0.24777897  -0.60343061
H    2.76506811   0.81026767  -0.64521205
H    3.83887812  -0.49392291  -1.09140320
H    2.96220444  -0.56183270   0.41852918
C    1.75437020  -0.96431061  -1.31184025
N    0.88725816  -1.49780098  -1.83928342
