49
Energy:   -891.85966570
O   -0.17224486  -3.47691393  -1.80777647
H   -0.51914276  -3.21999801  -0.95344170
H   -0.23639184  -4.43193077  -1.81551253
O   -1.27898439   0.92287109   1.72847470
H   -0.87392236   0.67013048   2.55810039
H   -2.05301117   0.36401338   1.65924717
O   -1.10952249   2.33076055  -1.59872630
H   -0.35205763   2.67739953  -2.07023480
H   -1.21280073   2.91523602  -0.84775767
O    2.03005919  -1.77872226  -1.54399784
H    2.35784149  -1.81628484  -0.64545476
H    1.48487386  -2.56038934  -1.63344829
O    0.44144219  -2.35236650   2.96542596
H    0.33633896  -1.53011534   3.44405754
H    0.56524731  -3.01276134   3.64717576
O   -2.37330445  -0.11751774  -1.57288635
H   -2.13976380  -0.59405732  -2.36950460
H   -2.21218868   0.80141143  -1.78699552
O    0.30405614   0.24561820   3.89267014
H    1.10256484   0.64895697   3.55217999
H    0.22479293   0.58544487   4.78399893
O   -0.95566090   3.51613223   0.89640187
H   -1.42108337   4.20836562   1.36589810
H   -1.22576009   2.70750970   1.33161203
O    1.02280633   0.19506783  -3.13716044
H    0.30399981  -0.28656663  -3.54652248
H    1.63094804  -0.48392367  -2.84498575
O   -1.12073344  -1.55391609  -3.57511428
H   -0.82002405  -2.31834657  -3.08373687
H   -1.44742858  -1.91238362  -4.40034344
O   -3.24365876  -0.86061472   0.91239413
H   -4.17732087  -1.03391170   1.03270644
H   -3.16537289  -0.59243678  -0.00312964
O    1.49975254   2.39326848   0.28796091
H    0.76234547   2.94907944   0.54002607
H    1.72458692   2.67972110  -0.59726575
O   -0.91440309  -2.29241233   0.55127145
H   -1.80077427  -1.98560199   0.74217820
H   -0.52370468  -2.44750579   1.41123227
O    2.09996773  -1.08956153   1.16084580
H    2.46481933  -0.36560300   1.66976545
H    1.67994966  -1.65240410   1.81124944
O    2.52474150   1.25447216   2.57281712
H    2.27095256   1.77189291   1.80855356
H    3.35386886   1.63844978   2.85802029
O    1.49138728   2.81338464  -2.48522520
H    1.91431806   3.37763582  -3.13251339
H    1.46163054   1.95168291  -2.90093726
K    0.18251355   0.07453596  -0.47445660
