91
Energy:   -776.26951888
C    1.35104426   3.93708225  -2.23669814
H    1.61859179   3.43909029  -3.14517076
H    2.22511692   4.07606328  -1.63538263
H    0.92040749   4.88949639  -2.46551765
C    0.32775780   3.08302370  -1.46529111
N   -0.43412549   2.44713829  -0.89094351
C    3.97967592   0.27077089  -2.68145862
H    3.26657948  -0.50704794  -2.85863512
H    4.94834840  -0.15980200  -2.53592613
H    4.00525145   0.92988165  -3.52396559
C    3.57502712   1.06132628  -1.42333242
N    3.27374769   1.64993069  -0.48660028
C    0.18289663  -0.79449206  -1.47967265
H   -0.49716553  -0.18408458  -2.03628592
H    1.04597747  -0.21898497  -1.21740915
H   -0.29745169  -1.14298337  -0.58932530
C    0.61082982  -1.99975769  -2.33746513
N    0.92944552  -2.89713274  -2.97613062
C    4.11765492  -4.39696056  -2.28908854
H    5.01974193  -4.15520425  -2.81128878
H    3.32212383  -4.52700788  -2.99273411
H    4.25702374  -5.30279515  -1.73687562
C    3.76370647  -3.25401129  -1.31955903
N    3.50017576  -2.40303361  -0.59770025
C    3.19587327  -0.70395690   2.26831143
H    3.55728347  -0.17442281   3.12497735
H    3.86236544  -0.54881222   1.44574386
H    3.14203491  -1.74902803   2.49153075
C    1.79394675  -0.18526039   1.89796568
N    0.75014874   0.20093273   1.62222643
C   -5.11759841   4.36408458   0.55215435
H   -4.97349336   5.03117279  -0.27193742
H   -5.61726344   4.87985549   1.34538466
H   -5.71211569   3.53189771   0.23764951
C   -3.75019492   3.85937781   1.04922454
N   -2.73210086   3.48360067   1.41931588
C   -4.39707573  -1.18597127  -0.64537181
H   -4.15301340  -2.22699128  -0.68551012
H   -4.47476268  -0.79923835  -1.64000816
H   -5.33087740  -1.05782750  -0.13892072
C   -3.29255359  -0.42871683   0.11502057
N   -2.47018665   0.13509351   0.68116725
C   -2.53536776  -4.06364996  -3.29921446
H   -3.01167336  -4.29818189  -2.37022149
H   -1.53106711  -4.43264759  -3.28825834
H   -3.07473450  -4.52123994  -4.10208059
C   -2.51900101  -2.53642834  -3.49651179
N   -2.50681523  -1.39934242  -3.64340863
C    1.30424815  -0.79737812   6.31882790
H    1.59937765  -0.69151009   7.34185806
H    1.77389143  -1.66270461   5.89984777
H    0.24126379  -0.90659826   6.26374333
C    1.73345066   0.45287190   5.52872658
N    2.05301143   1.38373987   4.94046024
C   -2.45459843   1.96281898  -3.77442611
H   -2.27202616   2.94315870  -4.16237142
H   -2.84141302   1.33784748  -4.55204053
H   -1.53923852   1.54877114  -3.40621460
C   -3.47807800   2.04727390  -2.62683866
N   -4.24010506   2.11015443  -1.77240765
C    3.40857231   3.44168018   2.52207584
H    3.84619533   4.35589643   2.17915467
H    3.87240768   2.61563251   2.02468153
H    3.55515253   3.35015656   3.57802885
C    1.90017749   3.44650893   2.21171842
N    0.77710897   3.45010416   1.98064321
C   -0.73345360   3.55089182   5.50998882
H   -0.99626553   4.50020875   5.09210435
H    0.31967737   3.52281843   5.69714155
H   -1.26291706   3.40665208   6.42855424
C   -1.10889130   2.43258517   4.52002075
N   -1.38842173   1.59995504   3.78294452
C    0.74648127  -4.26595304   0.66005659
H    1.31848141  -3.41427531   0.96396624
H    1.20177536  -4.71341290  -0.19865526
H    0.71469761  -4.97760215   1.45845777
C   -0.68631232  -3.82348106   0.30945556
N   -1.75309227  -3.49404056   0.04841716
C   -2.24774066  -1.97494934   3.39624251
H   -2.63570658  -2.38069693   2.48533554
H   -2.36097241  -0.91097930   3.38950299
H   -2.78377686  -2.38542599   4.22634685
C   -0.75489659  -2.33151873   3.52223802
N    0.35659367  -2.59700084   3.61604739
C    0.08800590  -0.86451265  -5.95158821
H    0.49681856  -0.70860107  -6.92804301
H   -0.97813912  -0.78447136  -5.99433477
H    0.35880913  -1.83922079  -5.60300717
C    0.64431991   0.19874458  -4.98639456
N    1.05852098   0.99038792  -4.26776401
Na  -0.96713254   1.86066895   1.39072706
