
                                 *****************
                                 * O   R   C   A *
                                 *****************

           --- An Ab Initio, DFT and Semiempirical electronic structure package ---

                  #######################################################
                  #                        -***-                        #
                  #          Department of theory and spectroscopy      #
                  #               Directorship: Frank Neese             #
                  #        Max Planck Institute fuer Kohlenforschung    #
                  #                Kaiser Wilhelm Platz 1               #
                  #                 D-45470 Muelheim/Ruhr               #
                  #                      Germany                        #
                  #                                                     #
                  #                  All rights reserved                #
                  #                        -***-                        #
                  #######################################################


                         Program Version 4.2.0 -  RELEASE  -


 With contributions from (in alphabetic order):
   Daniel Aravena         : Magnetic Suceptibility
   Michael Atanasov       : Ab Initio Ligand Field Theory (pilot matlab implementation)
   Alexander A. Auer      : GIAO ZORA, VPT2
   Ute Becker             : Parallelization
   Giovanni Bistoni       : ED, misc. LED, open-shell LED, HFLED
   Martin Brehm           : Molecular dynamics
   Dmytro Bykov           : SCF Hessian
   Vijay G. Chilkuri      : MRCI spin determinant printing, contributions to CSF-ICE
   Dipayan Datta          : RHF DLPNO-CCSD density
   Achintya Kumar Dutta   : EOM-CC, STEOM-CC
   Dmitry Ganyushin       : Spin-Orbit,Spin-Spin,Magnetic field MRCI
   Miquel Garcia          : C-PCM Hessian, Gaussian charge scheme
   Yang Guo               : DLPNO-NEVPT2, CIM, IAO-localization
   Andreas Hansen         : Spin unrestricted coupled pair/coupled cluster methods
   Benjamin Helmich-Paris : CASSCF linear response (MC-RPA)
   Lee Huntington         : MR-EOM, pCC
   Robert Izsak           : Overlap fitted RIJCOSX, COSX-SCS-MP3, EOM
   Christian Kollmar      : KDIIS, OOCD, Brueckner-CCSD(T), CCSD density
   Simone Kossmann        : Meta GGA functionals, TD-DFT gradient, OOMP2, MP2 Hessian
   Martin Krupicka        : AUTO-CI
   Lucas Lang             : DCDCAS
   Dagmar Lenk            : GEPOL surface, SMD
   Dimitrios Liakos       : Extrapolation schemes; Compound Job, initial MDCI parallelization
   Dimitrios Manganas     : Further ROCIS development; embedding schemes
   Dimitrios Pantazis     : SARC Basis sets
   Taras Petrenko         : DFT Hessian,TD-DFT gradient, ASA, ECA, R-Raman, ABS, FL, XAS/XES, NRVS
   Peter Pinski           : DLPNO-MP2, DLPNO-MP2 Gradient
   Christoph Reimann      : Effective Core Potentials
   Marius Retegan         : Local ZFS, SOC
   Christoph Riplinger    : Optimizer, TS searches, QM/MM, DLPNO-CCSD(T), (RO)-DLPNO pert. Triples
   Tobias Risthaus        : Range-separated hybrids, TD-DFT gradient, RPA, STAB
   Michael Roemelt        : Original ROCIS implementation
   Masaaki Saitow         : Open-shell DLPNO-CCSD energy and density
   Barbara Sandhoefer     : DKH picture change effects
   Avijit Sen             : IP-ROCIS
   Kantharuban Sivalingam : CASSCF convergence, NEVPT2, FIC-MRCI
   Bernardo de Souza      : ESD, SOC TD-DFT
   Georgi Stoychev        : AutoAux, RI-MP2 NMR
   Willem Van den Heuvel  : Paramagnetic NMR
   Boris Wezisla          : Elementary symmetry handling
   Frank Wennmohs         : Technical directorship


 We gratefully acknowledge several colleagues who have allowed us to
 interface, adapt or use parts of their codes:
   Stefan Grimme, W. Hujo, H. Kruse,             : VdW corrections, initial TS optimization,
                  C. Bannwarth                     DFT functionals, gCP, sTDA/sTD-DF
   Ed Valeev, F. Pavosevic, A. Kumar             : LibInt (2-el integral package), F12 methods
   Garnet Chan, S. Sharma, J. Yang, R. Olivares  : DMRG
   Ulf Ekstrom                                   : XCFun DFT Library
   Mihaly Kallay                                 : mrcc  (arbitrary order and MRCC methods)
   Andreas Klamt, Michael Diedenhofen            : otool_cosmo (COSMO solvation model)
   Jiri Pittner, Ondrej Demel                    : Mk-CCSD
   Frank Weinhold                                : gennbo (NPA and NBO analysis)
   Christopher J. Cramer and Donald G. Truhlar   : smd solvation model
   Lars Goerigk                                  : TD-DFT with DH, B97 family of functionals
   V. Asgeirsson, H. Jonsson                     : NEB implementation
   FAccTs GmbH                                   : IRC, NEB, NEB-TS, Multilevel, MM, QM/MM, CI optimization
   S Lehtola, MJT Oliveira, MAL Marques          : LibXC Library


 Your calculation uses the libint2 library for the computation of 2-el integrals
 For citations please refer to: http://libint.valeyev.net

 Your ORCA version has been built with support for libXC version: 4.2.3
 For citations please refer to: https://tddft.org/programs/libxc/

 This ORCA versions uses:
   CBLAS   interface :  Fast vector & matrix operations
   LAPACKE interface :  Fast linear algebra routines
   SCALAPACK package :  Parallel linear algebra routines


----- Orbital basis set information -----
Your calculation utilizes the basis: def2-TZVP
   F. Weigend and R. Ahlrichs, Phys. Chem. Chem. Phys. 7, 3297 (2005).

================================================================================
                                        WARNINGS
                       Please study these warnings very carefully!
================================================================================


WARNING: The frozen-core approximation for MP2-gradient calculations is turned on by default.

INFO   : the flag for use of LIBINT has been found!

================================================================================
                                       INPUT FILE
================================================================================
NAME = 12mecn.remya.etal.2.mol1,10-orca.engrad-mp2.def2tzvp.frozencore.inp
|  1> # 12mecn.remya.etal.2.mol1,10
|  2> ! MP2 def2-TZVP EnGrad TightSCF
|  3> 
|  4> %pal
|  5>     nprocs 6
|  6> end
|  7> 
|  8> %maxcore 8000
|  9> 
| 10> %scf
| 11>     ConvForced true
| 12> end
| 13> 
| 14> *xyz 0 1
| 15> C  -4.697980000  -0.249690000   1.746215000
| 16> H  -4.927570000   0.755530000   2.111799000
| 17> H  -3.709180000  -0.561560000   2.093253000
| 18> H  -5.432280000  -0.961520000   2.128066000
| 19> C  -4.714100000  -0.247110000   0.301670000
| 20> N  -4.729750000  -0.234960000  -0.865260000
| 21> C   4.602033000   0.321019000  -1.784800000
| 22> H   4.827650000  -0.662160000  -2.207910000
| 23> H   5.320558000   1.057980000  -2.148500000
| 24> H   3.601982000   0.643751000  -2.087520000
| 25> C   4.654967000   0.244048000  -0.343060000
| 26> N   4.691648000   0.166590000   0.820757000
| 27> *
| 28> 
| 29>                          ****END OF INPUT****
================================================================================

                     *******************************
                     * Energy+Gradient Calculation *
                     *******************************

---------------------------------
CARTESIAN COORDINATES (ANGSTROEM)
---------------------------------
  C     -4.697980   -0.249690    1.746215
  H     -4.927570    0.755530    2.111799
  H     -3.709180   -0.561560    2.093253
  H     -5.432280   -0.961520    2.128066
  C     -4.714100   -0.247110    0.301670
  N     -4.729750   -0.234960   -0.865260
  C      4.602033    0.321019   -1.784800
  H      4.827650   -0.662160   -2.207910
  H      5.320558    1.057980   -2.148500
  H      3.601982    0.643751   -2.087520
  C      4.654967    0.244048   -0.343060
  N      4.691648    0.166590    0.820757

----------------------------
CARTESIAN COORDINATES (A.U.)
----------------------------
  NO LB      ZA    FRAG     MASS         X           Y           Z
   0 C     6.0000    0    12.011   -8.877896   -0.471846    3.299868
   1 H     1.0000    0     1.008   -9.311758    1.427745    3.990722
   2 H     1.0000    0     1.008   -7.009334   -1.061195    3.955675
   3 H     1.0000    0     1.008  -10.265521   -1.817009    4.021462
   4 C     6.0000    0    12.011   -8.908358   -0.466970    0.570074
   5 N     7.0000    0    14.007   -8.937932   -0.444010   -1.635104
   6 C     6.0000    0    12.011    8.696582    0.606638   -3.372783
   7 H     1.0000    0     1.008    9.122936   -1.251301   -4.172345
   8 H     1.0000    0     1.008   10.054397    1.999292   -4.060077
   9 H     1.0000    0     1.008    6.806760    1.216513   -3.944841
  10 C     6.0000    0    12.011    8.796613    0.461184   -0.648289
  11 N     7.0000    0    14.007    8.865930    0.314809    1.551006

--------------------------------
INTERNAL COORDINATES (ANGSTROEM)
--------------------------------
 C      0   0   0     0.000000000000     0.00000000     0.00000000
 H      1   0   0     1.093997476028     0.00000000     0.00000000
 H      1   2   0     1.093354338878   110.23188073     0.00000000
 H      1   2   3     1.091654077582   109.94364040   119.12222513
 C      1   2   3     1.444637244371   109.27900475   240.05041290
 N      5   1   2     1.167098183488   179.48927802   358.44615688
 C      3   1   2     9.213821264460   130.90907136   268.74939830
 H      7   3   1     1.093876614994   105.23365614   258.28440461
 H      7   3   1     1.091635186839   142.99912465    60.20014201
 H      7   3   1     1.093570914402    47.14721526     2.03150016
 C      7   3   1     1.444763223091    66.91674145   153.43145407
 N     11   7   3     1.166968400178   179.19159853    63.78346043

---------------------------
INTERNAL COORDINATES (A.U.)
---------------------------
 C      0   0   0     0.000000000000     0.00000000     0.00000000
 H      1   0   0     2.067355620894     0.00000000     0.00000000
 H      1   2   0     2.066140267815   110.23188073     0.00000000
 H      1   2   3     2.062927239608   109.94364040   119.12222513
 C      1   2   3     2.729968754725   109.27900475   240.05041290
 N      5   1   2     2.205495938188   179.48927802   358.44615688
 C      3   1   2    17.411598836730   130.90907136   268.74939830
 H      7   3   1     2.067127226639   105.23365614   258.28440461
 H      7   3   1     2.062891541279   142.99912465    60.20014201
 H      7   3   1     2.066549536241    47.14721526     2.03150016
 C      7   3   1     2.730206820004    66.91674145   153.43145407
 N     11   7   3     2.205250683277   179.19159853    63.78346043

---------------------
BASIS SET INFORMATION
---------------------
There are 3 groups of distinct atoms

 Group   1 Type C   : 11s6p2d1f contracted to 5s3p2d1f pattern {62111/411/11/1}
 Group   2 Type H   : 5s1p contracted to 3s1p pattern {311/1}
 Group   3 Type N   : 11s6p2d1f contracted to 5s3p2d1f pattern {62111/411/11/1}

Atom   0C    basis set group =>   1
Atom   1H    basis set group =>   2
Atom   2H    basis set group =>   2
Atom   3H    basis set group =>   2
Atom   4C    basis set group =>   1
Atom   5N    basis set group =>   3
Atom   6C    basis set group =>   1
Atom   7H    basis set group =>   2
Atom   8H    basis set group =>   2
Atom   9H    basis set group =>   2
Atom  10C    basis set group =>   1
Atom  11N    basis set group =>   3


           ************************************************************
           *        Program running with 6 parallel MPI-processes     *
           *              working on a common directory               *
           ************************************************************
------------------------------------------------------------------------------
                           ORCA GTO INTEGRAL CALCULATION
------------------------------------------------------------------------------

                         BASIS SET STATISTICS AND STARTUP INFO

 # of primitive gaussian shells          ...  156
 # of primitive gaussian functions       ...  324
 # of contracted shells                  ...   90
 # of contracted basis functions         ...  222
 Highest angular momentum                ...    3
 Maximum contraction depth               ...    6
 Integral package used                   ... LIBINT
 Integral threshhold            Thresh   ...  2.500e-11
 Primitive cut-off              TCut     ...  2.500e-12


------------------------------ INTEGRAL EVALUATION ----------------------------


 * One electron integrals 
 Pre-screening matrix                    ... done
 Shell pair data                         ... done (   0.001 sec)



           ************************************************************
           *        Program running with 6 parallel MPI-processes     *
           *              working on a common directory               *
           ************************************************************
-------------------------------------------------------------------------------
                                 ORCA SCF
-------------------------------------------------------------------------------

------------
SCF SETTINGS
------------
Hamiltonian:
 Ab initio Hamiltonian  Method          .... Hartree-Fock(GTOs)


General Settings:
 Integral files         IntName         .... 12mecn.remya.etal.2.mol1,10-orca.engrad-mp2.def2tzvp.frozencore
 Hartree-Fock type      HFTyp           .... RHF
 Total Charge           Charge          ....    0
 Multiplicity           Mult            ....    1
 Number of Electrons    NEL             ....   44
 Basis Dimension        Dim             ....  222
 Nuclear Repulsion      ENuc            ....    143.6527980206 Eh

Convergence Acceleration:
 DIIS                   CNVDIIS         .... on
   Start iteration      DIISMaxIt       ....    12
   Startup error        DIISStart       ....  0.200000
   # of expansion vecs  DIISMaxEq       ....     5
   Bias factor          DIISBfac        ....   1.050
   Max. coefficient     DIISMaxC        ....  10.000
 Newton-Raphson         CNVNR           .... off
 SOSCF                  CNVSOSCF        .... on
   Start iteration      SOSCFMaxIt      ....   150
   Startup grad/error   SOSCFStart      ....  0.003300
 Level Shifting         CNVShift        .... on
   Level shift para.    LevelShift      ....    0.2500
   Turn off err/grad.   ShiftErr        ....    0.0010
 Zerner damping         CNVZerner       .... off
 Static damping         CNVDamp         .... on
   Fraction old density DampFac         ....    0.7000
   Max. Damping (<1)    DampMax         ....    0.9800
   Min. Damping (>=0)   DampMin         ....    0.0000
   Turn off err/grad.   DampErr         ....    0.1000
 Fernandez-Rico         CNVRico         .... off

SCF Procedure:
 Maximum # iterations   MaxIter         ....   125
 SCF integral mode      SCFMode         .... Direct
   Integral package                     .... LIBINT
 Reset frequency        DirectResetFreq ....    20
 Integral Threshold     Thresh          ....  2.500e-11 Eh
 Primitive CutOff       TCut            ....  2.500e-12 Eh

Convergence Tolerance:
 Convergence Check Mode ConvCheckMode   .... Total+1el-Energy
 Convergence forced     ConvForced      .... 1
 Energy Change          TolE            ....  1.000e-08 Eh
 1-El. energy change                    ....  1.000e-05 Eh
 Orbital Gradient       TolG            ....  1.000e-05
 Orbital Rotation angle TolX            ....  1.000e-05
 DIIS Error             TolErr          ....  5.000e-07


Diagonalization of the overlap matrix:
Smallest eigenvalue                        ... 1.571e-04
Time for diagonalization                   ...    0.007 sec
Threshold for overlap eigenvalues          ... 1.000e-08
Number of eigenvalues below threshold      ... 0
Time for construction of square roots      ...    0.004 sec
Total time needed                          ...    0.011 sec

-------------------
DFT GRID GENERATION
-------------------

General Integration Accuracy     IntAcc      ...  4.340
Radial Grid Type                 RadialGrid  ... Gauss-Chebyshev
Angular Grid (max. acc.)         AngularGrid ... Lebedev-110
Angular grid pruning method      GridPruning ... 3 (G Style)
Weight generation scheme         WeightScheme... Becke
Basis function cutoff            BFCut       ...    1.0000e-11
Integration weight cutoff        WCut        ...    1.0000e-14
Grids for H and He will be reduced by one unit

# of grid points (after initial pruning)     ...  14792 (   0.0 sec)
# of grid points (after weights+screening)   ...  14300 (   0.0 sec)
nearest neighbour list constructed           ...    0.0 sec
Grid point re-assignment to atoms done       ...    0.0 sec
Grid point division into batches done        ...    0.0 sec
Reduced shell lists constructed in    0.0 sec

Total number of grid points                  ...    14300
Total number of batches                      ...      228
Average number of points per batch           ...       62
Average number of grid points per atom       ...     1192
Average number of shells per batch           ...    37.44 (41.60%)
Average number of basis functions per batch  ...    92.62 (41.72%)
Average number of large shells per batch     ...    31.51 (84.18%)
Average number of large basis fcns per batch ...    77.36 (83.53%)
Maximum spatial batch extension              ...  22.47, 20.06, 20.05 au
Average spatial batch extension              ...   0.72,  0.75,  0.76 au

Time for grid setup =    0.035 sec

------------------------------
INITIAL GUESS: MODEL POTENTIAL
------------------------------
Loading Hartree-Fock densities                     ... done
Calculating cut-offs                               ... done
Setting up the integral package                    ... done
Initializing the effective Hamiltonian             ... done
Starting the Coulomb interaction                   ... done (   0.0 sec)
Reading the grid                                   ... done
Mapping shells                                     ... done
Starting the XC term evaluation                    ... done (   0.0 sec)
Transforming the Hamiltonian                       ... done (   0.0 sec)
Diagonalizing the Hamiltonian                      ... done (   0.0 sec)
Back transforming the eigenvectors                 ... done (   0.0 sec)
Now organizing SCF variables                       ... done
                      ------------------
                      INITIAL GUESS DONE (   0.1 sec)
                      ------------------
--------------
SCF ITERATIONS
--------------
ITER       Energy         Delta-E        Max-DP      RMS-DP      [F,P]     Damp
               ***  Starting incremental Fock matrix formation  ***
  0   -263.6146609857   0.000000000000 0.03775402  0.00106163  0.2814635 0.7000
  1   -263.7349143966  -0.120253410966 0.02703946  0.00084273  0.1878637 0.7000
                               ***Turning on DIIS***
  2   -263.8050495666  -0.070135169927 0.01611579  0.00054657  0.1421029 0.7000
  3   -264.4389465481  -0.633896981572 0.00988033  0.00034727  0.1055929 0.7000
  4   -264.4071441719   0.031802376229 0.02704029  0.00084732  0.0744267 0.0000
  5   -263.9684896284   0.438654543508 0.00621265  0.00015293  0.0060593 0.0000
                      *** Initiating the SOSCF procedure ***
                           *** Shutting down DIIS ***
                      *** Re-Reading the Fockian *** 
                      *** Removing any level shift *** 
ITER      Energy       Delta-E        Grad      Rot      Max-DP    RMS-DP
  6   -263.95630527   0.0121843609  0.001181  0.001181  0.004274  0.000096
               *** Restarting incremental Fock matrix formation ***
  7   -263.94930330   0.0070019635  0.000425  0.000623  0.003012  0.000068
  8   -263.94931583  -0.0000125229  0.000327  0.000497  0.002500  0.000057
  9   -263.94931849  -0.0000026662  0.000113  0.000136  0.000770  0.000017
 10   -263.94931897  -0.0000004813  0.000012  0.000010  0.000066  0.000001
 11   -263.94931898  -0.0000000056  0.000005  0.000008  0.000017  0.000000
                  ***Gradient check signals convergence***
              ***Rediagonalizing the Fockian in SOSCF/NRSCF***

               *****************************************************
               *                     SUCCESS                       *
               *           SCF CONVERGED AFTER  12 CYCLES          *
               *****************************************************


----------------
TOTAL SCF ENERGY
----------------

Total Energy       :         -263.94931898 Eh           -7182.42612 eV

Components:
Nuclear Repulsion  :          143.65279802 Eh            3908.99136 eV
Electronic Energy  :         -407.60211700 Eh          -11091.41748 eV
One Electron Energy:         -639.87641613 Eh          -17411.92249 eV
Two Electron Energy:          232.27429913 Eh            6320.50501 eV

Virial components:
Potential Energy   :         -527.36595542 Eh          -14350.35721 eV
Kinetic Energy     :          263.41663644 Eh            7167.93109 eV
Virial Ratio       :            2.00202221


---------------
SCF CONVERGENCE
---------------

  Last Energy change         ...   -1.1162e-09  Tolerance :   1.0000e-08
  Last MAX-Density change    ...    8.0552e-06  Tolerance :   1.0000e-07
  Last RMS-Density change    ...    1.6310e-07  Tolerance :   5.0000e-09
  Last Orbital Gradient      ...    1.0750e-06  Tolerance :   1.0000e-05
  Last Orbital Rotation      ...    2.1854e-06  Tolerance :   1.0000e-05

             **** THE GBW FILE WAS UPDATED (12mecn.remya.etal.2.mol1,10-orca.engrad-mp2.def2tzvp.frozencore.gbw) ****
             **** DENSITY FILE WAS UPDATED (12mecn.remya.etal.2.mol1,10-orca.engrad-mp2.def2tzvp.frozencore.scfp) ****
             **** ENERGY FILE WAS UPDATED (12mecn.remya.etal.2.mol1,10-orca.engrad-mp2.def2tzvp.frozencore.en.tmp) ****
             **** THE GBW FILE WAS UPDATED (12mecn.remya.etal.2.mol1,10-orca.engrad-mp2.def2tzvp.frozencore.gbw) ****
             **** DENSITY FILE WAS UPDATED (12mecn.remya.etal.2.mol1,10-orca.engrad-mp2.def2tzvp.frozencore.scfp) ****
----------------
ORBITAL ENERGIES
----------------

  NO   OCC          E(Eh)            E(eV) 
   0   2.0000     -15.573368      -423.7729 
   1   2.0000     -15.573204      -423.7684 
   2   2.0000     -11.284651      -307.0710 
   3   2.0000     -11.284565      -307.0686 
   4   2.0000     -11.280458      -306.9569 
   5   2.0000     -11.280296      -306.9525 
   6   2.0000      -1.214595       -33.0508 
   7   2.0000      -1.214538       -33.0493 
   8   2.0000      -1.044119       -28.4119 
   9   2.0000      -1.043989       -28.4084 
  10   2.0000      -0.700048       -19.0493 
  11   2.0000      -0.699808       -19.0428 
  12   2.0000      -0.634059       -17.2536 
  13   2.0000      -0.633993       -17.2518 
  14   2.0000      -0.629842       -17.1389 
  15   2.0000      -0.629627       -17.1330 
  16   2.0000      -0.556161       -15.1339 
  17   2.0000      -0.556030       -15.1303 
  18   2.0000      -0.457940       -12.4612 
  19   2.0000      -0.457890       -12.4598 
  20   2.0000      -0.457419       -12.4470 
  21   2.0000      -0.457316       -12.4442 
  22   0.0000       0.119581         3.2540 
  23   0.0000       0.119692         3.2570 
  24   0.0000       0.171246         4.6598 
  25   0.0000       0.171466         4.6658 
  26   0.0000       0.172035         4.6813 
  27   0.0000       0.172116         4.6835 
  28   0.0000       0.202596         5.5129 
  29   0.0000       0.202753         5.5172 
  30   0.0000       0.224391         6.1060 
  31   0.0000       0.224462         6.1079 
  32   0.0000       0.225469         6.1353 
  33   0.0000       0.225612         6.1392 
  34   0.0000       0.263913         7.1814 
  35   0.0000       0.263969         7.1830 
  36   0.0000       0.319909         8.7052 
  37   0.0000       0.320065         8.7094 
  38   0.0000       0.323169         8.7939 
  39   0.0000       0.323443         8.8013 
  40   0.0000       0.381352        10.3771 
  41   0.0000       0.381433        10.3793 
  42   0.0000       0.381637        10.3849 
  43   0.0000       0.381738        10.3876 
  44   0.0000       0.408244        11.1089 
  45   0.0000       0.408389        11.1128 
  46   0.0000       0.496409        13.5080 
  47   0.0000       0.496511        13.5107 
  48   0.0000       0.529850        14.4180 
  49   0.0000       0.529935        14.4203 
  50   0.0000       0.588486        16.0135 
  51   0.0000       0.588543        16.0151 
  52   0.0000       0.598787        16.2938 
  53   0.0000       0.598823        16.2948 
  54   0.0000       0.600844        16.3498 
  55   0.0000       0.601043        16.3552 
  56   0.0000       0.658430        17.9168 
  57   0.0000       0.658498        17.9186 
  58   0.0000       0.659843        17.9553 
  59   0.0000       0.660088        17.9619 
  60   0.0000       0.703841        19.1525 
  61   0.0000       0.703867        19.1532 
  62   0.0000       0.808090        21.9893 
  63   0.0000       0.808093        21.9893 
  64   0.0000       0.812636        22.1129 
  65   0.0000       0.812737        22.1157 
  66   0.0000       0.814896        22.1745 
  67   0.0000       0.815289        22.1852 
  68   0.0000       0.918641        24.9975 
  69   0.0000       0.918754        25.0006 
  70   0.0000       0.919478        25.0203 
  71   0.0000       0.919831        25.0299 
  72   0.0000       1.031662        28.0729 
  73   0.0000       1.031899        28.0794 
  74   0.0000       1.122257        30.5382 
  75   0.0000       1.122386        30.5417 
  76   0.0000       1.124404        30.5966 
  77   0.0000       1.124595        30.6018 
  78   0.0000       1.322645        35.9910 
  79   0.0000       1.322750        35.9939 
  80   0.0000       1.419957        38.6390 
  81   0.0000       1.421049        38.6687 
  82   0.0000       1.423060        38.7234 
  83   0.0000       1.424089        38.7514 
  84   0.0000       1.448737        39.4221 
  85   0.0000       1.449067        39.4311 
  86   0.0000       1.469160        39.9779 
  87   0.0000       1.469871        39.9972 
  88   0.0000       1.474042        40.1107 
  89   0.0000       1.475170        40.1414 
  90   0.0000       1.509495        41.0755 
  91   0.0000       1.509640        41.0794 
  92   0.0000       1.698364        46.2148 
  93   0.0000       1.698451        46.2172 
  94   0.0000       1.698674        46.2233 
  95   0.0000       1.698696        46.2239 
  96   0.0000       1.737043        47.2673 
  97   0.0000       1.737064        47.2679 
  98   0.0000       1.746912        47.5359 
  99   0.0000       1.746959        47.5372 
 100   0.0000       1.797931        48.9242 
 101   0.0000       1.798053        48.9275 
 102   0.0000       1.804308        49.0977 
 103   0.0000       1.805009        49.1168 
 104   0.0000       1.934751        52.6472 
 105   0.0000       1.934847        52.6499 
 106   0.0000       1.935999        52.6812 
 107   0.0000       1.936163        52.6857 
 108   0.0000       1.969138        53.5830 
 109   0.0000       1.969276        53.5867 
 110   0.0000       2.224849        60.5412 
 111   0.0000       2.225001        60.5454 
 112   0.0000       2.237683        60.8904 
 113   0.0000       2.238492        60.9125 
 114   0.0000       2.247954        61.1699 
 115   0.0000       2.249063        61.2001 
 116   0.0000       2.341458        63.7143 
 117   0.0000       2.341469        63.7146 
 118   0.0000       2.544556        69.2409 
 119   0.0000       2.544886        69.2499 
 120   0.0000       2.554072        69.4998 
 121   0.0000       2.554120        69.5012 
 122   0.0000       2.577116        70.1269 
 123   0.0000       2.577141        70.1276 
 124   0.0000       2.615857        71.1811 
 125   0.0000       2.616175        71.1897 
 126   0.0000       2.629485        71.5519 
 127   0.0000       2.629951        71.5646 
 128   0.0000       2.703403        73.5633 
 129   0.0000       2.703820        73.5747 
 130   0.0000       2.734849        74.4190 
 131   0.0000       2.735187        74.4282 
 132   0.0000       2.747698        74.7687 
 133   0.0000       2.748182        74.7818 
 134   0.0000       2.911947        79.2381 
 135   0.0000       2.912039        79.2406 
 136   0.0000       2.913094        79.2693 
 137   0.0000       2.913168        79.2713 
 138   0.0000       2.945775        80.1586 
 139   0.0000       2.948610        80.2357 
 140   0.0000       2.953820        80.3775 
 141   0.0000       2.956975        80.4634 
 142   0.0000       3.023170        82.2647 
 143   0.0000       3.023344        82.2694 
 144   0.0000       3.085566        83.9625 
 145   0.0000       3.086513        83.9883 
 146   0.0000       3.095674        84.2376 
 147   0.0000       3.096908        84.2711 
 148   0.0000       3.234901        88.0261 
 149   0.0000       3.235306        88.0372 
 150   0.0000       3.243992        88.2735 
 151   0.0000       3.244027        88.2745 
 152   0.0000       3.245865        88.3245 
 153   0.0000       3.246677        88.3466 
 154   0.0000       3.330501        90.6275 
 155   0.0000       3.331952        90.6670 
 156   0.0000       3.334608        90.7393 
 157   0.0000       3.336551        90.7922 
 158   0.0000       3.441574        93.6500 
 159   0.0000       3.441628        93.6515 
 160   0.0000       3.445950        93.7691 
 161   0.0000       3.446686        93.7891 
 162   0.0000       3.486425        94.8704 
 163   0.0000       3.486639        94.8763 
 164   0.0000       3.635062        98.9151 
 165   0.0000       3.635101        98.9161 
 166   0.0000       3.654883        99.4544 
 167   0.0000       3.655386        99.4681 
 168   0.0000       3.799215       103.3819 
 169   0.0000       3.800113       103.4063 
 170   0.0000       3.805883       103.5633 
 171   0.0000       3.806977       103.5931 
 172   0.0000       3.928282       106.8940 
 173   0.0000       3.928511       106.9002 
 174   0.0000       3.949488       107.4710 
 175   0.0000       3.949850       107.4809 
 176   0.0000       3.953378       107.5769 
 177   0.0000       3.953674       107.5849 
 178   0.0000       4.241317       115.4121 
 179   0.0000       4.241395       115.4142 
 180   0.0000       4.253945       115.7557 
 181   0.0000       4.254380       115.7676 
 182   0.0000       4.341738       118.1447 
 183   0.0000       4.341910       118.1494 
 184   0.0000       4.346536       118.2753 
 185   0.0000       4.346704       118.2798 
 186   0.0000       4.564097       124.1954 
 187   0.0000       4.564464       124.2054 
 188   0.0000       4.738321       128.9363 
 189   0.0000       4.739446       128.9669 
 190   0.0000       4.758188       129.4769 
 191   0.0000       4.759459       129.5115 
 192   0.0000       4.838266       131.6559 
 193   0.0000       4.838589       131.6647 
 194   0.0000       4.960347       134.9779 
 195   0.0000       4.960576       134.9841 
 196   0.0000       4.961313       135.0042 
 197   0.0000       4.961707       135.0149 
 198   0.0000       5.066351       137.8624 
 199   0.0000       5.066764       137.8736 
 200   0.0000       5.068213       137.9131 
 201   0.0000       5.068357       137.9170 
 202   0.0000       5.198405       141.4558 
 203   0.0000       5.198641       141.4622 
 204   0.0000       5.556930       151.2118 
 205   0.0000       5.557040       151.2148 
 206   0.0000       5.557729       151.2335 
 207   0.0000       5.558018       151.2413 
 208   0.0000       6.021944       163.8654 
 209   0.0000       6.021950       163.8656 
 210   0.0000       6.086409       165.6196 
 211   0.0000       6.086658       165.6264 
 212   0.0000       6.087158       165.6400 
 213   0.0000       6.087692       165.6545 
 214   0.0000       6.463539       175.8818 
 215   0.0000       6.464101       175.8971 
 216   0.0000      23.471363       638.6883 
 217   0.0000      23.471736       638.6984 
 218   0.0000      24.381786       663.4621 
 219   0.0000      24.381965       663.4670 
 220   0.0000      33.391617       908.6321 
 221   0.0000      33.391862       908.6388 

                    ********************************
                    * MULLIKEN POPULATION ANALYSIS *
                    ********************************

-----------------------
MULLIKEN ATOMIC CHARGES
-----------------------
   0 C :   -0.165049
   1 H :    0.156443
   2 H :    0.157122
   3 H :    0.155699
   4 C :   -0.105635
   5 N :   -0.198580
   6 C :   -0.165009
   7 H :    0.156618
   8 H :    0.155449
   9 H :    0.157155
  10 C :   -0.105764
  11 N :   -0.198449
Sum of atomic charges:    0.0000000

--------------------------------
MULLIKEN REDUCED ORBITAL CHARGES
--------------------------------
  0 C s       :     3.149126  s :     3.149126
      pz      :     0.793132  p :     2.950576
      px      :     1.080331
      py      :     1.077113
      dz2     :     0.017936  d :     0.061876
      dxz     :     0.011041
      dyz     :     0.011449
      dx2y2   :     0.010645
      dxy     :     0.010804
      f0      :     0.001721  f :     0.003471
      f+1     :     0.000202
      f-1     :     0.000201
      f+2     :     0.000047
      f-2     :     0.000077
      f+3     :     0.000493
      f-3     :     0.000730
  1 H s       :     0.821201  s :     0.821201
      pz      :     0.004839  p :     0.022356
      px      :     0.004150
      py      :     0.013367
  2 H s       :     0.820460  s :     0.820460
      pz      :     0.004743  p :     0.022418
      px      :     0.013058
      py      :     0.004616
  3 H s       :     0.821855  s :     0.821855
      pz      :     0.005014  p :     0.022446
      px      :     0.008863
      py      :     0.008569
  4 C s       :     3.234154  s :     3.234154
      pz      :     0.968874  p :     2.740298
      px      :     0.885091
      py      :     0.886332
      dz2     :     0.026519  d :     0.113843
      dxz     :     0.043491
      dyz     :     0.043259
      dx2y2   :     0.000307
      dxy     :     0.000266
      f0      :     0.004118  f :     0.017341
      f+1     :     0.006577
      f-1     :     0.006577
      f+2     :     0.000037
      f-2     :     0.000031
      f+3     :     0.000000
      f-3     :     0.000000
  5 N s       :     3.716293  s :     3.716293
      pz      :     1.287298  p :     3.424294
      px      :     1.069261
      py      :     1.067735
      dz2     :     0.011678  d :     0.055027
      dxz     :     0.021661
      dyz     :     0.021678
      dx2y2   :     0.000005
      dxy     :     0.000005
      f0      :     0.000623  f :     0.002966
      f+1     :     0.001170
      f-1     :     0.001172
      f+2     :     0.000001
      f-2     :     0.000001
      f+3     :    -0.000000
      f-3     :    -0.000000
  6 C s       :     3.149285  s :     3.149285
      pz      :     0.794222  p :     2.950384
      px      :     1.079825
      py      :     1.076337
      dz2     :     0.017940  d :     0.061868
      dxz     :     0.010192
      dyz     :     0.012250
      dx2y2   :     0.010344
      dxy     :     0.011143
      f0      :     0.001683  f :     0.003472
      f+1     :     0.000218
      f-1     :     0.000219
      f+2     :     0.000061
      f-2     :     0.000075
      f+3     :     0.000516
      f-3     :     0.000699
  7 H s       :     0.821022  s :     0.821022
      pz      :     0.005313  p :     0.022360
      px      :     0.004127
      py      :     0.012920
  8 H s       :     0.822106  s :     0.822106
      pz      :     0.004870  p :     0.022446
      px      :     0.008628
      py      :     0.008948
  9 H s       :     0.820434  s :     0.820434
      pz      :     0.004433  p :     0.022412
      px      :     0.013286
      py      :     0.004693
 10 C s       :     3.234213  s :     3.234213
      pz      :     0.968795  p :     2.740370
      px      :     0.885115
      py      :     0.886460
      dz2     :     0.026649  d :     0.113840
      dxz     :     0.042955
      dyz     :     0.043229
      dx2y2   :     0.000392
      dxy     :     0.000615
      f0      :     0.004196  f :     0.017341
      f+1     :     0.006465
      f-1     :     0.006456
      f+2     :     0.000107
      f-2     :     0.000117
      f+3     :     0.000000
      f-3     :     0.000001
 11 N s       :     3.716165  s :     3.716165
      pz      :     1.286328  p :     3.424285
      px      :     1.069646
      py      :     1.068311
      dz2     :     0.011823  d :     0.055031
      dxz     :     0.021532
      dyz     :     0.021444
      dx2y2   :     0.000118
      dxy     :     0.000113
      f0      :     0.000639  f :     0.002967
      f+1     :     0.001154
      f-1     :     0.001142
      f+2     :     0.000016
      f-2     :     0.000015
      f+3     :     0.000000
      f-3     :     0.000000


                     *******************************
                     * LOEWDIN POPULATION ANALYSIS *
                     *******************************

----------------------
LOEWDIN ATOMIC CHARGES
----------------------
   0 C :   -0.244561
   1 H :    0.144763
   2 H :    0.144948
   3 H :    0.143298
   4 C :   -0.199179
   5 N :    0.010732
   6 C :   -0.244516
   7 H :    0.144764
   8 H :    0.143107
   9 H :    0.145170
  10 C :   -0.199282
  11 N :    0.010756

-------------------------------
LOEWDIN REDUCED ORBITAL CHARGES
-------------------------------
  0 C s       :     2.813965  s :     2.813965
      pz      :     1.025097  p :     3.143004
      px      :     1.060388
      py      :     1.057519
      dz2     :     0.077916  d :     0.262164
      dxz     :     0.060490
      dyz     :     0.062156
      dx2y2   :     0.030756
      dxy     :     0.030846
      f0      :     0.007389  f :     0.025428
      f+1     :     0.005208
      f-1     :     0.005133
      f+2     :     0.002100
      f-2     :     0.002317
      f+3     :     0.001323
      f-3     :     0.001959
  1 H s       :     0.794605  s :     0.794605
      pz      :     0.012648  p :     0.060633
      px      :     0.013302
      py      :     0.034682
  2 H s       :     0.794260  s :     0.794260
      pz      :     0.012450  p :     0.060792
      px      :     0.034006
      py      :     0.014336
  3 H s       :     0.795660  s :     0.795660
      pz      :     0.013017  p :     0.061043
      px      :     0.024433
      py      :     0.023592
  4 C s       :     2.839000  s :     2.839000
      pz      :     1.192576  p :     2.851792
      px      :     0.829394
      py      :     0.829822
      dz2     :     0.154290  d :     0.449622
      dxz     :     0.147588
      dyz     :     0.147080
      dx2y2   :     0.000378
      dxy     :     0.000286
      f0      :     0.023074  f :     0.058765
      f+1     :     0.017790
      f-1     :     0.017772
      f+2     :     0.000076
      f-2     :     0.000053
      f+3     :     0.000000
      f-3     :     0.000001
  5 N s       :     3.314612  s :     3.314612
      pz      :     1.495365  p :     3.549110
      px      :     1.027451
      py      :     1.026294
      dz2     :     0.045876  d :     0.111211
      dxz     :     0.032630
      dyz     :     0.032685
      dx2y2   :     0.000010
      dxy     :     0.000010
      f0      :     0.006227  f :     0.014336
      f+1     :     0.004048
      f-1     :     0.004054
      f+2     :     0.000003
      f-2     :     0.000003
      f+3     :     0.000000
      f-3     :     0.000000
  6 C s       :     2.814033  s :     2.814033
      pz      :     1.025286  p :     3.142947
      px      :     1.060307
      py      :     1.057353
      dz2     :     0.077793  d :     0.262110
      dxz     :     0.056939
      dyz     :     0.065407
      dx2y2   :     0.029672
      dxy     :     0.032300
      f0      :     0.007336  f :     0.025425
      f+1     :     0.005490
      f-1     :     0.004851
      f+2     :     0.002246
      f-2     :     0.002200
      f+3     :     0.001405
      f-3     :     0.001897
  7 H s       :     0.794578  s :     0.794578
      pz      :     0.013606  p :     0.060659
      px      :     0.013265
      py      :     0.033788
  8 H s       :     0.795853  s :     0.795853
      pz      :     0.012735  p :     0.061040
      px      :     0.023946
      py      :     0.024359
  9 H s       :     0.794069  s :     0.794069
      pz      :     0.011873  p :     0.060760
      px      :     0.034440
      py      :     0.014448
 10 C s       :     2.839011  s :     2.839011
      pz      :     1.190940  p :     2.851866
      px      :     0.829661
      py      :     0.831265
      dz2     :     0.154117  d :     0.449630
      dxz     :     0.146380
      dyz     :     0.147084
      dx2y2   :     0.000803
      dxy     :     0.001246
      f0      :     0.022924  f :     0.058775
      f+1     :     0.017545
      f-1     :     0.017747
      f+2     :     0.000270
      f-2     :     0.000287
      f+3     :     0.000001
      f-3     :     0.000002
 11 N s       :     3.314525  s :     3.314525
      pz      :     1.493138  p :     3.549143
      px      :     1.027984
      py      :     1.028021
      dz2     :     0.045667  d :     0.111232
      dxz     :     0.032500
      dyz     :     0.032712
      dx2y2   :     0.000180
      dxy     :     0.000173
      f0      :     0.006163  f :     0.014344
      f+1     :     0.004010
      f-1     :     0.004061
      f+2     :     0.000056
      f-2     :     0.000054
      f+3     :     0.000000
      f-3     :     0.000000


                      *****************************
                      * MAYER POPULATION ANALYSIS *
                      *****************************

  NA   - Mulliken gross atomic population
  ZA   - Total nuclear charge
  QA   - Mulliken gross atomic charge
  VA   - Mayer's total valence
  BVA  - Mayer's bonded valence
  FA   - Mayer's free valence

  ATOM       NA         ZA         QA         VA         BVA        FA
  0 C      6.1650     6.0000    -0.1650     3.8062     3.8062     0.0000
  1 H      0.8436     1.0000     0.1564     0.9619     0.9619    -0.0000
  2 H      0.8429     1.0000     0.1571     0.9617     0.9617    -0.0000
  3 H      0.8443     1.0000     0.1557     0.9620     0.9620     0.0000
  4 C      6.1056     6.0000    -0.1056     3.9214     3.9214    -0.0000
  5 N      7.1986     7.0000    -0.1986     3.0376     3.0376     0.0000
  6 C      6.1650     6.0000    -0.1650     3.8062     3.8062     0.0000
  7 H      0.8434     1.0000     0.1566     0.9619     0.9619    -0.0000
  8 H      0.8446     1.0000     0.1554     0.9620     0.9620    -0.0000
  9 H      0.8428     1.0000     0.1572     0.9617     0.9617     0.0000
 10 C      6.1058     6.0000    -0.1058     3.9213     3.9213     0.0000
 11 N      7.1984     7.0000    -0.1984     3.0377     3.0377     0.0000

  Mayer bond orders larger than 0.100000
B(  0-C ,  1-H ) :   0.9623 B(  0-C ,  2-H ) :   0.9629 B(  0-C ,  3-H ) :   0.9636 
B(  0-C ,  4-C ) :   0.9283 B(  4-C ,  5-N ) :   3.0121 B(  6-C ,  7-H ) :   0.9622 
B(  6-C ,  8-H ) :   0.9635 B(  6-C ,  9-H ) :   0.9630 B(  6-C , 10-C ) :   0.9283 
B( 10-C , 11-N ) :   3.0122 

-------
TIMINGS
-------

Total SCF time: 0 days 0 hours 0 min 8 sec 

Total time                  ....       8.399 sec
Sum of individual times     ....       8.162 sec  ( 97.2%)

Fock matrix formation       ....       7.894 sec  ( 94.0%)
Diagonalization             ....       0.050 sec  (  0.6%)
Density matrix formation    ....       0.007 sec  (  0.1%)
Population analysis         ....       0.016 sec  (  0.2%)
Initial guess               ....       0.116 sec  (  1.4%)
Orbital Transformation      ....       0.000 sec  (  0.0%)
Orbital Orthonormalization  ....       0.000 sec  (  0.0%)
DIIS solution               ....       0.018 sec  (  0.2%)
SOSCF solution              ....       0.026 sec  (  0.3%)


           ************************************************************
           *        Program running with 6 parallel MPI-processes     *
           *              working on a common directory               *
           ************************************************************

------------------------------------------------------------------------------
                                ORCA  MP2 
------------------------------------------------------------------------------

Freezing NCore=12 chemical core electrons
MP2 will be done in the AO integral direct mode
The Q1-step will be done using symmetric double matrices
Dimension of the basis                    ...  222
Memory devoted for MP2                    ... 8000 MB   
Memory needed for all in one shot         ...  127 MB
Number of MOs that can be treated together...  189      
MP2 density construction                  ... relaxed
The MP2 gradient is requested => amplitudes will be stored on disk
Total number of MOs              ...   16
Number of MOs treated per batch  ...    3 
Number of batches necessary      ...    1 
OPERATORS   0/  0 PASS   0
-----------------------------------------------
 MP2 CORRELATION ENERGY   :     -1.017215685 Eh
-----------------------------------------------


---------------------
MP2 DENSITY FORMATION
---------------------

Completing the external part of the density      ... done
Storing the unrelaxed density                    ... done

Calculating G(D)                                 ... done
Completing the Lagrangian                        ... done
Solving the Z-vector equations                   ... 

------------------------------------------------------------------------------
                           ORCA CP-SCF CALCULATION
------------------------------------------------------------------------------

Input orbitals are from        ... 12mecn.remya.etal.2.mol1,10-orca.engrad-mp2.def2tzvp.frozencore.gbw
Input Perturbation             ... 12mecn.remya.etal.2.mol1,10-orca.engrad-mp2.def2tzvp.frozencore.pin.tmp
Wavefunction output            ... 12mecn.remya.etal.2.mol1,10-orca.engrad-mp2.def2tzvp.frozencore.pout.tmp
Perturbation mode              ... Real perturbation (singlet)
Solver                         ... POPLE
Max. number of iterations      ... 128
Convergence tolerance          ... 1.000e-08
Integral handling              ... Direct
Number of perturbations        ... 1
Number of operators            ... 1
Orbital ranges used for CP-SCF:
 Operator 0:  Orbitals   0... 21  to  22...221
Variables per vector in CP-SCF ... 4400
Number of vectors sought       ... 1
     CP-SCF ITERATION   0: 
     CP-SCF ITERATION   1:      0.000910932946
     CP-SCF ITERATION   2:      0.000182960288
     CP-SCF ITERATION   3:      0.000003879954
     CP-SCF ITERATION   4:      0.000000239628
     CP-SCF ITERATION   5:      0.000000028543
     CP-SCF ITERATION   6:      0.000000003461
                                                 ... done
Finalizing the relaxed density                   ... done
Transforming P to the AO basis                   ... done
Storing the relaxed density                      ... done

------------------------------------
ENERGY WEIGHTED DENSITY FINALIZATION
------------------------------------

Gathering the parts of the W-matrix              ...                                                      done
Forming the Z-density                            ... done
Transforming Z to the AO basis                   ... done
Calculating G(Z)                                 ... done
Finalizing the W-matrix                          ...                                                      done
Transforming W to the AO basis and storing       ... done

                *********************************************
                * UNRELAXED MP2 DENSITY POPULATION ANALYSIS *
                *********************************************

------------------------------------------------------------------------------
                           ORCA POPULATION ANALYSIS
------------------------------------------------------------------------------
Input electron density              ... 12mecn.remya.etal.2.mol1,10-orca.engrad-mp2.def2tzvp.frozencore.pmp2ur
BaseName (.gbw .S,...)              ... 12mecn.remya.etal.2.mol1,10-orca.engrad-mp2.def2tzvp.frozencore

                    ********************************
                    * MULLIKEN POPULATION ANALYSIS *
                    ********************************

-----------------------
MULLIKEN ATOMIC CHARGES
-----------------------
   0 C :   -0.178271
   1 H :    0.159012
   2 H :    0.159689
   3 H :    0.158276
   4 C :   -0.114457
   5 N :   -0.184250
   6 C :   -0.178227
   7 H :    0.159187
   8 H :    0.158028
   9 H :    0.159720
  10 C :   -0.114583
  11 N :   -0.184125
Sum of atomic charges:    0.0000000

--------------------------------
MULLIKEN REDUCED ORBITAL CHARGES
--------------------------------
  0 C s       :     3.147499  s :     3.147499
      pz      :     0.791952  p :     2.936038
      px      :     1.073621
      py      :     1.070466
      dz2     :     0.020406  d :     0.087399
      dxz     :     0.017123
      dyz     :     0.017527
      dx2y2   :     0.016089
      dxy     :     0.016254
      f0      :     0.002116  f :     0.007335
      f+1     :     0.000869
      f-1     :     0.000873
      f+2     :     0.000589
      f-2     :     0.000616
      f+3     :     0.001029
      f-3     :     0.001243
  1 H s       :     0.815823  s :     0.815823
      pz      :     0.005831  p :     0.025165
      px      :     0.005181
      py      :     0.014153
  2 H s       :     0.815079  s :     0.815079
      pz      :     0.005740  p :     0.025232
      px      :     0.013856
      py      :     0.005636
  3 H s       :     0.816460  s :     0.816460
      pz      :     0.006004  p :     0.025263
      px      :     0.009773
      py      :     0.009486
  4 C s       :     3.233588  s :     3.233588
      pz      :     0.960008  p :     2.731077
      px      :     0.884954
      py      :     0.886116
      dz2     :     0.028996  d :     0.129484
      dxz     :     0.045591
      dyz     :     0.045364
      dx2y2   :     0.004787
      dxy     :     0.004746
      f0      :     0.004582  f :     0.020308
      f+1     :     0.007018
      f-1     :     0.007019
      f+2     :     0.000592
      f-2     :     0.000586
      f+3     :     0.000255
      f-3     :     0.000255
  5 N s       :     3.703546  s :     3.703546
      pz      :     1.275007  p :     3.398062
      px      :     1.062255
      py      :     1.060800
      dz2     :     0.015865  d :     0.076975
      dxz     :     0.025678
      dyz     :     0.025691
      dx2y2   :     0.004870
      dxy     :     0.004870
      f0      :     0.001049  f :     0.005667
      f+1     :     0.001616
      f-1     :     0.001617
      f+2     :     0.000416
      f-2     :     0.000416
      f+3     :     0.000277
      f-3     :     0.000277
  6 C s       :     3.147655  s :     3.147655
      pz      :     0.793022  p :     2.935850
      px      :     1.073122
      py      :     1.069707
      dz2     :     0.020448  d :     0.087387
      dxz     :     0.016309
      dyz     :     0.018243
      dx2y2   :     0.015811
      dxy     :     0.016575
      f0      :     0.002085  f :     0.007335
      f+1     :     0.000877
      f-1     :     0.000889
      f+2     :     0.000601
      f-2     :     0.000618
      f+3     :     0.001050
      f-3     :     0.001215
  7 H s       :     0.815645  s :     0.815645
      pz      :     0.006290  p :     0.025168
      px      :     0.005158
      py      :     0.013719
  8 H s       :     0.816708  s :     0.816708
      pz      :     0.005864  p :     0.025264
      px      :     0.009546
      py      :     0.009854
  9 H s       :     0.815053  s :     0.815053
      pz      :     0.005439  p :     0.025226
      px      :     0.014078
      py      :     0.005710
 10 C s       :     3.233645  s :     3.233645
      pz      :     0.959952  p :     2.731146
      px      :     0.884974
      py      :     0.886220
      dz2     :     0.029123  d :     0.129484
      dxz     :     0.045072
      dyz     :     0.045347
      dx2y2   :     0.004862
      dxy     :     0.005080
      f0      :     0.004659  f :     0.020308
      f+1     :     0.006908
      f-1     :     0.006900
      f+2     :     0.000658
      f-2     :     0.000669
      f+3     :     0.000257
      f-3     :     0.000258
 11 N s       :     3.703421  s :     3.703421
      pz      :     1.274063  p :     3.398057
      px      :     1.062626
      py      :     1.061369
      dz2     :     0.016008  d :     0.076979
      dxz     :     0.025555
      dyz     :     0.025463
      dx2y2   :     0.004978
      dxy     :     0.004974
      f0      :     0.001067  f :     0.005668
      f+1     :     0.001599
      f-1     :     0.001587
      f+2     :     0.000430
      f-2     :     0.000429
      f+3     :     0.000278
      f-3     :     0.000278


                     *******************************
                     * LOEWDIN POPULATION ANALYSIS *
                     *******************************

----------------------
LOEWDIN ATOMIC CHARGES
----------------------
   0 C :   -0.252640
   1 H :    0.146438
   2 H :    0.146611
   3 H :    0.144972
   4 C :   -0.204385
   5 N :    0.019005
   6 C :   -0.252593
   7 H :    0.146441
   8 H :    0.144784
   9 H :    0.146830
  10 C :   -0.204487
  11 N :    0.019026

-------------------------------
LOEWDIN REDUCED ORBITAL CHARGES
-------------------------------
  0 C s       :     2.812155  s :     2.812155
      pz      :     1.016600  p :     3.118554
      px      :     1.052393
      py      :     1.049561
      dz2     :     0.083095  d :     0.290482
      dxz     :     0.066352
      dyz     :     0.068012
      dx2y2   :     0.036464
      dxy     :     0.036560
      f0      :     0.008508  f :     0.031450
      f+1     :     0.006270
      f-1     :     0.006196
      f+2     :     0.002767
      f-2     :     0.002992
      f+3     :     0.002023
      f-3     :     0.002695
  1 H s       :     0.788205  s :     0.788205
      pz      :     0.014052  p :     0.065358
      px      :     0.014531
      py      :     0.036774
  2 H s       :     0.787858  s :     0.787858
      pz      :     0.013845  p :     0.065531
      px      :     0.036077
      py      :     0.015609
  3 H s       :     0.789245  s :     0.789245
      pz      :     0.014436  p :     0.065783
      px      :     0.026106
      py      :     0.025240
  4 C s       :     2.835713  s :     2.835713
      pz      :     1.180043  p :     2.833181
      px      :     0.826379
      py      :     0.826758
      dz2     :     0.161630  d :     0.469018
      dxz     :     0.149135
      dyz     :     0.148649
      dx2y2   :     0.004848
      dxy     :     0.004757
      f0      :     0.024684  f :     0.066473
      f+1     :     0.019915
      f-1     :     0.019897
      f+2     :     0.000744
      f-2     :     0.000722
      f+3     :     0.000256
      f-3     :     0.000256
  5 N s       :     3.306793  s :     3.306793
      pz      :     1.479481  p :     3.514665
      px      :     1.018145
      py      :     1.017039
      dz2     :     0.052709  d :     0.140776
      dxz     :     0.039210
      dyz     :     0.039257
      dx2y2   :     0.004800
      dxy     :     0.004800
      f0      :     0.007298  f :     0.018761
      f+1     :     0.005016
      f-1     :     0.005020
      f+2     :     0.000437
      f-2     :     0.000437
      f+3     :     0.000277
      f-3     :     0.000277
  6 C s       :     2.812223  s :     2.812223
      pz      :     1.016792  p :     3.118499
      px      :     1.052312
      py      :     1.049395
      dz2     :     0.082978  d :     0.290425
      dxz     :     0.062795
      dyz     :     0.071256
      dx2y2   :     0.035381
      dxy     :     0.038015
      f0      :     0.008453  f :     0.031446
      f+1     :     0.006552
      f-1     :     0.005908
      f+2     :     0.002919
      f-2     :     0.002876
      f+3     :     0.002109
      f-3     :     0.002629
  7 H s       :     0.788178  s :     0.788178
      pz      :     0.015054  p :     0.065381
      px      :     0.014492
      py      :     0.035836
  8 H s       :     0.789435  s :     0.789435
      pz      :     0.014141  p :     0.065781
      px      :     0.025598
      py      :     0.026043
  9 H s       :     0.787671  s :     0.787671
      pz      :     0.013238  p :     0.065499
      px      :     0.036532
      py      :     0.015729
 10 C s       :     2.835723  s :     2.835723
      pz      :     1.178446  p :     2.833252
      px      :     0.826643
      py      :     0.828164
      dz2     :     0.161381  d :     0.469028
      dxz     :     0.147973
      dyz     :     0.148710
      dx2y2   :     0.005269
      dxy     :     0.005695
      f0      :     0.024549  f :     0.066483
      f+1     :     0.019647
      f-1     :     0.019846
      f+2     :     0.000951
      f-2     :     0.000972
      f+3     :     0.000259
      f-3     :     0.000260
 11 N s       :     3.306707  s :     3.306707
      pz      :     1.477288  p :     3.514701
      px      :     1.018666
      py      :     1.018746
      dz2     :     0.052495  d :     0.140797
      dxz     :     0.039073
      dyz     :     0.039278
      dx2y2   :     0.004979
      dxy     :     0.004972
      f0      :     0.007231  f :     0.018770
      f+1     :     0.004971
      f-1     :     0.005023
      f+2     :     0.000496
      f-2     :     0.000493
      f+3     :     0.000278
      f-3     :     0.000278


                      *****************************
                      * MAYER POPULATION ANALYSIS *
                      *****************************

  NA   - Mulliken gross atomic population
  ZA   - Total nuclear charge
  QA   - Mulliken gross atomic charge
  VA   - Mayer's total valence
  BVA  - Mayer's bonded valence
  FA   - Mayer's free valence

  ATOM       NA         ZA         QA         VA         BVA        FA
  0 C      6.1783     6.0000    -0.1783     3.9236     3.6410     0.2826
  1 H      0.8410     1.0000     0.1590     0.9694     0.9219     0.0475
  2 H      0.8403     1.0000     0.1597     0.9692     0.9216     0.0476
  3 H      0.8417     1.0000     0.1583     0.9695     0.9220     0.0475
  4 C      6.1145     6.0000    -0.1145     4.0228     3.5845     0.4383
  5 N      7.1842     7.0000    -0.1842     3.2333     2.7473     0.4860
  6 C      6.1782     6.0000    -0.1782     3.9236     3.6410     0.2826
  7 H      0.8408     1.0000     0.1592     0.9694     0.9219     0.0475
  8 H      0.8420     1.0000     0.1580     0.9695     0.9220     0.0475
  9 H      0.8403     1.0000     0.1597     0.9692     0.9216     0.0476
 10 C      6.1146     6.0000    -0.1146     4.0227     3.5846     0.4382
 11 N      7.1841     7.0000    -0.1841     3.2334     2.7475     0.4859

  Mayer bond orders larger than 0.100000
B(  0-C ,  1-H ) :   0.9249 B(  0-C ,  2-H ) :   0.9255 B(  0-C ,  3-H ) :   0.9262 
B(  0-C ,  4-C ) :   0.8768 B(  4-C ,  5-N ) :   2.7286 B(  6-C ,  7-H ) :   0.9249 
B(  6-C ,  8-H ) :   0.9261 B(  6-C ,  9-H ) :   0.9256 B(  6-C , 10-C ) :   0.8768 
B( 10-C , 11-N ) :   2.7288 


                *******************************************
                * RELAXED MP2 DENSITY POPULATION ANALYSIS *
                *******************************************

------------------------------------------------------------------------------
                           ORCA POPULATION ANALYSIS
------------------------------------------------------------------------------
Input electron density              ... 12mecn.remya.etal.2.mol1,10-orca.engrad-mp2.def2tzvp.frozencore.pmp2re
BaseName (.gbw .S,...)              ... 12mecn.remya.etal.2.mol1,10-orca.engrad-mp2.def2tzvp.frozencore

                    ********************************
                    * MULLIKEN POPULATION ANALYSIS *
                    ********************************

-----------------------
MULLIKEN ATOMIC CHARGES
-----------------------
   0 C :   -0.278758
   1 H :    0.172410
   2 H :    0.173408
   3 H :    0.172071
   4 C :   -0.145591
   5 N :   -0.093540
   6 C :   -0.278686
   7 H :    0.172546
   8 H :    0.171860
   9 H :    0.173436
  10 C :   -0.145752
  11 N :   -0.093403
Sum of atomic charges:    0.0000000

--------------------------------
MULLIKEN REDUCED ORBITAL CHARGES
--------------------------------
  0 C s       :     3.183599  s :     3.183599
      pz      :     0.838649  p :     3.010955
      px      :     1.087545
      py      :     1.084761
      dz2     :     0.016114  d :     0.077123
      dxz     :     0.017336
      dyz     :     0.017671
      dx2y2   :     0.012931
      dxy     :     0.013072
      f0      :     0.001877  f :     0.007081
      f+1     :     0.000931
      f-1     :     0.000936
      f+2     :     0.000579
      f-2     :     0.000605
      f+3     :     0.000981
      f-3     :     0.001172
  1 H s       :     0.803564  s :     0.803564
      pz      :     0.005871  p :     0.024026
      px      :     0.005325
      py      :     0.012830
  2 H s       :     0.802503  s :     0.802503
      pz      :     0.005798  p :     0.024089
      px      :     0.012590
      py      :     0.005700
  3 H s       :     0.803812  s :     0.803812
      pz      :     0.006008  p :     0.024118
      px      :     0.009189
      py      :     0.008921
  4 C s       :     3.212489  s :     3.212489
      pz      :     0.994445  p :     2.809311
      px      :     0.907334
      py      :     0.907532
      dz2     :     0.024246  d :     0.104826
      dxz     :     0.035656
      dyz     :     0.035450
      dx2y2   :     0.004757
      dxy     :     0.004717
      f0      :     0.004403  f :     0.018964
      f+1     :     0.006440
      f-1     :     0.006443
      f+2     :     0.000588
      f-2     :     0.000581
      f+3     :     0.000255
      f-3     :     0.000255
  5 N s       :     3.644645  s :     3.644645
      pz      :     1.265464  p :     3.375706
      px      :     1.055488
      py      :     1.054754
      dz2     :     0.014865  d :     0.067995
      dxz     :     0.021697
      dyz     :     0.021694
      dx2y2   :     0.004869
      dxy     :     0.004869
      f0      :     0.000932  f :     0.005194
      f+1     :     0.001439
      f-1     :     0.001439
      f+2     :     0.000415
      f-2     :     0.000415
      f+3     :     0.000277
      f-3     :     0.000277
  6 C s       :     3.183740  s :     3.183740
      pz      :     0.839592  p :     3.010757
      px      :     1.087066
      py      :     1.084099
      dz2     :     0.016210  d :     0.077107
      dxz     :     0.016676
      dyz     :     0.018151
      dx2y2   :     0.012736
      dxy     :     0.013334
      f0      :     0.001853  f :     0.007081
      f+1     :     0.000935
      f-1     :     0.000948
      f+2     :     0.000591
      f-2     :     0.000608
      f+3     :     0.001000
      f-3     :     0.001147
  7 H s       :     0.803426  s :     0.803426
      pz      :     0.006253  p :     0.024028
      px      :     0.005306
      py      :     0.012469
  8 H s       :     0.804022  s :     0.804022
      pz      :     0.005891  p :     0.024118
      px      :     0.009001
      py      :     0.009227
  9 H s       :     0.802480  s :     0.802480
      pz      :     0.005550  p :     0.024084
      px      :     0.012773
      py      :     0.005761
 10 C s       :     3.212567  s :     3.212567
      pz      :     0.994261  p :     2.809383
      px      :     0.907485
      py      :     0.907637
      dz2     :     0.024296  d :     0.104839
      dxz     :     0.035219
      dyz     :     0.035544
      dx2y2   :     0.004792
      dxy     :     0.004987
      f0      :     0.004467  f :     0.018964
      f+1     :     0.006341
      f-1     :     0.006339
      f+2     :     0.000647
      f-2     :     0.000656
      f+3     :     0.000257
      f-3     :     0.000257
 11 N s       :     3.644499  s :     3.644499
      pz      :     1.264516  p :     3.375709
      px      :     1.055733
      py      :     1.055460
      dz2     :     0.014965  d :     0.068000
      dxz     :     0.021604
      dyz     :     0.021521
      dx2y2   :     0.004956
      dxy     :     0.004953
      f0      :     0.000948  f :     0.005195
      f+1     :     0.001424
      f-1     :     0.001412
      f+2     :     0.000427
      f-2     :     0.000427
      f+3     :     0.000278
      f-3     :     0.000278


                     *******************************
                     * LOEWDIN POPULATION ANALYSIS *
                     *******************************

----------------------
LOEWDIN ATOMIC CHARGES
----------------------
   0 C :   -0.283416
   1 H :    0.153140
   2 H :    0.153348
   3 H :    0.151682
   4 C :   -0.219599
   5 N :    0.044843
   6 C :   -0.283366
   7 H :    0.153130
   8 H :    0.151509
   9 H :    0.153569
  10 C :   -0.219696
  11 N :    0.044854

-------------------------------
LOEWDIN REDUCED ORBITAL CHARGES
-------------------------------
  0 C s       :     2.817046  s :     2.817046
      pz      :     1.034739  p :     3.155172
      px      :     1.061726
      py      :     1.058707
      dz2     :     0.075421  d :     0.279532
      dxz     :     0.067998
      dyz     :     0.069554
      dx2y2   :     0.033238
      dxy     :     0.033321
      f0      :     0.007998  f :     0.031666
      f+1     :     0.006707
      f-1     :     0.006628
      f+2     :     0.002750
      f-2     :     0.002974
      f+3     :     0.001979
      f-3     :     0.002631
  1 H s       :     0.781213  s :     0.781213
      pz      :     0.014568  p :     0.065647
      px      :     0.014966
      py      :     0.036112
  2 H s       :     0.780817  s :     0.780817
      pz      :     0.014379  p :     0.065835
      px      :     0.035473
      py      :     0.015982
  3 H s       :     0.782227  s :     0.782227
      pz      :     0.014932  p :     0.066092
      px      :     0.026011
      py      :     0.025148
  4 C s       :     2.841163  s :     2.841163
      pz      :     1.171126  p :     2.859163
      px      :     0.844099
      py      :     0.843938
      dz2     :     0.163805  d :     0.452813
      dxz     :     0.139986
      dyz     :     0.139530
      dx2y2   :     0.004787
      dxy     :     0.004704
      f0      :     0.025689  f :     0.066459
      f+1     :     0.019411
      f-1     :     0.019410
      f+2     :     0.000728
      f-2     :     0.000709
      f+3     :     0.000256
      f-3     :     0.000256
  5 N s       :     3.306940  s :     3.306940
      pz      :     1.466692  p :     3.492407
      px      :     1.013159
      py      :     1.012556
      dz2     :     0.053360  d :     0.136672
      dxz     :     0.036860
      dyz     :     0.036855
      dx2y2   :     0.004799
      dxy     :     0.004799
      f0      :     0.007393  f :     0.019137
      f+1     :     0.005159
      f-1     :     0.005157
      f+2     :     0.000437
      f-2     :     0.000437
      f+3     :     0.000277
      f-3     :     0.000277
  6 C s       :     2.817113  s :     2.817113
      pz      :     1.034910  p :     3.155126
      px      :     1.061671
      py      :     1.058545
      dz2     :     0.075411  d :     0.279465
      dxz     :     0.064589
      dyz     :     0.072496
      dx2y2   :     0.032253
      dxy     :     0.034715
      f0      :     0.007965  f :     0.031662
      f+1     :     0.006979
      f-1     :     0.006318
      f+2     :     0.002906
      f-2     :     0.002862
      f+3     :     0.002064
      f-3     :     0.002568
  7 H s       :     0.781202  s :     0.781202
      pz      :     0.015507  p :     0.065668
      px      :     0.014931
      py      :     0.035230
  8 H s       :     0.782399  s :     0.782399
      pz      :     0.014656  p :     0.066092
      px      :     0.025534
      py      :     0.025902
  9 H s       :     0.780628  s :     0.780628
      pz      :     0.013815  p :     0.065803
      px      :     0.035898
      py      :     0.016090
 10 C s       :     2.841171  s :     2.841171
      pz      :     1.169627  p :     2.859229
      px      :     0.844416
      py      :     0.845186
      dz2     :     0.163390  d :     0.452827
      dxz     :     0.138933
      dyz     :     0.139748
      dx2y2   :     0.005181
      dxy     :     0.005575
      f0      :     0.025514  f :     0.066468
      f+1     :     0.019170
      f-1     :     0.019382
      f+2     :     0.000936
      f-2     :     0.000947
      f+3     :     0.000259
      f-3     :     0.000260
 11 N s       :     3.306852  s :     3.306852
      pz      :     1.464536  p :     3.492453
      px      :     1.013590
      py      :     1.014328
      dz2     :     0.053103  d :     0.136694
      dxz     :     0.036749
      dyz     :     0.036917
      dx2y2   :     0.004965
      dxy     :     0.004960
      f0      :     0.007328  f :     0.019146
      f+1     :     0.005113
      f-1     :     0.005156
      f+2     :     0.000497
      f-2     :     0.000495
      f+3     :     0.000278
      f-3     :     0.000278


                      *****************************
                      * MAYER POPULATION ANALYSIS *
                      *****************************

  NA   - Mulliken gross atomic population
  ZA   - Total nuclear charge
  QA   - Mulliken gross atomic charge
  VA   - Mayer's total valence
  BVA  - Mayer's bonded valence
  FA   - Mayer's free valence

  ATOM       NA         ZA         QA         VA         BVA        FA
  0 C      6.2788     6.0000    -0.2788     3.9281     3.6466     0.2815
  1 H      0.8276     1.0000     0.1724     0.9636     0.9167     0.0469
  2 H      0.8266     1.0000     0.1734     0.9630     0.9161     0.0470
  3 H      0.8279     1.0000     0.1721     0.9633     0.9164     0.0469
  4 C      6.1456     6.0000    -0.1456     4.1469     3.7195     0.4274
  5 N      7.0935     7.0000    -0.0935     3.3476     2.8740     0.4736
  6 C      6.2787     6.0000    -0.2787     3.9281     3.6466     0.2815
  7 H      0.8275     1.0000     0.1725     0.9636     0.9167     0.0469
  8 H      0.8281     1.0000     0.1719     0.9634     0.9164     0.0469
  9 H      0.8266     1.0000     0.1734     0.9630     0.9160     0.0470
 10 C      6.1458     6.0000    -0.1458     4.1469     3.7195     0.4273
 11 N      7.0934     7.0000    -0.0934     3.3476     2.8741     0.4735

  Mayer bond orders larger than 0.100000
B(  0-C ,  1-H ) :   0.9158 B(  0-C ,  2-H ) :   0.9163 B(  0-C ,  3-H ) :   0.9170 
B(  0-C ,  4-C ) :   0.9014 B(  4-C ,  5-N ) :   2.8376 B(  6-C ,  7-H ) :   0.9158 
B(  6-C ,  8-H ) :   0.9169 B(  6-C ,  9-H ) :   0.9163 B(  6-C , 10-C ) :   0.9013 
B( 10-C , 11-N ) :   2.8378 


----------------------------------
MP2 DERIVATIVE INTEGRAL GENERATION
----------------------------------


Input Wavefunction Amplitudes       ... 12mecn.remya.etal.2.mol1,10-orca.engrad-mp2.def2tzvp.frozencore.mp2tsaa.tmp
Input Correlated Electron Density   ... 12mecn.remya.etal.2.mol1,10-orca.engrad-mp2.def2tzvp.frozencore.pmp2re
Input Energy Weighted Density       ... 12mecn.remya.etal.2.mol1,10-orca.engrad-mp2.def2tzvp.frozencore.wmp2.tmp
Input SCF Electron Density          ... 12mecn.remya.etal.2.mol1,10-orca.engrad-mp2.def2tzvp.frozencore.scfp

One-Electron Terms    ...
                        ... One-Electron Terms done
Prescreening matrices              ... done

Batch handling in the gradient evaluation:
Memory available                      ... 8000.0 MB
Memory per occupied orbital in Q2     ...    6.0 MB
Memory per occupied orbital in Q3     ...    0.1 MB
Total memory requirement per |i>      ...    6.1 MB
Max. Number of orbitals possible      ...   1311
Number of orbitals treated per batch  ...     16
Number of batches to be done          ...      1
Batch   0: i=    6 ...    21

---------------------------------------
MP2 TOTAL ENERGY:     -264.966534666 Eh
---------------------------------------

The final MP2 gradient
  0:  -0.00186846   0.00086020  -0.00717998
  1:  -0.00128788   0.00397356  -0.00132939
  2:   0.00217249  -0.00277315  -0.00105499
  3:  -0.00002360  -0.00231750   0.00005329
  4:   0.00111470   0.00007412   0.00664448
  5:  -0.00017818   0.00017794   0.00287133
  6:   0.00215617  -0.00162754   0.00687549
  7:   0.00133464  -0.00400819   0.00110764
  8:  -0.00006658   0.00238819   0.00007818
  9:  -0.00226631   0.00282568   0.00137836
 10:  -0.00094552   0.00060487  -0.00629038
 11:  -0.00014147  -0.00017819  -0.00315403

-----------------------------------
NORM OF THE MP2 GRADIENT:  0.017112
-----------------------------------

-------------------------   --------------------
FINAL SINGLE POINT ENERGY      -264.966534666446
-------------------------   --------------------


                            ***************************************
                            *     ORCA property calculations      *
                            ***************************************

                                    ---------------------
                                    Active property flags
                                    ---------------------
   (+) Dipole Moment


------------------------------------------------------------------------------
                       ORCA ELECTRIC PROPERTIES CALCULATION
------------------------------------------------------------------------------

Dipole Moment Calculation                       ... on
Quadrupole Moment Calculation                   ... off
Polarizability Calculation                      ... off
GBWName                                         ... 12mecn.remya.etal.2.mol1,10-orca.engrad-mp2.def2tzvp.frozencore.gbw
Electron density file                           ... 12mecn.remya.etal.2.mol1,10-orca.engrad-mp2.def2tzvp.frozencore.scfp
The origin for moment calculation is the CENTER OF MASS  = (-0.062551,  0.003141 -0.039026)

-------------
DIPOLE MOMENT
-------------
                                X             Y             Z
Electronic contribution:      0.07542      -0.15580      -0.00802
Nuclear contribution   :     -0.11265       0.24545       0.01227
                        -----------------------------------------
Total Dipole Moment    :     -0.03723       0.08965       0.00425
                        -----------------------------------------
Magnitude (a.u.)       :      0.09717
Magnitude (Debye)      :      0.24698



--------------------
Rotational spectrum 
--------------------
 
Rotational constants in cm-1:     0.155235     0.009215     0.008729 
Rotational constants in MHz :  4653.824285   276.271525   261.690831 

 Dipole components along the rotational axes: 
x,y,z [a.u.] :     0.032731    -0.002366    -0.091456 
x,y,z [Debye]:     0.083196    -0.006013    -0.232463 

 

                         *** MP2 UNRELAXED DENSITY ***

------------------------------------------------------------------------------
                       ORCA ELECTRIC PROPERTIES CALCULATION
------------------------------------------------------------------------------

Dipole Moment Calculation                       ... on
Quadrupole Moment Calculation                   ... off
Polarizability Calculation                      ... off
GBWName                                         ... 12mecn.remya.etal.2.mol1,10-orca.engrad-mp2.def2tzvp.frozencore.gbw
Electron density file                           ... 12mecn.remya.etal.2.mol1,10-orca.engrad-mp2.def2tzvp.frozencore.pmp2ur
The origin for moment calculation is the CENTER OF MASS  = (-0.062551,  0.003141 -0.039026)

-------------
DIPOLE MOMENT
-------------
                                X             Y             Z
Electronic contribution:      0.07600      -0.15782      -0.00813
Nuclear contribution   :     -0.11265       0.24545       0.01227
                        -----------------------------------------
Total Dipole Moment    :     -0.03664       0.08763       0.00414
                        -----------------------------------------
Magnitude (a.u.)       :      0.09507
Magnitude (Debye)      :      0.24166



--------------------
Rotational spectrum 
--------------------
 
Rotational constants in cm-1:     0.155235     0.009215     0.008729 
Rotational constants in MHz :  4653.824285   276.271525   261.690831 

 Dipole components along the rotational axes: 
x,y,z [a.u.] :     0.032241    -0.002355    -0.089410 
x,y,z [Debye]:     0.081949    -0.005985    -0.227262 

 

                           *** MP2 RELAXED DENSITY ***

------------------------------------------------------------------------------
                       ORCA ELECTRIC PROPERTIES CALCULATION
------------------------------------------------------------------------------

Dipole Moment Calculation                       ... on
Quadrupole Moment Calculation                   ... off
Polarizability Calculation                      ... off
GBWName                                         ... 12mecn.remya.etal.2.mol1,10-orca.engrad-mp2.def2tzvp.frozencore.gbw
Electron density file                           ... 12mecn.remya.etal.2.mol1,10-orca.engrad-mp2.def2tzvp.frozencore.pmp2re
The origin for moment calculation is the CENTER OF MASS  = (-0.062551,  0.003141 -0.039026)

-------------
DIPOLE MOMENT
-------------
                                X             Y             Z
Electronic contribution:      0.07817      -0.16332      -0.00841
Nuclear contribution   :     -0.11265       0.24545       0.01227
                        -----------------------------------------
Total Dipole Moment    :     -0.03448       0.08213       0.00387
                        -----------------------------------------
Magnitude (a.u.)       :      0.08916
Magnitude (Debye)      :      0.22663



--------------------
Rotational spectrum 
--------------------
 
Rotational constants in cm-1:     0.155235     0.009215     0.008729 
Rotational constants in MHz :  4653.824285   276.271525   261.690831 

 Dipole components along the rotational axes: 
x,y,z [a.u.] :     0.030353    -0.002237    -0.083806 
x,y,z [Debye]:     0.077151    -0.005685    -0.213018 

 

Timings for individual modules:

Sum of individual times         ...       31.789 sec (=   0.530 min)
GTO integral calculation        ...        1.768 sec (=   0.029 min)   5.6 %
SCF iterations                  ...        9.351 sec (=   0.156 min)  29.4 %
MP2 module                      ...       20.670 sec (=   0.344 min)  65.0 %
                             ****ORCA TERMINATED NORMALLY****
TOTAL RUN TIME: 0 days 0 hours 0 minutes 32 seconds 918 msec
