
                                 *****************
                                 * O   R   C   A *
                                 *****************

           --- An Ab Initio, DFT and Semiempirical electronic structure package ---

                  #######################################################
                  #                        -***-                        #
                  #          Department of theory and spectroscopy      #
                  #               Directorship: Frank Neese             #
                  #        Max Planck Institute fuer Kohlenforschung    #
                  #                Kaiser Wilhelm Platz 1               #
                  #                 D-45470 Muelheim/Ruhr               #
                  #                      Germany                        #
                  #                                                     #
                  #                  All rights reserved                #
                  #                        -***-                        #
                  #######################################################


                         Program Version 4.2.0 -  RELEASE  -


 With contributions from (in alphabetic order):
   Daniel Aravena         : Magnetic Suceptibility
   Michael Atanasov       : Ab Initio Ligand Field Theory (pilot matlab implementation)
   Alexander A. Auer      : GIAO ZORA, VPT2
   Ute Becker             : Parallelization
   Giovanni Bistoni       : ED, misc. LED, open-shell LED, HFLED
   Martin Brehm           : Molecular dynamics
   Dmytro Bykov           : SCF Hessian
   Vijay G. Chilkuri      : MRCI spin determinant printing, contributions to CSF-ICE
   Dipayan Datta          : RHF DLPNO-CCSD density
   Achintya Kumar Dutta   : EOM-CC, STEOM-CC
   Dmitry Ganyushin       : Spin-Orbit,Spin-Spin,Magnetic field MRCI
   Miquel Garcia          : C-PCM Hessian, Gaussian charge scheme
   Yang Guo               : DLPNO-NEVPT2, CIM, IAO-localization
   Andreas Hansen         : Spin unrestricted coupled pair/coupled cluster methods
   Benjamin Helmich-Paris : CASSCF linear response (MC-RPA)
   Lee Huntington         : MR-EOM, pCC
   Robert Izsak           : Overlap fitted RIJCOSX, COSX-SCS-MP3, EOM
   Christian Kollmar      : KDIIS, OOCD, Brueckner-CCSD(T), CCSD density
   Simone Kossmann        : Meta GGA functionals, TD-DFT gradient, OOMP2, MP2 Hessian
   Martin Krupicka        : AUTO-CI
   Lucas Lang             : DCDCAS
   Dagmar Lenk            : GEPOL surface, SMD
   Dimitrios Liakos       : Extrapolation schemes; Compound Job, initial MDCI parallelization
   Dimitrios Manganas     : Further ROCIS development; embedding schemes
   Dimitrios Pantazis     : SARC Basis sets
   Taras Petrenko         : DFT Hessian,TD-DFT gradient, ASA, ECA, R-Raman, ABS, FL, XAS/XES, NRVS
   Peter Pinski           : DLPNO-MP2, DLPNO-MP2 Gradient
   Christoph Reimann      : Effective Core Potentials
   Marius Retegan         : Local ZFS, SOC
   Christoph Riplinger    : Optimizer, TS searches, QM/MM, DLPNO-CCSD(T), (RO)-DLPNO pert. Triples
   Tobias Risthaus        : Range-separated hybrids, TD-DFT gradient, RPA, STAB
   Michael Roemelt        : Original ROCIS implementation
   Masaaki Saitow         : Open-shell DLPNO-CCSD energy and density
   Barbara Sandhoefer     : DKH picture change effects
   Avijit Sen             : IP-ROCIS
   Kantharuban Sivalingam : CASSCF convergence, NEVPT2, FIC-MRCI
   Bernardo de Souza      : ESD, SOC TD-DFT
   Georgi Stoychev        : AutoAux, RI-MP2 NMR
   Willem Van den Heuvel  : Paramagnetic NMR
   Boris Wezisla          : Elementary symmetry handling
   Frank Wennmohs         : Technical directorship


 We gratefully acknowledge several colleagues who have allowed us to
 interface, adapt or use parts of their codes:
   Stefan Grimme, W. Hujo, H. Kruse,             : VdW corrections, initial TS optimization,
                  C. Bannwarth                     DFT functionals, gCP, sTDA/sTD-DF
   Ed Valeev, F. Pavosevic, A. Kumar             : LibInt (2-el integral package), F12 methods
   Garnet Chan, S. Sharma, J. Yang, R. Olivares  : DMRG
   Ulf Ekstrom                                   : XCFun DFT Library
   Mihaly Kallay                                 : mrcc  (arbitrary order and MRCC methods)
   Andreas Klamt, Michael Diedenhofen            : otool_cosmo (COSMO solvation model)
   Jiri Pittner, Ondrej Demel                    : Mk-CCSD
   Frank Weinhold                                : gennbo (NPA and NBO analysis)
   Christopher J. Cramer and Donald G. Truhlar   : smd solvation model
   Lars Goerigk                                  : TD-DFT with DH, B97 family of functionals
   V. Asgeirsson, H. Jonsson                     : NEB implementation
   FAccTs GmbH                                   : IRC, NEB, NEB-TS, Multilevel, MM, QM/MM, CI optimization
   S Lehtola, MJT Oliveira, MAL Marques          : LibXC Library


 Your calculation uses the libint2 library for the computation of 2-el integrals
 For citations please refer to: http://libint.valeyev.net

 Your ORCA version has been built with support for libXC version: 4.2.3
 For citations please refer to: https://tddft.org/programs/libxc/

 This ORCA versions uses:
   CBLAS   interface :  Fast vector & matrix operations
   LAPACKE interface :  Fast linear algebra routines
   SCALAPACK package :  Parallel linear algebra routines


----- Orbital basis set information -----
Your calculation utilizes the basis: def2-TZVP
   F. Weigend and R. Ahlrichs, Phys. Chem. Chem. Phys. 7, 3297 (2005).

================================================================================
                                        WARNINGS
                       Please study these warnings very carefully!
================================================================================


WARNING: The frozen-core approximation for MP2-gradient calculations is turned on by default.

INFO   : the flag for use of LIBINT has been found!

================================================================================
                                       INPUT FILE
================================================================================
NAME = 12h2o.su.etal.mol0,1,3,6,7,8,9,11-orca.engrad-mp2.def2tzvp.frozencore.inp
|  1> # 12h2o.su.etal.mol0,1,3,6,7,8,9,11
|  2> ! MP2 def2-TZVP EnGrad TightSCF
|  3> 
|  4> %pal
|  5>     nprocs 6
|  6> end
|  7> 
|  8> %maxcore 8000
|  9> 
| 10> %scf
| 11>     ConvForced true
| 12> end
| 13> 
| 14> *xyz 0 1
| 15> O   1.794470000   0.923410000   2.768350000
| 16> H   2.338250000   1.359750000   3.430940000
| 17> H   0.879480000   1.303000000   2.865760000
| 18> O  -1.794470000  -0.923410000   2.768350000
| 19> H  -2.338250000  -1.359750000   3.430940000
| 20> H  -0.879480000  -1.303000000   2.865760000
| 21> O  -1.752130000  -0.741530000  -2.896280000
| 22> H  -2.036450000  -0.920500000  -1.984040000
| 23> H  -0.921210000  -1.242140000  -2.984230000
| 24> O   1.737840000   0.885520000  -0.052730000
| 25> H   2.090180000   1.032320000   0.841890000
| 26> H   0.839590000   1.284090000  -0.017130000
| 27> O  -1.737840000  -0.885520000  -0.052730000
| 28> H  -2.090180000  -1.032320000   0.841890000
| 29> H  -0.839590000  -1.284090000  -0.017130000
| 30> O   1.752130000   0.741530000  -2.896280000
| 31> H   2.036450000   0.920500000  -1.984040000
| 32> H   0.921210000   1.242140000  -2.984230000
| 33> O   0.741530000  -1.752130000   2.896280000
| 34> H   0.920500000  -2.036450000   1.984040000
| 35> H   1.242140000  -0.921210000   2.984230000
| 36> O  -0.741530000   1.752130000   2.896280000
| 37> H  -0.920500000   2.036450000   1.984040000
| 38> H  -1.242140000   0.921210000   2.984230000
| 39> *
| 40> 
| 41>                          ****END OF INPUT****
================================================================================

                     *******************************
                     * Energy+Gradient Calculation *
                     *******************************

---------------------------------
CARTESIAN COORDINATES (ANGSTROEM)
---------------------------------
  O      1.794470    0.923410    2.768350
  H      2.338250    1.359750    3.430940
  H      0.879480    1.303000    2.865760
  O     -1.794470   -0.923410    2.768350
  H     -2.338250   -1.359750    3.430940
  H     -0.879480   -1.303000    2.865760
  O     -1.752130   -0.741530   -2.896280
  H     -2.036450   -0.920500   -1.984040
  H     -0.921210   -1.242140   -2.984230
  O      1.737840    0.885520   -0.052730
  H      2.090180    1.032320    0.841890
  H      0.839590    1.284090   -0.017130
  O     -1.737840   -0.885520   -0.052730
  H     -2.090180   -1.032320    0.841890
  H     -0.839590   -1.284090   -0.017130
  O      1.752130    0.741530   -2.896280
  H      2.036450    0.920500   -1.984040
  H      0.921210    1.242140   -2.984230
  O      0.741530   -1.752130    2.896280
  H      0.920500   -2.036450    1.984040
  H      1.242140   -0.921210    2.984230
  O     -0.741530    1.752130    2.896280
  H     -0.920500    2.036450    1.984040
  H     -1.242140    0.921210    2.984230

----------------------------
CARTESIAN COORDINATES (A.U.)
----------------------------
  NO LB      ZA    FRAG     MASS         X           Y           Z
   0 O     8.0000    0    15.999    3.391057    1.744992    5.231423
   1 H     1.0000    0     1.008    4.418652    2.569555    6.483537
   2 H     1.0000    0     1.008    1.661976    2.462313    5.415502
   3 O     8.0000    0    15.999   -3.391057   -1.744992    5.231423
   4 H     1.0000    0     1.008   -4.418652   -2.569555    6.483537
   5 H     1.0000    0     1.008   -1.661976   -2.462313    5.415502
   6 O     8.0000    0    15.999   -3.311046   -1.401289   -5.473176
   7 H     1.0000    0     1.008   -3.848333   -1.739493   -3.749292
   8 H     1.0000    0     1.008   -1.740835   -2.347304   -5.639377
   9 O     8.0000    0    15.999    3.284042    1.673390   -0.099645
  10 H     1.0000    0     1.008    3.949868    1.950802    1.590942
  11 H     1.0000    0     1.008    1.586595    2.426578   -0.032371
  12 O     8.0000    0    15.999   -3.284042   -1.673390   -0.099645
  13 H     1.0000    0     1.008   -3.949868   -1.950802    1.590942
  14 H     1.0000    0     1.008   -1.586595   -2.426578   -0.032371
  15 O     8.0000    0    15.999    3.311046    1.401289   -5.473176
  16 H     1.0000    0     1.008    3.848333    1.739493   -3.749292
  17 H     1.0000    0     1.008    1.740835    2.347304   -5.639377
  18 O     8.0000    0    15.999    1.401289   -3.311046    5.473176
  19 H     1.0000    0     1.008    1.739493   -3.848333    3.749292
  20 H     1.0000    0     1.008    2.347304   -1.740835    5.639377
  21 O     8.0000    0    15.999   -1.401289    3.311046    5.473176
  22 H     1.0000    0     1.008   -1.739493    3.848333    3.749292
  23 H     1.0000    0     1.008   -2.347304    1.740835    5.639377

--------------------------------
INTERNAL COORDINATES (ANGSTROEM)
--------------------------------
 O      0   0   0     0.000000000000     0.00000000     0.00000000
 H      1   0   0     0.961828878803     0.00000000     0.00000000
 H      1   2   0     0.995381322057   106.21731035     0.00000000
 O      3   1   2     3.480861789658   117.35405144   223.81249033
 H      4   3   1     0.961828878803   134.84484566    98.22461471
 H      4   3   1     0.995381322057    62.29205096    12.66575463
 O      4   3   1     5.667707300743    90.09768939   276.02472436
 H      7   4   3     0.972136791249    18.92045113   191.47242104
 H      7   4   3     0.974050112161    94.59568686    71.02022155
 O      1   2   3     2.821902722526   134.92023192   114.47749497
 H     10   1   2     0.972645187106    21.75017499    16.91177088
 H     10   1   2     0.983350632989    88.66470709   242.75499327
 O      8   7   4     1.954571525578   151.55104644   356.10627670
 H     13   8   7     0.972645187106   148.29772527   173.62852352
 H     13   8   7     0.983350632989    99.67573411   310.71905253
 O     10   1   2     2.847229166523   177.43098014    94.85867930
 H     16  10  11     0.972136791249    19.08819947   351.20495187
 H     16  10  11     0.974050112161    93.43428486   227.10867198
 O      6   4   3     1.682356278379   171.61043709   328.33166207
 H     19   6   4     0.972136791249   103.79460456   289.35412162
 H     19   6   4     0.974050112161   105.61118924    38.30604821
 O      3   1   2     1.682356278379   171.61043709   195.73896161
 H     22   3   1     0.972136791249   103.79460456   289.35412162
 H     22   3   1     0.974050112161   105.61118924    38.30604821

---------------------------
INTERNAL COORDINATES (A.U.)
---------------------------
 O      0   0   0     0.000000000000     0.00000000     0.00000000
 H      1   0   0     1.817593168635     0.00000000     0.00000000
 H      1   2   0     1.880998097508   106.21731035     0.00000000
 O      3   1   2     6.577875492484   117.35405144   223.81249033
 H      4   3   1     1.817593168635   134.84484566    98.22461471
 H      4   3   1     1.880998097508    62.29205096    12.66575463
 O      4   3   1    10.710414605631    90.09768939   276.02472436
 H      7   4   3     1.837072300170    18.92045113   191.47242104
 H      7   4   3     1.840687952699    94.59568686    71.02022155
 O      1   2   3     5.332623322141   134.92023192   114.47749497
 H     10   1   2     1.838033029106    21.75017499    16.91177088
 H     10   1   2     1.858263389967    88.66470709   242.75499327
 O      8   7   4     3.693604892503   151.55104644   356.10627670
 H     13   8   7     1.838033029106   148.29772527   173.62852352
 H     13   8   7     1.858263389967    99.67573411   310.71905253
 O     10   1   2     5.380483365242   177.43098014    94.85867930
 H     16  10  11     1.837072300170    19.08819947   351.20495187
 H     16  10  11     1.840687952699    93.43428486   227.10867198
 O      6   4   3     3.179192625819   171.61043709   328.33166207
 H     19   6   4     1.837072300170   103.79460456   289.35412162
 H     19   6   4     1.840687952699   105.61118924    38.30604821
 O      3   1   2     3.179192625819   171.61043709   195.73896161
 H     22   3   1     1.837072300170   103.79460456   289.35412162
 H     22   3   1     1.840687952699   105.61118924    38.30604821

---------------------
BASIS SET INFORMATION
---------------------
There are 2 groups of distinct atoms

 Group   1 Type O   : 11s6p2d1f contracted to 5s3p2d1f pattern {62111/411/11/1}
 Group   2 Type H   : 5s1p contracted to 3s1p pattern {311/1}

Atom   0O    basis set group =>   1
Atom   1H    basis set group =>   2
Atom   2H    basis set group =>   2
Atom   3O    basis set group =>   1
Atom   4H    basis set group =>   2
Atom   5H    basis set group =>   2
Atom   6O    basis set group =>   1
Atom   7H    basis set group =>   2
Atom   8H    basis set group =>   2
Atom   9O    basis set group =>   1
Atom  10H    basis set group =>   2
Atom  11H    basis set group =>   2
Atom  12O    basis set group =>   1
Atom  13H    basis set group =>   2
Atom  14H    basis set group =>   2
Atom  15O    basis set group =>   1
Atom  16H    basis set group =>   2
Atom  17H    basis set group =>   2
Atom  18O    basis set group =>   1
Atom  19H    basis set group =>   2
Atom  20H    basis set group =>   2
Atom  21O    basis set group =>   1
Atom  22H    basis set group =>   2
Atom  23H    basis set group =>   2


           ************************************************************
           *        Program running with 6 parallel MPI-processes     *
           *              working on a common directory               *
           ************************************************************
------------------------------------------------------------------------------
                           ORCA GTO INTEGRAL CALCULATION
------------------------------------------------------------------------------

                         BASIS SET STATISTICS AND STARTUP INFO

 # of primitive gaussian shells          ...  256
 # of primitive gaussian functions       ...  496
 # of contracted shells                  ...  152
 # of contracted basis functions         ...  344
 Highest angular momentum                ...    3
 Maximum contraction depth               ...    6
 Integral package used                   ... LIBINT
 Integral threshhold            Thresh   ...  2.500e-11
 Primitive cut-off              TCut     ...  2.500e-12


------------------------------ INTEGRAL EVALUATION ----------------------------


 * One electron integrals 
 Pre-screening matrix                    ... done
 Shell pair data                         ... done (   0.002 sec)



           ************************************************************
           *        Program running with 6 parallel MPI-processes     *
           *              working on a common directory               *
           ************************************************************
-------------------------------------------------------------------------------
                                 ORCA SCF
-------------------------------------------------------------------------------

------------
SCF SETTINGS
------------
Hamiltonian:
 Ab initio Hamiltonian  Method          .... Hartree-Fock(GTOs)


General Settings:
 Integral files         IntName         .... 12h2o.su.etal.mol0,1,3,6,7,8,9,11-orca.engrad-mp2.def2tzvp.frozencore
 Hartree-Fock type      HFTyp           .... RHF
 Total Charge           Charge          ....    0
 Multiplicity           Mult            ....    1
 Number of Electrons    NEL             ....   80
 Basis Dimension        Dim             ....  344
 Nuclear Repulsion      ENuc            ....    446.1568002498 Eh

Convergence Acceleration:
 DIIS                   CNVDIIS         .... on
   Start iteration      DIISMaxIt       ....    12
   Startup error        DIISStart       ....  0.200000
   # of expansion vecs  DIISMaxEq       ....     5
   Bias factor          DIISBfac        ....   1.050
   Max. coefficient     DIISMaxC        ....  10.000
 Newton-Raphson         CNVNR           .... off
 SOSCF                  CNVSOSCF        .... on
   Start iteration      SOSCFMaxIt      ....   150
   Startup grad/error   SOSCFStart      ....  0.003300
 Level Shifting         CNVShift        .... on
   Level shift para.    LevelShift      ....    0.2500
   Turn off err/grad.   ShiftErr        ....    0.0010
 Zerner damping         CNVZerner       .... off
 Static damping         CNVDamp         .... on
   Fraction old density DampFac         ....    0.7000
   Max. Damping (<1)    DampMax         ....    0.9800
   Min. Damping (>=0)   DampMin         ....    0.0000
   Turn off err/grad.   DampErr         ....    0.1000
 Fernandez-Rico         CNVRico         .... off

SCF Procedure:
 Maximum # iterations   MaxIter         ....   125
 SCF integral mode      SCFMode         .... Direct
   Integral package                     .... LIBINT
 Reset frequency        DirectResetFreq ....    20
 Integral Threshold     Thresh          ....  2.500e-11 Eh
 Primitive CutOff       TCut            ....  2.500e-12 Eh

Convergence Tolerance:
 Convergence Check Mode ConvCheckMode   .... Total+1el-Energy
 Convergence forced     ConvForced      .... 1
 Energy Change          TolE            ....  1.000e-08 Eh
 1-El. energy change                    ....  1.000e-05 Eh
 Orbital Gradient       TolG            ....  1.000e-05
 Orbital Rotation angle TolX            ....  1.000e-05
 DIIS Error             TolErr          ....  5.000e-07


Diagonalization of the overlap matrix:
Smallest eigenvalue                        ... 3.633e-03
Time for diagonalization                   ...    0.016 sec
Threshold for overlap eigenvalues          ... 1.000e-08
Number of eigenvalues below threshold      ... 0
Time for construction of square roots      ...    0.009 sec
Total time needed                          ...    0.025 sec

-------------------
DFT GRID GENERATION
-------------------

General Integration Accuracy     IntAcc      ...  4.340
Radial Grid Type                 RadialGrid  ... Gauss-Chebyshev
Angular Grid (max. acc.)         AngularGrid ... Lebedev-110
Angular grid pruning method      GridPruning ... 3 (G Style)
Weight generation scheme         WeightScheme... Becke
Basis function cutoff            BFCut       ...    1.0000e-11
Integration weight cutoff        WCut        ...    1.0000e-14
Grids for H and He will be reduced by one unit

# of grid points (after initial pruning)     ...  26432 (   0.0 sec)
# of grid points (after weights+screening)   ...  24666 (   0.0 sec)
nearest neighbour list constructed           ...    0.0 sec
Grid point re-assignment to atoms done       ...    0.0 sec
Grid point division into batches done        ...    0.0 sec
Reduced shell lists constructed in    0.1 sec

Total number of grid points                  ...    24666
Total number of batches                      ...      396
Average number of points per batch           ...       62
Average number of grid points per atom       ...     1028
Average number of shells per batch           ...    74.16 (48.79%)
Average number of basis functions per batch  ...   150.25 (43.68%)
Average number of large shells per batch     ...    50.84 (68.54%)
Average number of large basis fcns per batch ...    99.55 (66.26%)
Maximum spatial batch extension              ...  12.91, 16.09, 11.85 au
Average spatial batch extension              ...   0.48,  0.54,  0.49 au

Time for grid setup =    0.090 sec

------------------------------
INITIAL GUESS: MODEL POTENTIAL
------------------------------
Loading Hartree-Fock densities                     ... done
Calculating cut-offs                               ... done
Setting up the integral package                    ... done
Initializing the effective Hamiltonian             ... done
Starting the Coulomb interaction                   ... done (   0.0 sec)
Reading the grid                                   ... done
Mapping shells                                     ... done
Starting the XC term evaluation                    ... done (   0.0 sec)
Transforming the Hamiltonian                       ... done (   0.0 sec)
Diagonalizing the Hamiltonian                      ... done (   0.0 sec)
Back transforming the eigenvectors                 ... done (   0.0 sec)
Now organizing SCF variables                       ... done
                      ------------------
                      INITIAL GUESS DONE (   0.3 sec)
                      ------------------
--------------
SCF ITERATIONS
--------------
ITER       Energy         Delta-E        Max-DP      RMS-DP      [F,P]     Damp
               ***  Starting incremental Fock matrix formation  ***
  0   -607.8141601317   0.000000000000 0.04347440  0.00083048  0.3424817 0.7000
  1   -608.0876888943  -0.273528762674 0.02873285  0.00057334  0.2162276 0.7000
                               ***Turning on DIIS***
  2   -608.2325365781  -0.144847683787 0.01623772  0.00031931  0.1636012 0.7000
  3   -609.5229267768  -1.290390198654 0.00761217  0.00014471  0.1217876 0.7000
  4   -609.2567812042   0.266145572535 0.01685599  0.00033384  0.0861360 0.0000
  5   -608.5618069169   0.694974287343 0.00194707  0.00005379  0.0056261 0.0000
                      *** Initiating the SOSCF procedure ***
                           *** Shutting down DIIS ***
                      *** Re-Reading the Fockian *** 
                      *** Removing any level shift *** 
ITER      Energy       Delta-E        Grad      Rot      Max-DP    RMS-DP
  6   -608.52184349   0.0399634306  0.000857  0.000857  0.001322  0.000033
               *** Restarting incremental Fock matrix formation ***
  7   -608.51210647   0.0097370159  0.000346  0.000521  0.000624  0.000015
  8   -608.51211798  -0.0000115093  0.000153  0.000432  0.000514  0.000012
  9   -608.51212074  -0.0000027647  0.000063  0.000048  0.000082  0.000002
 10   -608.51212097  -0.0000002251  0.000010  0.000008  0.000015  0.000000
                  ***Gradient check signals convergence***
              ***Rediagonalizing the Fockian in SOSCF/NRSCF***

               *****************************************************
               *                     SUCCESS                       *
               *           SCF CONVERGED AFTER  11 CYCLES          *
               *****************************************************


----------------
TOTAL SCF ENERGY
----------------

Total Energy       :         -608.51212098 Eh          -16558.45663 eV

Components:
Nuclear Repulsion  :          446.15680025 Eh           12140.54375 eV
Electronic Energy  :        -1054.66892123 Eh          -28699.00038 eV
One Electron Energy:        -1728.95017721 Eh          -47047.12615 eV
Two Electron Energy:          674.28125599 Eh           18348.12578 eV

Virial components:
Potential Energy   :        -1216.23145190 Eh          -33095.34034 eV
Kinetic Energy     :          607.71933092 Eh           16536.88371 eV
Virial Ratio       :            2.00130453


---------------
SCF CONVERGENCE
---------------

  Last Energy change         ...   -6.3578e-09  Tolerance :   1.0000e-08
  Last MAX-Density change    ...    4.5779e-06  Tolerance :   1.0000e-07
  Last RMS-Density change    ...    1.2285e-07  Tolerance :   5.0000e-09
  Last Orbital Gradient      ...    2.4884e-06  Tolerance :   1.0000e-05
  Last Orbital Rotation      ...    2.9090e-06  Tolerance :   1.0000e-05

             **** THE GBW FILE WAS UPDATED (12h2o.su.etal.mol0,1,3,6,7,8,9,11-orca.engrad-mp2.def2tzvp.frozencore.gbw) ****
             **** DENSITY FILE WAS UPDATED (12h2o.su.etal.mol0,1,3,6,7,8,9,11-orca.engrad-mp2.def2tzvp.frozencore.scfp) ****
             **** ENERGY FILE WAS UPDATED (12h2o.su.etal.mol0,1,3,6,7,8,9,11-orca.engrad-mp2.def2tzvp.frozencore.en.tmp) ****
             **** THE GBW FILE WAS UPDATED (12h2o.su.etal.mol0,1,3,6,7,8,9,11-orca.engrad-mp2.def2tzvp.frozencore.gbw) ****
             **** DENSITY FILE WAS UPDATED (12h2o.su.etal.mol0,1,3,6,7,8,9,11-orca.engrad-mp2.def2tzvp.frozencore.scfp) ****
----------------
ORBITAL ENERGIES
----------------

  NO   OCC          E(Eh)            E(eV) 
   0   2.0000     -20.600477      -560.5675 
   1   2.0000     -20.600477      -560.5675 
   2   2.0000     -20.592833      -560.3595 
   3   2.0000     -20.592833      -560.3595 
   4   2.0000     -20.573324      -559.8286 
   5   2.0000     -20.573324      -559.8286 
   6   2.0000     -20.524100      -558.4892 
   7   2.0000     -20.524099      -558.4891 
   8   2.0000      -1.400250       -38.1027 
   9   2.0000      -1.389854       -37.8199 
  10   2.0000      -1.379029       -37.5253 
  11   2.0000      -1.369358       -37.2621 
  12   2.0000      -1.353923       -36.8421 
  13   2.0000      -1.353627       -36.8341 
  14   2.0000      -1.306289       -35.5459 
  15   2.0000      -1.305524       -35.5251 
  16   2.0000      -0.761378       -20.7182 
  17   2.0000      -0.760763       -20.7014 
  18   2.0000      -0.750279       -20.4161 
  19   2.0000      -0.744616       -20.2620 
  20   2.0000      -0.724721       -19.7207 
  21   2.0000      -0.722067       -19.6484 
  22   2.0000      -0.676254       -18.4018 
  23   2.0000      -0.673802       -18.3351 
  24   2.0000      -0.659602       -17.9487 
  25   2.0000      -0.634410       -17.2632 
  26   2.0000      -0.622564       -16.9408 
  27   2.0000      -0.608360       -16.5543 
  28   2.0000      -0.597596       -16.2614 
  29   2.0000      -0.588113       -16.0034 
  30   2.0000      -0.549029       -14.9398 
  31   2.0000      -0.547433       -14.8964 
  32   2.0000      -0.543865       -14.7993 
  33   2.0000      -0.541926       -14.7466 
  34   2.0000      -0.536627       -14.6024 
  35   2.0000      -0.535631       -14.5753 
  36   2.0000      -0.519042       -14.1238 
  37   2.0000      -0.515168       -14.0184 
  38   2.0000      -0.473728       -12.8908 
  39   2.0000      -0.467656       -12.7256 
  40   0.0000       0.076272         2.0755 
  41   0.0000       0.115925         3.1545 
  42   0.0000       0.129233         3.5166 
  43   0.0000       0.130056         3.5390 
  44   0.0000       0.159668         4.3448 
  45   0.0000       0.182099         4.9552 
  46   0.0000       0.215016         5.8509 
  47   0.0000       0.222218         6.0468 
  48   0.0000       0.242472         6.5980 
  49   0.0000       0.246899         6.7185 
  50   0.0000       0.267083         7.2677 
  51   0.0000       0.285170         7.7599 
  52   0.0000       0.290863         7.9148 
  53   0.0000       0.303955         8.2710 
  54   0.0000       0.309346         8.4177 
  55   0.0000       0.325233         8.8500 
  56   0.0000       0.393527        10.7084 
  57   0.0000       0.460984        12.5440 
  58   0.0000       0.468455        12.7473 
  59   0.0000       0.477849        13.0029 
  60   0.0000       0.480013        13.0618 
  61   0.0000       0.502398        13.6710 
  62   0.0000       0.503493        13.7008 
  63   0.0000       0.528556        14.3828 
  64   0.0000       0.536819        14.6076 
  65   0.0000       0.538922        14.6648 
  66   0.0000       0.548972        14.9383 
  67   0.0000       0.558647        15.2016 
  68   0.0000       0.567812        15.4510 
  69   0.0000       0.572266        15.5721 
  70   0.0000       0.597316        16.2538 
  71   0.0000       0.598836        16.2951 
  72   0.0000       0.607808        16.5393 
  73   0.0000       0.622672        16.9438 
  74   0.0000       0.635845        17.3022 
  75   0.0000       0.636016        17.3069 
  76   0.0000       0.651135        17.7183 
  77   0.0000       0.678467        18.4620 
  78   0.0000       0.680193        18.5090 
  79   0.0000       0.697153        18.9705 
  80   0.0000       0.703671        19.1479 
  81   0.0000       0.715621        19.4730 
  82   0.0000       0.725783        19.7496 
  83   0.0000       0.742797        20.2125 
  84   0.0000       0.744050        20.2466 
  85   0.0000       0.759388        20.6640 
  86   0.0000       0.774500        21.0752 
  87   0.0000       0.780828        21.2474 
  88   0.0000       0.796974        21.6868 
  89   0.0000       0.807369        21.9696 
  90   0.0000       0.813663        22.1409 
  91   0.0000       0.834309        22.7027 
  92   0.0000       0.837078        22.7780 
  93   0.0000       0.847059        23.0497 
  94   0.0000       0.859914        23.3994 
  95   0.0000       0.912655        24.8346 
  96   0.0000       0.935937        25.4681 
  97   0.0000       0.937631        25.5142 
  98   0.0000       0.944755        25.7081 
  99   0.0000       0.963296        26.2126 
 100   0.0000       1.006676        27.3930 
 101   0.0000       1.048097        28.5202 
 102   0.0000       1.057266        28.7697 
 103   0.0000       1.124392        30.5963 
 104   0.0000       1.309936        35.6452 
 105   0.0000       1.362724        37.0816 
 106   0.0000       1.368813        37.2473 
 107   0.0000       1.386100        37.7177 
 108   0.0000       1.396221        37.9931 
 109   0.0000       1.400452        38.1082 
 110   0.0000       1.407275        38.2939 
 111   0.0000       1.423818        38.7441 
 112   0.0000       1.439840        39.1800 
 113   0.0000       1.440641        39.2018 
 114   0.0000       1.443420        39.2774 
 115   0.0000       1.463891        39.8345 
 116   0.0000       1.467402        39.9300 
 117   0.0000       1.505035        40.9541 
 118   0.0000       1.514313        41.2066 
 119   0.0000       1.517867        41.3033 
 120   0.0000       1.534132        41.7459 
 121   0.0000       1.545418        42.0530 
 122   0.0000       1.569569        42.7102 
 123   0.0000       1.584779        43.1240 
 124   0.0000       1.593784        43.3691 
 125   0.0000       1.601446        43.5775 
 126   0.0000       1.622843        44.1598 
 127   0.0000       1.632763        44.4297 
 128   0.0000       1.779776        48.4302 
 129   0.0000       1.807949        49.1968 
 130   0.0000       1.847677        50.2778 
 131   0.0000       1.865708        50.7685 
 132   0.0000       1.875425        51.0329 
 133   0.0000       1.876684        51.0672 
 134   0.0000       1.878465        51.1156 
 135   0.0000       1.907474        51.9050 
 136   0.0000       1.909890        51.9708 
 137   0.0000       1.956480        53.2385 
 138   0.0000       1.967398        53.5356 
 139   0.0000       1.968818        53.5743 
 140   0.0000       1.996328        54.3228 
 141   0.0000       2.002332        54.4862 
 142   0.0000       2.011965        54.7483 
 143   0.0000       2.017726        54.9051 
 144   0.0000       2.019033        54.9407 
 145   0.0000       2.068771        56.2941 
 146   0.0000       2.077024        56.5187 
 147   0.0000       2.078440        56.5572 
 148   0.0000       2.127131        57.8822 
 149   0.0000       2.133939        58.0674 
 150   0.0000       2.150487        58.5177 
 151   0.0000       2.184294        59.4377 
 152   0.0000       2.208798        60.1045 
 153   0.0000       2.220539        60.4239 
 154   0.0000       2.263296        61.5874 
 155   0.0000       2.300964        62.6124 
 156   0.0000       2.313343        62.9493 
 157   0.0000       2.317231        63.0551 
 158   0.0000       2.323626        63.2291 
 159   0.0000       2.332093        63.4595 
 160   0.0000       2.334420        63.5228 
 161   0.0000       2.350654        63.9646 
 162   0.0000       2.361185        64.2511 
 163   0.0000       2.369447        64.4759 
 164   0.0000       2.369567        64.4792 
 165   0.0000       2.387285        64.9613 
 166   0.0000       2.402093        65.3643 
 167   0.0000       2.420846        65.8746 
 168   0.0000       2.430697        66.1426 
 169   0.0000       2.449285        66.6484 
 170   0.0000       2.486711        67.6668 
 171   0.0000       2.503431        68.1218 
 172   0.0000       2.504381        68.1477 
 173   0.0000       2.511426        68.3394 
 174   0.0000       2.520944        68.5984 
 175   0.0000       2.567809        69.8736 
 176   0.0000       2.582740        70.2799 
 177   0.0000       2.583505        70.3007 
 178   0.0000       2.596203        70.6463 
 179   0.0000       2.615164        71.1622 
 180   0.0000       2.623230        71.3817 
 181   0.0000       2.628974        71.5380 
 182   0.0000       2.640822        71.8604 
 183   0.0000       2.641354        71.8749 
 184   0.0000       2.645934        71.9995 
 185   0.0000       2.684271        73.0427 
 186   0.0000       2.715252        73.8858 
 187   0.0000       2.735296        74.4312 
 188   0.0000       2.737354        74.4872 
 189   0.0000       2.757647        75.0394 
 190   0.0000       2.761782        75.1519 
 191   0.0000       2.782734        75.7220 
 192   0.0000       2.876699        78.2790 
 193   0.0000       2.914827        79.3165 
 194   0.0000       2.930228        79.7356 
 195   0.0000       2.940042        80.0026 
 196   0.0000       2.943192        80.0883 
 197   0.0000       2.965461        80.6943 
 198   0.0000       2.985444        81.2381 
 199   0.0000       2.988770        81.3286 
 200   0.0000       2.998303        81.5880 
 201   0.0000       3.004455        81.7554 
 202   0.0000       3.024877        82.3111 
 203   0.0000       3.026021        82.3422 
 204   0.0000       3.036268        82.6210 
 205   0.0000       3.044845        82.8545 
 206   0.0000       3.064963        83.4019 
 207   0.0000       3.083293        83.9007 
 208   0.0000       3.083651        83.9104 
 209   0.0000       3.122337        84.9631 
 210   0.0000       3.159985        85.9876 
 211   0.0000       3.172808        86.3365 
 212   0.0000       3.181804        86.5813 
 213   0.0000       3.204677        87.2037 
 214   0.0000       3.210669        87.3667 
 215   0.0000       3.242843        88.2422 
 216   0.0000       3.255180        88.5780 
 217   0.0000       3.263444        88.8028 
 218   0.0000       3.306755        89.9814 
 219   0.0000       3.330281        90.6216 
 220   0.0000       3.355658        91.3121 
 221   0.0000       3.360736        91.4503 
 222   0.0000       3.478332        94.6502 
 223   0.0000       3.506537        95.4177 
 224   0.0000       4.003142       108.9310 
 225   0.0000       4.011656       109.1627 
 226   0.0000       4.052729       110.2804 
 227   0.0000       4.072445       110.8169 
 228   0.0000       4.080917       111.0474 
 229   0.0000       4.089718       111.2869 
 230   0.0000       4.109594       111.8277 
 231   0.0000       4.116566       112.0175 
 232   0.0000       4.280660       116.4827 
 233   0.0000       4.280997       116.4919 
 234   0.0000       4.302685       117.0820 
 235   0.0000       4.315009       117.4174 
 236   0.0000       4.343050       118.1804 
 237   0.0000       4.347335       118.2970 
 238   0.0000       4.350056       118.3710 
 239   0.0000       4.353277       118.4587 
 240   0.0000       5.502408       149.7281 
 241   0.0000       5.503238       149.7507 
 242   0.0000       5.511750       149.9823 
 243   0.0000       5.512381       149.9995 
 244   0.0000       5.537801       150.6912 
 245   0.0000       5.538011       150.6969 
 246   0.0000       5.582890       151.9182 
 247   0.0000       5.582927       151.9192 
 248   0.0000       5.604892       152.5169 
 249   0.0000       5.610344       152.6652 
 250   0.0000       5.646791       153.6570 
 251   0.0000       5.647947       153.6884 
 252   0.0000       5.650779       153.7655 
 253   0.0000       5.654331       153.8622 
 254   0.0000       5.688084       154.7806 
 255   0.0000       5.688870       154.8020 
 256   0.0000       5.773268       157.0986 
 257   0.0000       5.777284       157.2079 
 258   0.0000       5.789390       157.5373 
 259   0.0000       5.795379       157.7003 
 260   0.0000       5.805315       157.9706 
 261   0.0000       5.805568       157.9775 
 262   0.0000       5.809401       158.0818 
 263   0.0000       5.821647       158.4151 
 264   0.0000       5.838056       158.8616 
 265   0.0000       5.848881       159.1562 
 266   0.0000       5.849629       159.1765 
 267   0.0000       5.853605       159.2847 
 268   0.0000       5.854743       159.3157 
 269   0.0000       5.857034       159.3780 
 270   0.0000       5.863226       159.5465 
 271   0.0000       5.864224       159.5736 
 272   0.0000       5.883085       160.0869 
 273   0.0000       5.883329       160.0935 
 274   0.0000       5.892852       160.3526 
 275   0.0000       5.900613       160.5638 
 276   0.0000       5.908341       160.7741 
 277   0.0000       5.908557       160.7800 
 278   0.0000       5.936406       161.5378 
 279   0.0000       5.937379       161.5643 
 280   0.0000       6.439845       175.2371 
 281   0.0000       6.443515       175.3370 
 282   0.0000       6.449155       175.4904 
 283   0.0000       6.449897       175.5106 
 284   0.0000       6.456553       175.6917 
 285   0.0000       6.464154       175.8986 
 286   0.0000       6.523582       177.5157 
 287   0.0000       6.527716       177.6282 
 288   0.0000       6.629847       180.4073 
 289   0.0000       6.653886       181.0614 
 290   0.0000       6.667211       181.4240 
 291   0.0000       6.702748       182.3910 
 292   0.0000       6.712071       182.6447 
 293   0.0000       6.717466       182.7915 
 294   0.0000       6.724517       182.9834 
 295   0.0000       6.750065       183.6786 
 296   0.0000       6.805500       185.1871 
 297   0.0000       6.826630       185.7620 
 298   0.0000       6.844898       186.2592 
 299   0.0000       6.845310       186.2704 
 300   0.0000       6.861315       186.7059 
 301   0.0000       6.867600       186.8769 
 302   0.0000       6.867705       186.8798 
 303   0.0000       6.879953       187.2130 
 304   0.0000       6.884552       187.3382 
 305   0.0000       6.887744       187.4250 
 306   0.0000       6.900163       187.7630 
 307   0.0000       6.913173       188.1170 
 308   0.0000       6.915674       188.1851 
 309   0.0000       6.919022       188.2762 
 310   0.0000       6.925745       188.4591 
 311   0.0000       6.939567       188.8352 
 312   0.0000       6.959292       189.3720 
 313   0.0000       6.960370       189.4013 
 314   0.0000       6.986820       190.1211 
 315   0.0000       6.987275       190.1334 
 316   0.0000       7.005089       190.6182 
 317   0.0000       7.007439       190.6821 
 318   0.0000       7.066745       192.2959 
 319   0.0000       7.080107       192.6595 
 320   0.0000       7.335715       199.6149 
 321   0.0000       7.339303       199.7126 
 322   0.0000       7.374105       200.6596 
 323   0.0000       7.403281       201.4535 
 324   0.0000       7.411812       201.6857 
 325   0.0000       7.422704       201.9821 
 326   0.0000       7.448541       202.6851 
 327   0.0000       7.460637       203.0142 
 328   0.0000       7.505745       204.2417 
 329   0.0000       7.517475       204.5609 
 330   0.0000       7.535908       205.0625 
 331   0.0000       7.547725       205.3840 
 332   0.0000       7.563599       205.8160 
 333   0.0000       7.575386       206.1367 
 334   0.0000       7.593500       206.6296 
 335   0.0000       7.601304       206.8420 
 336   0.0000      44.905657      1221.9451 
 337   0.0000      44.939861      1222.8758 
 338   0.0000      44.944476      1223.0014 
 339   0.0000      44.970222      1223.7020 
 340   0.0000      44.974925      1223.8299 
 341   0.0000      44.978033      1223.9145 
 342   0.0000      45.004630      1224.6382 
 343   0.0000      45.075865      1226.5766 

                    ********************************
                    * MULLIKEN POPULATION ANALYSIS *
                    ********************************

-----------------------
MULLIKEN ATOMIC CHARGES
-----------------------
   0 O :   -0.798987
   1 H :    0.368856
   2 H :    0.412082
   3 O :   -0.798987
   4 H :    0.368856
   5 H :    0.412082
   6 O :   -0.726874
   7 H :    0.384666
   8 H :    0.337776
   9 O :   -0.740824
  10 H :    0.396861
  11 H :    0.337047
  12 O :   -0.740824
  13 H :    0.396861
  14 H :    0.337047
  15 O :   -0.726874
  16 H :    0.384666
  17 H :    0.337776
  18 O :   -0.739988
  19 H :    0.363039
  20 H :    0.406346
  21 O :   -0.739988
  22 H :    0.363039
  23 H :    0.406346
Sum of atomic charges:    0.0000000

--------------------------------
MULLIKEN REDUCED ORBITAL CHARGES
--------------------------------
  0 O s       :     3.807602  s :     3.807602
      pz      :     1.730119  p :     4.968201
      px      :     1.444255
      py      :     1.793827
      dz2     :     0.003603  d :     0.021808
      dxz     :     0.004379
      dyz     :     0.004982
      dx2y2   :     0.002219
      dxy     :     0.006625
      f0      :     0.000081  f :     0.001377
      f+1     :     0.000315
      f-1     :     0.000168
      f+2     :     0.000060
      f-2     :     0.000345
      f+3     :     0.000081
      f-3     :     0.000327
  1 H s       :     0.586024  s :     0.586024
      pz      :     0.016882  p :     0.045120
      px      :     0.013686
      py      :     0.014552
  2 H s       :     0.532118  s :     0.532118
      pz      :     0.009907  p :     0.055800
      px      :     0.032806
      py      :     0.013088
  3 O s       :     3.807602  s :     3.807602
      pz      :     1.730119  p :     4.968201
      px      :     1.444255
      py      :     1.793827
      dz2     :     0.003603  d :     0.021808
      dxz     :     0.004379
      dyz     :     0.004982
      dx2y2   :     0.002219
      dxy     :     0.006625
      f0      :     0.000081  f :     0.001377
      f+1     :     0.000315
      f-1     :     0.000168
      f+2     :     0.000060
      f-2     :     0.000345
      f+3     :     0.000081
      f-3     :     0.000327
  4 H s       :     0.586024  s :     0.586024
      pz      :     0.016882  p :     0.045120
      px      :     0.013686
      py      :     0.014552
  5 H s       :     0.532118  s :     0.532118
      pz      :     0.009907  p :     0.055800
      px      :     0.032806
      py      :     0.013088
  6 O s       :     3.811206  s :     3.811206
      pz      :     1.552756  p :     4.888682
      px      :     1.520580
      py      :     1.815346
      dz2     :     0.011593  d :     0.025496
      dxz     :     0.001215
      dyz     :     0.002997
      dx2y2   :     0.002095
      dxy     :     0.007596
      f0      :     0.000249  f :     0.001490
      f+1     :     0.000375
      f-1     :     0.000166
      f+2     :     0.000056
      f-2     :     0.000055
      f+3     :     0.000069
      f-3     :     0.000519
  7 H s       :     0.566641  s :     0.566641
      pz      :     0.024351  p :     0.048693
      px      :     0.011519
      py      :     0.012824
  8 H s       :     0.617352  s :     0.617352
      pz      :     0.010958  p :     0.044872
      px      :     0.018020
      py      :     0.015893
  9 O s       :     3.810033  s :     3.810033
      pz      :     1.595405  p :     4.905356
      px      :     1.437949
      py      :     1.872002
      dz2     :     0.010303  d :     0.023972
      dxz     :     0.002543
      dyz     :     0.002448
      dx2y2   :     0.003174
      dxy     :     0.005503
      f0      :     0.000179  f :     0.001464
      f+1     :     0.000431
      f-1     :     0.000121
      f+2     :     0.000078
      f-2     :     0.000036
      f+3     :     0.000128
      f-3     :     0.000490
 10 H s       :     0.553898  s :     0.553898
      pz      :     0.024910  p :     0.049241
      px      :     0.011200
      py      :     0.013131
 11 H s       :     0.619648  s :     0.619648
      pz      :     0.009887  p :     0.043305
      px      :     0.018138
      py      :     0.015281
 12 O s       :     3.810033  s :     3.810033
      pz      :     1.595405  p :     4.905356
      px      :     1.437949
      py      :     1.872002
      dz2     :     0.010303  d :     0.023972
      dxz     :     0.002543
      dyz     :     0.002448
      dx2y2   :     0.003174
      dxy     :     0.005503
      f0      :     0.000179  f :     0.001464
      f+1     :     0.000431
      f-1     :     0.000121
      f+2     :     0.000078
      f-2     :     0.000036
      f+3     :     0.000128
      f-3     :     0.000490
 13 H s       :     0.553898  s :     0.553898
      pz      :     0.024910  p :     0.049241
      px      :     0.011200
      py      :     0.013131
 14 H s       :     0.619648  s :     0.619648
      pz      :     0.009887  p :     0.043305
      px      :     0.018138
      py      :     0.015281
 15 O s       :     3.811206  s :     3.811206
      pz      :     1.552756  p :     4.888682
      px      :     1.520580
      py      :     1.815346
      dz2     :     0.011593  d :     0.025496
      dxz     :     0.001215
      dyz     :     0.002997
      dx2y2   :     0.002095
      dxy     :     0.007596
      f0      :     0.000249  f :     0.001490
      f+1     :     0.000375
      f-1     :     0.000166
      f+2     :     0.000056
      f-2     :     0.000055
      f+3     :     0.000069
      f-3     :     0.000519
 16 H s       :     0.566641  s :     0.566641
      pz      :     0.024351  p :     0.048693
      px      :     0.011519
      py      :     0.012824
 17 H s       :     0.617352  s :     0.617352
      pz      :     0.010958  p :     0.044872
      px      :     0.018020
      py      :     0.015893
 18 O s       :     3.796093  s :     3.796093
      pz      :     1.523432  p :     4.917740
      px      :     1.788635
      py      :     1.605674
      dz2     :     0.012398  d :     0.024771
      dxz     :     0.002266
      dyz     :     0.001267
      dx2y2   :     0.002326
      dxy     :     0.006515
      f0      :     0.000250  f :     0.001383
      f+1     :     0.000154
      f-1     :     0.000388
      f+2     :     0.000051
      f-2     :     0.000056
      f+3     :     0.000440
      f-3     :     0.000045
 19 H s       :     0.593164  s :     0.593164
      pz      :     0.019245  p :     0.043797
      px      :     0.012808
      py      :     0.011745
 20 H s       :     0.544474  s :     0.544474
      pz      :     0.009320  p :     0.049181
      px      :     0.015306
      py      :     0.024555
 21 O s       :     3.796093  s :     3.796093
      pz      :     1.523432  p :     4.917740
      px      :     1.788635
      py      :     1.605674
      dz2     :     0.012398  d :     0.024771
      dxz     :     0.002266
      dyz     :     0.001267
      dx2y2   :     0.002326
      dxy     :     0.006515
      f0      :     0.000250  f :     0.001383
      f+1     :     0.000154
      f-1     :     0.000388
      f+2     :     0.000051
      f-2     :     0.000056
      f+3     :     0.000440
      f-3     :     0.000045
 22 H s       :     0.593164  s :     0.593164
      pz      :     0.019245  p :     0.043797
      px      :     0.012808
      py      :     0.011745
 23 H s       :     0.544474  s :     0.544474
      pz      :     0.009320  p :     0.049181
      px      :     0.015306
      py      :     0.024555


                     *******************************
                     * LOEWDIN POPULATION ANALYSIS *
                     *******************************

----------------------
LOEWDIN ATOMIC CHARGES
----------------------
   0 O :   -0.327061
   1 H :    0.162821
   2 H :    0.156132
   3 O :   -0.327061
   4 H :    0.162821
   5 H :    0.156132
   6 O :   -0.344459
   7 H :    0.156038
   8 H :    0.159744
   9 O :   -0.331113
  10 H :    0.158613
  11 H :    0.164089
  12 O :   -0.331113
  13 H :    0.158613
  14 H :    0.164089
  15 O :   -0.344459
  16 H :    0.156038
  17 H :    0.159744
  18 O :   -0.288326
  19 H :    0.169919
  20 H :    0.163603
  21 O :   -0.288326
  22 H :    0.169919
  23 H :    0.163603

-------------------------------
LOEWDIN REDUCED ORBITAL CHARGES
-------------------------------
  0 O s       :     3.454305  s :     3.454305
      pz      :     1.685071  p :     4.842694
      px      :     1.407684
      py      :     1.749938
      dz2     :     0.004674  d :     0.028129
      dxz     :     0.006512
      dyz     :     0.005026
      dx2y2   :     0.003644
      dxy     :     0.008273
      f0      :     0.000085  f :     0.001933
      f+1     :     0.000425
      f-1     :     0.000254
      f+2     :     0.000031
      f-2     :     0.000600
      f+3     :     0.000083
      f-3     :     0.000454
  1 H s       :     0.671642  s :     0.671642
      pz      :     0.066256  p :     0.165538
      px      :     0.046394
      py      :     0.052888
  2 H s       :     0.645066  s :     0.645066
      pz      :     0.033334  p :     0.198802
      px      :     0.117744
      py      :     0.047723
  3 O s       :     3.454305  s :     3.454305
      pz      :     1.685071  p :     4.842694
      px      :     1.407684
      py      :     1.749938
      dz2     :     0.004674  d :     0.028129
      dxz     :     0.006512
      dyz     :     0.005026
      dx2y2   :     0.003644
      dxy     :     0.008273
      f0      :     0.000085  f :     0.001933
      f+1     :     0.000425
      f-1     :     0.000254
      f+2     :     0.000031
      f-2     :     0.000600
      f+3     :     0.000083
      f-3     :     0.000454
  4 H s       :     0.671642  s :     0.671642
      pz      :     0.066256  p :     0.165538
      px      :     0.046394
      py      :     0.052888
  5 H s       :     0.645066  s :     0.645066
      pz      :     0.033334  p :     0.198802
      px      :     0.117744
      py      :     0.047723
  6 O s       :     3.467392  s :     3.467392
      pz      :     1.536037  p :     4.842997
      px      :     1.521167
      py      :     1.785792
      dz2     :     0.015301  d :     0.031942
      dxz     :     0.001882
      dyz     :     0.002330
      dx2y2   :     0.002340
      dxy     :     0.010088
      f0      :     0.000436  f :     0.002128
      f+1     :     0.000564
      f-1     :     0.000319
      f+2     :     0.000024
      f-2     :     0.000045
      f+3     :     0.000003
      f-3     :     0.000737
  7 H s       :     0.673537  s :     0.673537
      pz      :     0.092856  p :     0.170425
      px      :     0.035738
      py      :     0.041831
  8 H s       :     0.682734  s :     0.682734
      pz      :     0.031278  p :     0.157522
      px      :     0.071365
      py      :     0.054879
  9 O s       :     3.464580  s :     3.464580
      pz      :     1.558098  p :     4.833095
      px      :     1.442627
      py      :     1.832369
      dz2     :     0.014366  d :     0.031378
      dxz     :     0.003688
      dyz     :     0.001592
      dx2y2   :     0.004540
      dxy     :     0.007193
      f0      :     0.000349  f :     0.002059
      f+1     :     0.000706
      f-1     :     0.000192
      f+2     :     0.000043
      f-2     :     0.000040
      f+3     :     0.000075
      f-3     :     0.000655
 10 H s       :     0.668908  s :     0.668908
      pz      :     0.094518  p :     0.172480
      px      :     0.035474
      py      :     0.042487
 11 H s       :     0.682214  s :     0.682214
      pz      :     0.030824  p :     0.153697
      px      :     0.073549
      py      :     0.049323
 12 O s       :     3.464580  s :     3.464580
      pz      :     1.558098  p :     4.833095
      px      :     1.442627
      py      :     1.832369
      dz2     :     0.014366  d :     0.031378
      dxz     :     0.003688
      dyz     :     0.001592
      dx2y2   :     0.004540
      dxy     :     0.007193
      f0      :     0.000349  f :     0.002059
      f+1     :     0.000706
      f-1     :     0.000192
      f+2     :     0.000043
      f-2     :     0.000040
      f+3     :     0.000075
      f-3     :     0.000655
 13 H s       :     0.668908  s :     0.668908
      pz      :     0.094518  p :     0.172480
      px      :     0.035474
      py      :     0.042487
 14 H s       :     0.682214  s :     0.682214
      pz      :     0.030824  p :     0.153697
      px      :     0.073549
      py      :     0.049323
 15 O s       :     3.467392  s :     3.467392
      pz      :     1.536037  p :     4.842997
      px      :     1.521167
      py      :     1.785792
      dz2     :     0.015301  d :     0.031942
      dxz     :     0.001882
      dyz     :     0.002330
      dx2y2   :     0.002340
      dxy     :     0.010088
      f0      :     0.000436  f :     0.002128
      f+1     :     0.000564
      f-1     :     0.000319
      f+2     :     0.000024
      f-2     :     0.000045
      f+3     :     0.000003
      f-3     :     0.000737
 16 H s       :     0.673537  s :     0.673537
      pz      :     0.092856  p :     0.170425
      px      :     0.035738
      py      :     0.041831
 17 H s       :     0.682734  s :     0.682734
      pz      :     0.031278  p :     0.157522
      px      :     0.071365
      py      :     0.054879
 18 O s       :     3.451103  s :     3.451103
      pz      :     1.515661  p :     4.803951
      px      :     1.729538
      py      :     1.558752
      dz2     :     0.016237  d :     0.031196
      dxz     :     0.001809
      dyz     :     0.002056
      dx2y2   :     0.003329
      dxy     :     0.007765
      f0      :     0.000468  f :     0.002076
      f+1     :     0.000327
      f-1     :     0.000569
      f+2     :     0.000021
      f-2     :     0.000051
      f+3     :     0.000615
      f-3     :     0.000025
 19 H s       :     0.670728  s :     0.670728
      pz      :     0.080673  p :     0.159353
      px      :     0.041887
      py      :     0.036794
 20 H s       :     0.660724  s :     0.660724
      pz      :     0.029375  p :     0.175674
      px      :     0.058026
      py      :     0.088273
 21 O s       :     3.451103  s :     3.451103
      pz      :     1.515661  p :     4.803951
      px      :     1.729538
      py      :     1.558752
      dz2     :     0.016237  d :     0.031196
      dxz     :     0.001809
      dyz     :     0.002056
      dx2y2   :     0.003329
      dxy     :     0.007765
      f0      :     0.000468  f :     0.002076
      f+1     :     0.000327
      f-1     :     0.000569
      f+2     :     0.000021
      f-2     :     0.000051
      f+3     :     0.000615
      f-3     :     0.000025
 22 H s       :     0.670728  s :     0.670728
      pz      :     0.080673  p :     0.159353
      px      :     0.041887
      py      :     0.036794
 23 H s       :     0.660724  s :     0.660724
      pz      :     0.029375  p :     0.175674
      px      :     0.058026
      py      :     0.088273


                      *****************************
                      * MAYER POPULATION ANALYSIS *
                      *****************************

  NA   - Mulliken gross atomic population
  ZA   - Total nuclear charge
  QA   - Mulliken gross atomic charge
  VA   - Mayer's total valence
  BVA  - Mayer's bonded valence
  FA   - Mayer's free valence

  ATOM       NA         ZA         QA         VA         BVA        FA
  0 O      8.7990     8.0000    -0.7990     1.6728     1.6728     0.0000
  1 H      0.6311     1.0000     0.3689     0.8813     0.8813     0.0000
  2 H      0.5879     1.0000     0.4121     0.8692     0.8692     0.0000
  3 O      8.7990     8.0000    -0.7990     1.6728     1.6728    -0.0000
  4 H      0.6311     1.0000     0.3689     0.8813     0.8813     0.0000
  5 H      0.5879     1.0000     0.4121     0.8692     0.8692     0.0000
  6 O      8.7269     8.0000    -0.7269     1.7534     1.7534     0.0000
  7 H      0.6153     1.0000     0.3847     0.8767     0.8767     0.0000
  8 H      0.6622     1.0000     0.3378     0.9031     0.9031    -0.0000
  9 O      8.7408     8.0000    -0.7408     1.7423     1.7423    -0.0000
 10 H      0.6031     1.0000     0.3969     0.8724     0.8724    -0.0000
 11 H      0.6630     1.0000     0.3370     0.9083     0.9083    -0.0000
 12 O      8.7408     8.0000    -0.7408     1.7423     1.7423    -0.0000
 13 H      0.6031     1.0000     0.3969     0.8724     0.8724    -0.0000
 14 H      0.6630     1.0000     0.3370     0.9083     0.9083    -0.0000
 15 O      8.7269     8.0000    -0.7269     1.7534     1.7534    -0.0000
 16 H      0.6153     1.0000     0.3847     0.8767     0.8767    -0.0000
 17 H      0.6622     1.0000     0.3378     0.9031     0.9031    -0.0000
 18 O      8.7400     8.0000    -0.7400     1.7474     1.7474     0.0000
 19 H      0.6370     1.0000     0.3630     0.8837     0.8837     0.0000
 20 H      0.5937     1.0000     0.4063     0.8694     0.8694     0.0000
 21 O      8.7400     8.0000    -0.7400     1.7474     1.7474     0.0000
 22 H      0.6370     1.0000     0.3630     0.8837     0.8837     0.0000
 23 H      0.5937     1.0000     0.4063     0.8694     0.8694     0.0000

  Mayer bond orders larger than 0.100000
B(  0-O ,  1-H ) :   0.8716 B(  0-O ,  2-H ) :   0.7715 B(  3-O ,  4-H ) :   0.8716 
B(  3-O ,  5-H ) :   0.7715 B(  6-O ,  7-H ) :   0.8530 B(  6-O ,  8-H ) :   0.8934 
B(  9-O , 10-H ) :   0.8350 B(  9-O , 11-H ) :   0.8881 B( 12-O , 13-H ) :   0.8350 
B( 12-O , 14-H ) :   0.8881 B( 15-O , 16-H ) :   0.8530 B( 15-O , 17-H ) :   0.8934 
B( 18-O , 19-H ) :   0.8756 B( 18-O , 20-H ) :   0.8179 B( 21-O , 22-H ) :   0.8756 
B( 21-O , 23-H ) :   0.8179 

-------
TIMINGS
-------

Total SCF time: 0 days 0 hours 0 min 24 sec 

Total time                  ....      24.281 sec
Sum of individual times     ....      23.971 sec  ( 98.7%)

Fock matrix formation       ....      23.398 sec  ( 96.4%)
Diagonalization             ....       0.135 sec  (  0.6%)
Density matrix formation    ....       0.014 sec  (  0.1%)
Population analysis         ....       0.033 sec  (  0.1%)
Initial guess               ....       0.188 sec  (  0.8%)
Orbital Transformation      ....       0.000 sec  (  0.0%)
Orbital Orthonormalization  ....       0.000 sec  (  0.0%)
DIIS solution               ....       0.054 sec  (  0.2%)
SOSCF solution              ....       0.059 sec  (  0.2%)


           ************************************************************
           *        Program running with 6 parallel MPI-processes     *
           *              working on a common directory               *
           ************************************************************

------------------------------------------------------------------------------
                                ORCA  MP2 
------------------------------------------------------------------------------

Freezing NCore=16 chemical core electrons
MP2 will be done in the AO integral direct mode
The Q1-step will be done using symmetric double matrices
Dimension of the basis                    ...  344
Memory devoted for MP2                    ... 8000 MB   
Memory needed for all in one shot         ...  935 MB
Number of MOs that can be treated together...   50      
MP2 density construction                  ... relaxed
The MP2 gradient is requested => amplitudes will be stored on disk
Total number of MOs              ...   32
Number of MOs treated per batch  ...    6 
Number of batches necessary      ...    1 
OPERATORS   0/  0 PASS   0
-----------------------------------------------
 MP2 CORRELATION ENERGY   :     -2.069714258 Eh
-----------------------------------------------


---------------------
MP2 DENSITY FORMATION
---------------------

Completing the external part of the density      ... done
Storing the unrelaxed density                    ... done

Calculating G(D)                                 ... done
Completing the Lagrangian                        ... done
Solving the Z-vector equations                   ... 

------------------------------------------------------------------------------
                           ORCA CP-SCF CALCULATION
------------------------------------------------------------------------------

Input orbitals are from        ... 12h2o.su.etal.mol0,1,3,6,7,8,9,11-orca.engrad-mp2.def2tzvp.frozencore.gbw
Input Perturbation             ... 12h2o.su.etal.mol0,1,3,6,7,8,9,11-orca.engrad-mp2.def2tzvp.frozencore.pin.tmp
Wavefunction output            ... 12h2o.su.etal.mol0,1,3,6,7,8,9,11-orca.engrad-mp2.def2tzvp.frozencore.pout.tmp
Perturbation mode              ... Real perturbation (singlet)
Solver                         ... POPLE
Max. number of iterations      ... 128
Convergence tolerance          ... 1.000e-08
Integral handling              ... Direct
Number of perturbations        ... 1
Number of operators            ... 1
Orbital ranges used for CP-SCF:
 Operator 0:  Orbitals   0... 39  to  40...343
Variables per vector in CP-SCF ... 12160
Number of vectors sought       ... 1
     CP-SCF ITERATION   0: 
     CP-SCF ITERATION   1:      0.001066195581
     CP-SCF ITERATION   2:      0.000028282860
     CP-SCF ITERATION   3:      0.000001298149
     CP-SCF ITERATION   4:      0.000000133096
     CP-SCF ITERATION   5:      0.000000013997
     CP-SCF ITERATION   6:      0.000000000757
                                                 ... done
Finalizing the relaxed density                   ... done
Transforming P to the AO basis                   ... done
Storing the relaxed density                      ... done

------------------------------------
ENERGY WEIGHTED DENSITY FINALIZATION
------------------------------------

Gathering the parts of the W-matrix              ...                                                      done
Forming the Z-density                            ... done
Transforming Z to the AO basis                   ... done
Calculating G(Z)                                 ... done
Finalizing the W-matrix                          ...                                                      done
Transforming W to the AO basis and storing       ... done

                *********************************************
                * UNRELAXED MP2 DENSITY POPULATION ANALYSIS *
                *********************************************

------------------------------------------------------------------------------
                           ORCA POPULATION ANALYSIS
------------------------------------------------------------------------------
Input electron density              ... 12h2o.su.etal.mol0,1,3,6,7,8,9,11-orca.engrad-mp2.def2tzvp.frozencore.pmp2ur
BaseName (.gbw .S,...)              ... 12h2o.su.etal.mol0,1,3,6,7,8,9,11-orca.engrad-mp2.def2tzvp.frozencore

                    ********************************
                    * MULLIKEN POPULATION ANALYSIS *
                    ********************************

-----------------------
MULLIKEN ATOMIC CHARGES
-----------------------
   0 O :   -0.792248
   1 H :    0.366540
   2 H :    0.407100
   3 O :   -0.792248
   4 H :    0.366540
   5 H :    0.407100
   6 O :   -0.721517
   7 H :    0.381772
   8 H :    0.335193
   9 O :   -0.735092
  10 H :    0.393849
  11 H :    0.334024
  12 O :   -0.735092
  13 H :    0.393849
  14 H :    0.334024
  15 O :   -0.721517
  16 H :    0.381772
  17 H :    0.335193
  18 O :   -0.733028
  19 H :    0.360554
  20 H :    0.402853
  21 O :   -0.733028
  22 H :    0.360554
  23 H :    0.402853
Sum of atomic charges:   -0.0000000

--------------------------------
MULLIKEN REDUCED ORBITAL CHARGES
--------------------------------
  0 O s       :     3.802679  s :     3.802679
      pz      :     1.718964  p :     4.935813
      px      :     1.435201
      py      :     1.781648
      dz2     :     0.009293  d :     0.049780
      dxz     :     0.009919
      dyz     :     0.010535
      dx2y2   :     0.007893
      dxy     :     0.012141
      f0      :     0.000455  f :     0.003976
      f+1     :     0.000683
      f-1     :     0.000536
      f+2     :     0.000433
      f-2     :     0.000713
      f+3     :     0.000459
      f-3     :     0.000697
  1 H s       :     0.586776  s :     0.586776
      pz      :     0.017341  p :     0.046685
      px      :     0.014116
      py      :     0.015227
  2 H s       :     0.535486  s :     0.535486
      pz      :     0.010707  p :     0.057414
      px      :     0.032922
      py      :     0.013785
  3 O s       :     3.802679  s :     3.802679
      pz      :     1.718964  p :     4.935813
      px      :     1.435201
      py      :     1.781648
      dz2     :     0.009293  d :     0.049780
      dxz     :     0.009919
      dyz     :     0.010535
      dx2y2   :     0.007893
      dxy     :     0.012141
      f0      :     0.000455  f :     0.003976
      f+1     :     0.000683
      f-1     :     0.000536
      f+2     :     0.000433
      f-2     :     0.000713
      f+3     :     0.000459
      f-3     :     0.000697
  4 H s       :     0.586776  s :     0.586776
      pz      :     0.017341  p :     0.046685
      px      :     0.014116
      py      :     0.015227
  5 H s       :     0.535486  s :     0.535486
      pz      :     0.010707  p :     0.057414
      px      :     0.032922
      py      :     0.013785
  6 O s       :     3.806419  s :     3.806419
      pz      :     1.543362  p :     4.858919
      px      :     1.511532
      py      :     1.804024
      dz2     :     0.016711  d :     0.052130
      dxz     :     0.006601
      dyz     :     0.008452
      dx2y2   :     0.007562
      dxy     :     0.012804
      f0      :     0.000629  f :     0.004050
      f+1     :     0.000742
      f-1     :     0.000539
      f+2     :     0.000415
      f-2     :     0.000420
      f+3     :     0.000435
      f-3     :     0.000870
  7 H s       :     0.567992  s :     0.567992
      pz      :     0.024405  p :     0.050236
      px      :     0.012174
      py      :     0.013658
  8 H s       :     0.618239  s :     0.618239
      pz      :     0.011778  p :     0.046568
      px      :     0.018188
      py      :     0.016602
  9 O s       :     3.805162  s :     3.805162
      pz      :     1.585380  p :     4.874788
      px      :     1.429317
      py      :     1.860091
      dz2     :     0.015667  d :     0.051110
      dxz     :     0.007947
      dyz     :     0.008065
      dx2y2   :     0.008576
      dxy     :     0.010855
      f0      :     0.000565  f :     0.004032
      f+1     :     0.000800
      f-1     :     0.000497
      f+2     :     0.000440
      f-2     :     0.000402
      f+3     :     0.000490
      f-3     :     0.000838
 10 H s       :     0.555432  s :     0.555432
      pz      :     0.025010  p :     0.050719
      px      :     0.011757
      py      :     0.013953
 11 H s       :     0.620988  s :     0.620988
      pz      :     0.010735  p :     0.044988
      px      :     0.018173
      py      :     0.016081
 12 O s       :     3.805162  s :     3.805162
      pz      :     1.585380  p :     4.874788
      px      :     1.429317
      py      :     1.860091
      dz2     :     0.015667  d :     0.051110
      dxz     :     0.007947
      dyz     :     0.008065
      dx2y2   :     0.008576
      dxy     :     0.010855
      f0      :     0.000565  f :     0.004032
      f+1     :     0.000800
      f-1     :     0.000497
      f+2     :     0.000440
      f-2     :     0.000402
      f+3     :     0.000490
      f-3     :     0.000838
 13 H s       :     0.555432  s :     0.555432
      pz      :     0.025010  p :     0.050719
      px      :     0.011757
      py      :     0.013953
 14 H s       :     0.620988  s :     0.620988
      pz      :     0.010735  p :     0.044988
      px      :     0.018173
      py      :     0.016081
 15 O s       :     3.806419  s :     3.806419
      pz      :     1.543362  p :     4.858919
      px      :     1.511532
      py      :     1.804024
      dz2     :     0.016711  d :     0.052130
      dxz     :     0.006601
      dyz     :     0.008452
      dx2y2   :     0.007562
      dxy     :     0.012804
      f0      :     0.000629  f :     0.004050
      f+1     :     0.000742
      f-1     :     0.000539
      f+2     :     0.000415
      f-2     :     0.000420
      f+3     :     0.000435
      f-3     :     0.000870
 16 H s       :     0.567992  s :     0.567992
      pz      :     0.024405  p :     0.050236
      px      :     0.012174
      py      :     0.013658
 17 H s       :     0.618239  s :     0.618239
      pz      :     0.011778  p :     0.046568
      px      :     0.018188
      py      :     0.016602
 18 O s       :     3.790871  s :     3.790871
      pz      :     1.514231  p :     4.885985
      px      :     1.775863
      py      :     1.595891
      dz2     :     0.017522  d :     0.052189
      dxz     :     0.007872
      dyz     :     0.006730
      dx2y2   :     0.008047
      dxy     :     0.012018
      f0      :     0.000630  f :     0.003983
      f+1     :     0.000530
      f-1     :     0.000756
      f+2     :     0.000414
      f-2     :     0.000424
      f+3     :     0.000805
      f-3     :     0.000424
 19 H s       :     0.594064  s :     0.594064
      pz      :     0.019322  p :     0.045382
      px      :     0.013623
      py      :     0.012437
 20 H s       :     0.546514  s :     0.546514
      pz      :     0.010055  p :     0.050633
      px      :     0.015838
      py      :     0.024740
 21 O s       :     3.790871  s :     3.790871
      pz      :     1.514231  p :     4.885985
      px      :     1.775863
      py      :     1.595891
      dz2     :     0.017522  d :     0.052189
      dxz     :     0.007872
      dyz     :     0.006730
      dx2y2   :     0.008047
      dxy     :     0.012018
      f0      :     0.000630  f :     0.003983
      f+1     :     0.000530
      f-1     :     0.000756
      f+2     :     0.000414
      f-2     :     0.000424
      f+3     :     0.000805
      f-3     :     0.000424
 22 H s       :     0.594064  s :     0.594064
      pz      :     0.019322  p :     0.045382
      px      :     0.013623
      py      :     0.012437
 23 H s       :     0.546514  s :     0.546514
      pz      :     0.010055  p :     0.050633
      px      :     0.015838
      py      :     0.024740


                     *******************************
                     * LOEWDIN POPULATION ANALYSIS *
                     *******************************

----------------------
LOEWDIN ATOMIC CHARGES
----------------------
   0 O :   -0.322870
   1 H :    0.161556
   2 H :    0.153391
   3 O :   -0.322870
   4 H :    0.161556
   5 H :    0.153391
   6 O :   -0.341526
   7 H :    0.154180
   8 H :    0.158140
   9 O :   -0.327382
  10 H :    0.156588
  11 H :    0.162078
  12 O :   -0.327382
  13 H :    0.156588
  14 H :    0.162078
  15 O :   -0.341526
  16 H :    0.154180
  17 H :    0.158140
  18 O :   -0.283967
  19 H :    0.168405
  20 H :    0.161408
  21 O :   -0.283967
  22 H :    0.168405
  23 H :    0.161408

-------------------------------
LOEWDIN REDUCED ORBITAL CHARGES
-------------------------------
  0 O s       :     3.450680  s :     3.450680
      pz      :     1.673494  p :     4.810239
      px      :     1.399068
      py      :     1.737677
      dz2     :     0.010490  d :     0.057222
      dxz     :     0.012264
      dyz     :     0.010915
      dx2y2   :     0.009413
      dxy     :     0.014140
      f0      :     0.000470  f :     0.004729
      f+1     :     0.000843
      f-1     :     0.000642
      f+2     :     0.000411
      f-2     :     0.001012
      f+3     :     0.000475
      f-3     :     0.000876
  1 H s       :     0.669879  s :     0.669879
      pz      :     0.067442  p :     0.168565
      px      :     0.047292
      py      :     0.053832
  2 H s       :     0.645468  s :     0.645468
      pz      :     0.034158  p :     0.201141
      px      :     0.118423
      py      :     0.048559
  3 O s       :     3.450680  s :     3.450680
      pz      :     1.673494  p :     4.810239
      px      :     1.399068
      py      :     1.737677
      dz2     :     0.010490  d :     0.057222
      dxz     :     0.012264
      dyz     :     0.010915
      dx2y2   :     0.009413
      dxy     :     0.014140
      f0      :     0.000470  f :     0.004729
      f+1     :     0.000843
      f-1     :     0.000642
      f+2     :     0.000411
      f-2     :     0.001012
      f+3     :     0.000475
      f-3     :     0.000876
  4 H s       :     0.669879  s :     0.669879
      pz      :     0.067442  p :     0.168565
      px      :     0.047292
      py      :     0.053832
  5 H s       :     0.645468  s :     0.645468
      pz      :     0.034158  p :     0.201141
      px      :     0.118423
      py      :     0.048559
  6 O s       :     3.463685  s :     3.463685
      pz      :     1.526575  p :     4.813274
      px      :     1.511906
      py      :     1.774793
      dz2     :     0.021094  d :     0.059686
      dxz     :     0.007220
      dyz     :     0.007731
      dx2y2   :     0.007807
      dxy     :     0.015835
      f0      :     0.000856  f :     0.004882
      f+1     :     0.000984
      f-1     :     0.000716
      f+2     :     0.000388
      f-2     :     0.000417
      f+3     :     0.000375
      f-3     :     0.001147
  7 H s       :     0.672517  s :     0.672517
      pz      :     0.094187  p :     0.173302
      px      :     0.036475
      py      :     0.042640
  8 H s       :     0.681028  s :     0.681028
      pz      :     0.032055  p :     0.160832
      px      :     0.072805
      py      :     0.055972
  9 O s       :     3.460823  s :     3.460823
      pz      :     1.547624  p :     4.802063
      px      :     1.433585
      py      :     1.820854
      dz2     :     0.020324  d :     0.059672
      dxz     :     0.009146
      dyz     :     0.007141
      dx2y2   :     0.010178
      dxy     :     0.012883
      f0      :     0.000767  f :     0.004824
      f+1     :     0.001143
      f-1     :     0.000583
      f+2     :     0.000413
      f-2     :     0.000412
      f+3     :     0.000448
      f-3     :     0.001059
 10 H s       :     0.668164  s :     0.668164
      pz      :     0.095795  p :     0.175248
      px      :     0.036198
      py      :     0.043255
 11 H s       :     0.680829  s :     0.680829
      pz      :     0.031692  p :     0.157094
      px      :     0.075080
      py      :     0.050321
 12 O s       :     3.460823  s :     3.460823
      pz      :     1.547624  p :     4.802063
      px      :     1.433585
      py      :     1.820854
      dz2     :     0.020324  d :     0.059672
      dxz     :     0.009146
      dyz     :     0.007141
      dx2y2   :     0.010178
      dxy     :     0.012883
      f0      :     0.000767  f :     0.004824
      f+1     :     0.001143
      f-1     :     0.000583
      f+2     :     0.000413
      f-2     :     0.000412
      f+3     :     0.000448
      f-3     :     0.001059
 13 H s       :     0.668164  s :     0.668164
      pz      :     0.095795  p :     0.175248
      px      :     0.036198
      py      :     0.043255
 14 H s       :     0.680829  s :     0.680829
      pz      :     0.031692  p :     0.157094
      px      :     0.075080
      py      :     0.050321
 15 O s       :     3.463685  s :     3.463685
      pz      :     1.526575  p :     4.813274
      px      :     1.511906
      py      :     1.774793
      dz2     :     0.021094  d :     0.059686
      dxz     :     0.007220
      dyz     :     0.007731
      dx2y2   :     0.007807
      dxy     :     0.015835
      f0      :     0.000856  f :     0.004882
      f+1     :     0.000984
      f-1     :     0.000716
      f+2     :     0.000388
      f-2     :     0.000417
      f+3     :     0.000375
      f-3     :     0.001147
 16 H s       :     0.672517  s :     0.672517
      pz      :     0.094187  p :     0.173302
      px      :     0.036475
      py      :     0.042640
 17 H s       :     0.681028  s :     0.681028
      pz      :     0.032055  p :     0.160832
      px      :     0.072805
      py      :     0.055972
 18 O s       :     3.447315  s :     3.447315
      pz      :     1.506173  p :     4.772134
      px      :     1.716869
      py      :     1.549092
      dz2     :     0.022076  d :     0.059645
      dxz     :     0.007341
      dyz     :     0.007460
      dx2y2   :     0.009009
      dxy     :     0.013760
      f0      :     0.000890  f :     0.004873
      f+1     :     0.000726
      f-1     :     0.000992
      f+2     :     0.000389
      f-2     :     0.000427
      f+3     :     0.001040
      f-3     :     0.000408
 19 H s       :     0.669125  s :     0.669125
      pz      :     0.082218  p :     0.162470
      px      :     0.042682
      py      :     0.037570
 20 H s       :     0.660264  s :     0.660264
      pz      :     0.030101  p :     0.178328
      px      :     0.058874
      py      :     0.089353
 21 O s       :     3.447315  s :     3.447315
      pz      :     1.506173  p :     4.772134
      px      :     1.716869
      py      :     1.549092
      dz2     :     0.022076  d :     0.059645
      dxz     :     0.007341
      dyz     :     0.007460
      dx2y2   :     0.009009
      dxy     :     0.013760
      f0      :     0.000890  f :     0.004873
      f+1     :     0.000726
      f-1     :     0.000992
      f+2     :     0.000389
      f-2     :     0.000427
      f+3     :     0.001040
      f-3     :     0.000408
 22 H s       :     0.669125  s :     0.669125
      pz      :     0.082218  p :     0.162470
      px      :     0.042682
      py      :     0.037570
 23 H s       :     0.660264  s :     0.660264
      pz      :     0.030101  p :     0.178328
      px      :     0.058874
      py      :     0.089353


                      *****************************
                      * MAYER POPULATION ANALYSIS *
                      *****************************

  NA   - Mulliken gross atomic population
[...]
      f-1     :     0.000735
      f+2     :     0.000415
      f-2     :     0.000422
      f+3     :     0.000782
      f-3     :     0.000423
 19 H s       :     0.599091  s :     0.599091
      pz      :     0.018563  p :     0.046015
      px      :     0.014465
      py      :     0.012986
 20 H s       :     0.564389  s :     0.564389
      pz      :     0.010626  p :     0.051000
      px      :     0.016113
      py      :     0.024261
 21 O s       :     3.789562  s :     3.789562
      pz      :     1.509181  p :     4.859892
      px      :     1.756195
      py      :     1.594516
      dz2     :     0.016212  d :     0.050273
      dxz     :     0.007859
      dyz     :     0.006690
      dx2y2   :     0.008018
      dxy     :     0.011494
      f0      :     0.000612  f :     0.003909
      f+1     :     0.000521
      f-1     :     0.000735
      f+2     :     0.000415
      f-2     :     0.000422
      f+3     :     0.000782
      f-3     :     0.000423
 22 H s       :     0.599091  s :     0.599091
      pz      :     0.018563  p :     0.046015
      px      :     0.014465
      py      :     0.012986
 23 H s       :     0.564389  s :     0.564389
      pz      :     0.010626  p :     0.051000
      px      :     0.016113
      py      :     0.024261


                     *******************************
                     * LOEWDIN POPULATION ANALYSIS *
                     *******************************

----------------------
LOEWDIN ATOMIC CHARGES
----------------------
   0 O :   -0.315293
   1 H :    0.163334
   2 H :    0.145370
   3 O :   -0.315293
   4 H :    0.163334
   5 H :    0.145370
   6 O :   -0.342418
   7 H :    0.150969
   8 H :    0.159439
   9 O :   -0.325237
  10 H :    0.152002
  11 H :    0.162564
  12 O :   -0.325237
  13 H :    0.152002
  14 H :    0.162564
  15 O :   -0.342418
  16 H :    0.150969
  17 H :    0.159439
  18 O :   -0.276813
  19 H :    0.169975
  20 H :    0.156108
  21 O :   -0.276813
  22 H :    0.169975
  23 H :    0.156108

-------------------------------
LOEWDIN REDUCED ORBITAL CHARGES
-------------------------------
  0 O s       :     3.452082  s :     3.452082
      pz      :     1.668402  p :     4.801598
      px      :     1.403013
      py      :     1.730183
      dz2     :     0.010585  d :     0.056844
      dxz     :     0.011951
      dyz     :     0.010885
      dx2y2   :     0.009461
      dxy     :     0.013961
      f0      :     0.000474  f :     0.004769
      f+1     :     0.000854
      f-1     :     0.000644
      f+2     :     0.000412
      f-2     :     0.001014
      f+3     :     0.000480
      f-3     :     0.000892
  1 H s       :     0.668304  s :     0.668304
      pz      :     0.067346  p :     0.168361
      px      :     0.046880
      py      :     0.054135
  2 H s       :     0.653209  s :     0.653209
      pz      :     0.034694  p :     0.201421
      px      :     0.117792
      py      :     0.048934
  3 O s       :     3.452082  s :     3.452082
      pz      :     1.668402  p :     4.801598
      px      :     1.403013
      py      :     1.730183
      dz2     :     0.010585  d :     0.056844
      dxz     :     0.011951
      dyz     :     0.010885
      dx2y2   :     0.009461
      dxy     :     0.013961
      f0      :     0.000474  f :     0.004769
      f+1     :     0.000854
      f-1     :     0.000644
      f+2     :     0.000412
      f-2     :     0.001014
      f+3     :     0.000480
      f-3     :     0.000892
  4 H s       :     0.668304  s :     0.668304
      pz      :     0.067346  p :     0.168361
      px      :     0.046880
      py      :     0.054135
  5 H s       :     0.653209  s :     0.653209
      pz      :     0.034694  p :     0.201421
      px      :     0.117792
      py      :     0.048934
  6 O s       :     3.465113  s :     3.465113
      pz      :     1.527752  p :     4.813910
      px      :     1.513607
      py      :     1.772551
      dz2     :     0.020491  d :     0.058496
      dxz     :     0.007093
      dyz     :     0.007758
      dx2y2   :     0.007730
      dxy     :     0.015424
      f0      :     0.000860  f :     0.004900
      f+1     :     0.000992
      f-1     :     0.000714
      f+2     :     0.000389
      f-2     :     0.000417
      f+3     :     0.000375
      f-3     :     0.001153
  7 H s       :     0.675483  s :     0.675483
      pz      :     0.093322  p :     0.173548
      px      :     0.036763
      py      :     0.043462
  8 H s       :     0.679350  s :     0.679350
      pz      :     0.032494  p :     0.161210
      px      :     0.072130
      py      :     0.056586
  9 O s       :     3.462164  s :     3.462164
      pz      :     1.545488  p :     4.799585
      px      :     1.436263
      py      :     1.817834
      dz2     :     0.019946  d :     0.058642
      dxz     :     0.008960
      dyz     :     0.007221
      dx2y2   :     0.009942
      dxy     :     0.012572
      f0      :     0.000770  f :     0.004846
      f+1     :     0.001153
      f-1     :     0.000583
      f+2     :     0.000415
      f-2     :     0.000410
      f+3     :     0.000450
      f-3     :     0.001065
 10 H s       :     0.672527  s :     0.672527
      pz      :     0.095196  p :     0.175471
      px      :     0.036136
      py      :     0.044139
 11 H s       :     0.679862  s :     0.679862
      pz      :     0.032269  p :     0.157574
      px      :     0.074200
      py      :     0.051104
 12 O s       :     3.462164  s :     3.462164
      pz      :     1.545488  p :     4.799585
      px      :     1.436263
      py      :     1.817834
      dz2     :     0.019946  d :     0.058642
      dxz     :     0.008960
      dyz     :     0.007221
      dx2y2   :     0.009942
      dxy     :     0.012572
      f0      :     0.000770  f :     0.004846
      f+1     :     0.001153
      f-1     :     0.000583
      f+2     :     0.000415
      f-2     :     0.000410
      f+3     :     0.000450
      f-3     :     0.001065
 13 H s       :     0.672527  s :     0.672527
      pz      :     0.095196  p :     0.175471
      px      :     0.036136
      py      :     0.044139
 14 H s       :     0.679862  s :     0.679862
      pz      :     0.032269  p :     0.157574
      px      :     0.074200
      py      :     0.051104
 15 O s       :     3.465113  s :     3.465113
      pz      :     1.527752  p :     4.813910
      px      :     1.513607
      py      :     1.772551
      dz2     :     0.020491  d :     0.058496
      dxz     :     0.007093
      dyz     :     0.007758
      dx2y2   :     0.007730
      dxy     :     0.015424
      f0      :     0.000860  f :     0.004900
      f+1     :     0.000992
      f-1     :     0.000714
      f+2     :     0.000389
      f-2     :     0.000417
      f+3     :     0.000375
      f-3     :     0.001153
 16 H s       :     0.675483  s :     0.675483
      pz      :     0.093322  p :     0.173548
      px      :     0.036763
      py      :     0.043462
 17 H s       :     0.679350  s :     0.679350
      pz      :     0.032494  p :     0.161210
      px      :     0.072130
      py      :     0.056586
 18 O s       :     3.448036  s :     3.448036
      pz      :     1.508451  p :     4.765036
      px      :     1.705670
      py      :     1.550915
      dz2     :     0.021408  d :     0.058848
      dxz     :     0.007373
      dyz     :     0.007336
      dx2y2   :     0.009098
      dxy     :     0.013633
      f0      :     0.000889  f :     0.004893
      f+1     :     0.000727
      f-1     :     0.000999
      f+2     :     0.000391
      f-2     :     0.000427
      f+3     :     0.001051
      f-3     :     0.000409
 19 H s       :     0.667500  s :     0.667500
      pz      :     0.081405  p :     0.162525
      px      :     0.043250
      py      :     0.037871
 20 H s       :     0.665257  s :     0.665257
      pz      :     0.030446  p :     0.178635
      px      :     0.059160
      py      :     0.089030
 21 O s       :     3.448036  s :     3.448036
      pz      :     1.508451  p :     4.765036
      px      :     1.705670
      py      :     1.550915
      dz2     :     0.021408  d :     0.058848
      dxz     :     0.007373
      dyz     :     0.007336
      dx2y2   :     0.009098
      dxy     :     0.013633
      f0      :     0.000889  f :     0.004893
      f+1     :     0.000727
      f-1     :     0.000999
      f+2     :     0.000391
      f-2     :     0.000427
      f+3     :     0.001051
      f-3     :     0.000409
 22 H s       :     0.667500  s :     0.667500
      pz      :     0.081405  p :     0.162525
      px      :     0.043250
      py      :     0.037871
 23 H s       :     0.665257  s :     0.665257
      pz      :     0.030446  p :     0.178635
      px      :     0.059160
      py      :     0.089030


                      *****************************
                      * MAYER POPULATION ANALYSIS *
                      *****************************

  NA   - Mulliken gross atomic population
  ZA   - Total nuclear charge
  QA   - Mulliken gross atomic charge
  VA   - Mayer's total valence
  BVA  - Mayer's bonded valence
  FA   - Mayer's free valence

  ATOM       NA         ZA         QA         VA         BVA        FA
  0 O      8.7608     8.0000    -0.7608     2.0352     1.6444     0.3908
  1 H      0.6409     1.0000     0.3591     0.8924     0.8469     0.0455
  2 H      0.6175     1.0000     0.3825     0.9067     0.8620     0.0447
  3 O      8.7608     8.0000    -0.7608     2.0352     1.6444     0.3908
  4 H      0.6409     1.0000     0.3591     0.8924     0.8469     0.0455
  5 H      0.6175     1.0000     0.3825     0.9067     0.8620     0.0447
  6 O      8.7034     8.0000    -0.7034     2.0751     1.6923     0.3828
  7 H      0.6314     1.0000     0.3686     0.9007     0.8566     0.0441
  8 H      0.6720     1.0000     0.3280     0.9163     0.8676     0.0487
  9 O      8.7120     8.0000    -0.7120     2.0828     1.6958     0.3870
 10 H      0.6231     1.0000     0.3769     0.9010     0.8578     0.0432
 11 H      0.6748     1.0000     0.3252     0.9257     0.8755     0.0502
 12 O      8.7120     8.0000    -0.7120     2.0828     1.6958     0.3870
 13 H      0.6231     1.0000     0.3769     0.9010     0.8578     0.0432
 14 H      0.6748     1.0000     0.3252     0.9257     0.8755     0.0502
 15 O      8.7034     8.0000    -0.7034     2.0751     1.6923     0.3828
 16 H      0.6314     1.0000     0.3686     0.9007     0.8566     0.0441
 17 H      0.6720     1.0000     0.3280     0.9163     0.8676     0.0487
 18 O      8.7036     8.0000    -0.7036     2.0941     1.7109     0.3832
 19 H      0.6451     1.0000     0.3549     0.8943     0.8477     0.0465
 20 H      0.6154     1.0000     0.3846     0.9018     0.8591     0.0427
 21 O      8.7036     8.0000    -0.7036     2.0941     1.7109     0.3832
 22 H      0.6451     1.0000     0.3549     0.8943     0.8477     0.0465
 23 H      0.6154     1.0000     0.3846     0.9018     0.8591     0.0427

  Mayer bond orders larger than 0.100000
B(  0-O ,  1-H ) :   0.8356 B(  0-O ,  2-H ) :   0.7335 B(  2-H , 21-O ) :   0.1132 
B(  3-O ,  4-H ) :   0.8356 B(  3-O ,  5-H ) :   0.7335 B(  5-H , 18-O ) :   0.1132 
B(  6-O ,  7-H ) :   0.8209 B(  6-O ,  8-H ) :   0.8547 B(  9-O , 10-H ) :   0.8031 
B(  9-O , 11-H ) :   0.8474 B( 12-O , 13-H ) :   0.8031 B( 12-O , 14-H ) :   0.8474 
B( 15-O , 16-H ) :   0.8209 B( 15-O , 17-H ) :   0.8547 B( 18-O , 19-H ) :   0.8380 
B( 18-O , 20-H ) :   0.7844 B( 21-O , 22-H ) :   0.8380 B( 21-O , 23-H ) :   0.7844 



----------------------------------
MP2 DERIVATIVE INTEGRAL GENERATION
----------------------------------


Input Wavefunction Amplitudes       ... 12h2o.su.etal.mol0,1,3,6,7,8,9,11-orca.engrad-mp2.def2tzvp.frozencore.mp2tsaa.tmp
Input Correlated Electron Density   ... 12h2o.su.etal.mol0,1,3,6,7,8,9,11-orca.engrad-mp2.def2tzvp.frozencore.pmp2re
Input Energy Weighted Density       ... 12h2o.su.etal.mol0,1,3,6,7,8,9,11-orca.engrad-mp2.def2tzvp.frozencore.wmp2.tmp
Input SCF Electron Density          ... 12h2o.su.etal.mol0,1,3,6,7,8,9,11-orca.engrad-mp2.def2tzvp.frozencore.scfp

One-Electron Terms    ...
                        ... One-Electron Terms done
Prescreening matrices              ... done

Batch handling in the gradient evaluation:
Memory available                      ... 8000.0 MB
Memory per occupied orbital in Q2     ...   28.9 MB
Memory per occupied orbital in Q3     ...    0.1 MB
Total memory requirement per |i>      ...   29.0 MB
Max. Number of orbitals possible      ...    275
Number of orbitals treated per batch  ...     32
Number of batches to be done          ...      1
Batch   0: i=    8 ...    39

---------------------------------------
MP2 TOTAL ENERGY:     -610.581835234 Eh
---------------------------------------

The final MP2 gradient
  0:   0.00451608   0.00197191  -0.00028063
  1:  -0.00076629  -0.00094171  -0.00144765
  2:  -0.00547282   0.00009398  -0.00245069
  3:  -0.00451608  -0.00197191  -0.00028063
  4:   0.00076629   0.00094171  -0.00144765
  5:   0.00547282  -0.00009398  -0.00245069
  6:  -0.00817934   0.00749228  -0.00125342
  7:  -0.00150817  -0.00308821   0.00312136
  8:   0.00885464  -0.00700511   0.00027094
  9:   0.01758432  -0.00834008  -0.00225963
 10:   0.00175018   0.00138196   0.00020614
 11:  -0.01704217   0.00879848   0.00143715
 12:  -0.01758432   0.00834008  -0.00225963
 13:  -0.00175018  -0.00138196   0.00020614
 14:   0.01704217  -0.00879848   0.00143715
 15:   0.00817934  -0.00749228  -0.00125342
 16:   0.00150817   0.00308821   0.00312136
 17:  -0.00885464   0.00700511   0.00027094
 18:   0.00187727   0.00185839   0.01026624
 19:  -0.00285754  -0.00024656  -0.00801921
 20:  -0.00382211  -0.00319603   0.00040939
 21:  -0.00187727  -0.00185839   0.01026624
 22:   0.00285754   0.00024656  -0.00801921
 23:   0.00382211   0.00319603   0.00040939

-----------------------------------
NORM OF THE MP2 GRADIENT:  0.051114
-----------------------------------

-------------------------   --------------------
FINAL SINGLE POINT ENERGY      -610.581835233642
-------------------------   --------------------


                            ***************************************
                            *     ORCA property calculations      *
                            ***************************************

                                    ---------------------
                                    Active property flags
                                    ---------------------
   (+) Dipole Moment


------------------------------------------------------------------------------
                       ORCA ELECTRIC PROPERTIES CALCULATION
------------------------------------------------------------------------------

Dipole Moment Calculation                       ... on
Quadrupole Moment Calculation                   ... off
Polarizability Calculation                      ... off
GBWName                                         ... 12h2o.su.etal.mol0,1,3,6,7,8,9,11-orca.engrad-mp2.def2tzvp.frozencore.gbw
Electron density file                           ... 12h2o.su.etal.mol0,1,3,6,7,8,9,11-orca.engrad-mp2.def2tzvp.frozencore.scfp
The origin for moment calculation is the CENTER OF MASS  = (-0.000000, -0.000000  1.327624)

-------------
DIPOLE MOMENT
-------------
                                X             Y             Z
Electronic contribution:     -0.00000       0.00000       0.37325
Nuclear contribution   :     -0.00000      -0.00000       2.81375
                        -----------------------------------------
Total Dipole Moment    :     -0.00000       0.00000       3.18700
                        -----------------------------------------
Magnitude (a.u.)       :      3.18700
Magnitude (Debye)      :      8.10070



--------------------
Rotational spectrum 
--------------------
 
Rotational constants in cm-1:     0.030711     0.017981     0.013813 
Rotational constants in MHz :   920.683949   539.065246   414.105555 

 Dipole components along the rotational axes: 
x,y,z [a.u.] :     3.186997    -0.000000     0.000000 
x,y,z [Debye]:     8.100704    -0.000000     0.000000 

 

                         *** MP2 UNRELAXED DENSITY ***

------------------------------------------------------------------------------
                       ORCA ELECTRIC PROPERTIES CALCULATION
------------------------------------------------------------------------------

Dipole Moment Calculation                       ... on
Quadrupole Moment Calculation                   ... off
Polarizability Calculation                      ... off
GBWName                                         ... 12h2o.su.etal.mol0,1,3,6,7,8,9,11-orca.engrad-mp2.def2tzvp.frozencore.gbw
Electron density file                           ... 12h2o.su.etal.mol0,1,3,6,7,8,9,11-orca.engrad-mp2.def2tzvp.frozencore.pmp2ur
The origin for moment calculation is the CENTER OF MASS  = (-0.000000, -0.000000  1.327624)

-------------
DIPOLE MOMENT
-------------
                                X             Y             Z
Electronic contribution:     -0.00000       0.00000       0.35239
Nuclear contribution   :     -0.00000      -0.00000       2.81375
                        -----------------------------------------
Total Dipole Moment    :     -0.00000       0.00000       3.16613
                        -----------------------------------------
Magnitude (a.u.)       :      3.16613
Magnitude (Debye)      :      8.04767



--------------------
Rotational spectrum 
--------------------
 
Rotational constants in cm-1:     0.030711     0.017981     0.013813 
Rotational constants in MHz :   920.683949   539.065246   414.105555 

 Dipole components along the rotational axes: 
x,y,z [a.u.] :     3.166134    -0.000000     0.000000 
x,y,z [Debye]:     8.047672    -0.000000     0.000000 

 

                           *** MP2 RELAXED DENSITY ***

------------------------------------------------------------------------------
                       ORCA ELECTRIC PROPERTIES CALCULATION
------------------------------------------------------------------------------

Dipole Moment Calculation                       ... on
Quadrupole Moment Calculation                   ... off
Polarizability Calculation                      ... off
GBWName                                         ... 12h2o.su.etal.mol0,1,3,6,7,8,9,11-orca.engrad-mp2.def2tzvp.frozencore.gbw
Electron density file                           ... 12h2o.su.etal.mol0,1,3,6,7,8,9,11-orca.engrad-mp2.def2tzvp.frozencore.pmp2re
The origin for moment calculation is the CENTER OF MASS  = (-0.000000, -0.000000  1.327624)

-------------
DIPOLE MOMENT
-------------
                                X             Y             Z
Electronic contribution:     -0.00000       0.00000       0.33809
Nuclear contribution   :     -0.00000      -0.00000       2.81375
                        -----------------------------------------
Total Dipole Moment    :     -0.00000       0.00000       3.15184
                        -----------------------------------------
Magnitude (a.u.)       :      3.15184
Magnitude (Debye)      :      8.01133



--------------------
Rotational spectrum 
--------------------
 
Rotational constants in cm-1:     0.030711     0.017981     0.013813 
Rotational constants in MHz :   920.683949   539.065246   414.105555 

 Dipole components along the rotational axes: 
x,y,z [a.u.] :     3.151837    -0.000000     0.000000 
x,y,z [Debye]:     8.011332    -0.000000     0.000000 

 

Timings for individual modules:

Sum of individual times         ...      173.666 sec (=   2.894 min)
GTO integral calculation        ...        0.996 sec (=   0.017 min)   0.6 %
SCF iterations                  ...       24.949 sec (=   0.416 min)  14.4 %
MP2 module                      ...      147.720 sec (=   2.462 min)  85.1 %
                             ****ORCA TERMINATED NORMALLY****
TOTAL RUN TIME: 0 days 0 hours 2 minutes 54 seconds 625 msec
