27
Energy:   -106.81551440
O    1.24010766   1.59949103   0.19503468
H    0.63442262   1.04187855   0.68334380
H    2.07905334   1.14098107   0.24162445
C   -1.40472496   3.39793213   0.63689536
H   -2.10246449   4.16295548   0.90670825
H   -0.54497347   3.84368860   0.18189247
H   -1.10665586   2.86174306   1.51356815
C   -2.06689895   2.42702399  -0.35832472
N   -2.55991758   1.70413875  -1.09931131
C    1.92414268  -2.62011591   1.69958993
H    2.57556628  -3.46870992   1.67871673
H    1.01035400  -2.85949888   1.19701145
H    1.71418561  -2.35654428   2.71514254
C    2.60393473  -1.43358638   0.99133118
N    3.11007080  -0.55016122   0.46400036
C    0.84729440   0.09664611  -2.71640247
H    0.06553287   0.78747987  -2.47870979
H    0.87602922  -0.05917014  -3.77460599
H    1.78551593   0.49316944  -2.38866978
C    0.58075185  -1.24407870  -2.00716904
N    0.38229880  -2.24230926  -1.47911252
C   -2.52910350  -1.64649163   0.25285569
H   -3.31039832  -1.85520594   0.95351033
H   -2.11633316  -2.56630991  -0.10554920
H   -2.92700288  -1.08966196  -0.56965017
C   -1.42602410  -0.82366532   0.94406672
N   -0.60473134  -0.21103373   1.45870475
