27
Energy:   -106.59640980
O   -0.08604799  -0.18700982  -2.69225088
H    0.07154774  -0.87669088  -2.04747536
H   -0.27958601   0.59089145  -2.16914048
C    3.05975692   0.37375569  -1.49209413
H    4.03263865   0.59426465  -1.87910463
H    2.31909142   0.86463145  -2.08821049
H    2.89627985  -0.68333334  -1.51924405
C    2.96082371   0.87131238  -0.03804820
N    2.88716345   1.24176595   1.04455509
C   -3.09747926  -0.83897719  -1.14117168
H   -2.60390280   0.02306191  -1.53887893
H   -4.14164477  -0.78917610  -1.36950770
H   -2.67890318  -1.72222378  -1.57656644
C   -2.90747895  -0.88013064   0.38650835
N   -2.76601509  -0.91077126   1.52393557
C    0.46572040  -1.95896230   2.25806978
H    0.36917703  -0.95475065   2.61463467
H    1.38228588  -2.37836291   2.61711009
H   -0.35714724  -2.54393783   2.61245879
C    0.46981586  -1.95872557   0.71807525
N    0.47286512  -1.95854932  -0.42852068
C   -0.34670226   2.54448967   1.95393570
H    0.17573588   3.47823054   1.96323913
H    0.20240307   1.82288431   2.52197455
H   -1.31719899   2.67447918   2.38537276
C   -0.49213431   2.05208450   0.50204498
N   -0.60041508   1.68546647  -0.57895366
