27
Energy:   -105.97216329
O    0.27098077   0.70090280  -2.07348211
H   -0.45295059   0.41728949  -1.51516435
H    0.74631395  -0.10444669  -2.27769377
C   -1.63710953  -0.33015384   2.57313254
H   -0.92286524  -1.05154814   2.91128270
H   -2.61319519  -0.60899625   2.91136733
H   -1.38501819   0.63263807   2.96604574
C   -1.62307674  -0.27626122   1.03413979
N   -1.61262870  -0.23613571  -0.11171026
C   -0.85477145   3.54046833  -0.91622786
H   -1.16288196   4.54158533  -1.13470630
H   -1.48218561   2.85141655  -1.44202078
H    0.16087250   3.40460928  -1.22430054
C   -0.97008351   3.28686269   0.59836361
N   -1.05593858   3.09804176   1.72604580
C   -0.26896744  -3.62051301  -0.78509383
H   -1.27952068  -3.30086368  -0.93174520
H   -0.03425358  -3.59360563   0.25849827
H   -0.15423259  -4.61949730  -1.15083334
C    0.68253059  -2.68150332  -1.54962788
N    1.39096412  -1.98236792  -2.11885823
C    2.55573345   0.30588274   0.46858480
H    1.81741513   1.06483938   0.31440619
H    2.94618716  -0.00911523  -0.47651904
H    3.34952869   0.69739395   1.06983948
C    1.91392557  -0.89657151   1.18537377
N    1.43607043  -1.79185335   1.71905575
