27
Energy:   -104.07653596
O    0.11334616  -2.24086399  -1.77134552
H    0.63345480  -1.44552113  -1.65667823
H   -0.24034136  -2.42389072  -0.90092136
C    3.53660392  -0.82981500   1.44251360
H    3.52413244  -1.60711489   2.17773433
H    4.54908888  -0.59898344   1.18465688
H    3.01173257  -1.15647144   0.56918392
C    2.85275323   0.42683422   2.01240917
N    2.34359531   1.36246669   2.43672233
C   -1.31190863   0.34010832   2.23114300
H   -0.34657007   0.74079500   2.46021031
H   -1.84109742   0.14300727   3.13999364
H   -1.86127011   1.04652547   1.64456320
C   -1.14896809  -0.96961777   1.43762680
N   -1.02765146  -1.94476837   0.84681791
C   -2.94864039  -0.88133082  -2.33822894
H   -3.99683251  -0.94705081  -2.54286119
H   -2.64463346  -1.72781150  -1.75861757
H   -2.40551955  -0.86660639  -3.26002177
C   -2.65925753   0.41036638  -1.55122455
N   -2.44379884   1.37209366  -0.96526401
C    0.55808367   2.82146047  -0.41857720
H   -0.04033713   3.21609481  -1.21296782
H    1.43765640   3.41980095  -0.30351387
H   -0.00395021   2.83476764   0.49182927
C    0.96234441   1.37316403  -0.75115906
N    1.26333491   0.29484151  -0.99878137
