27
Energy:   -106.53014770
O   -1.10246663  -1.05999816  -1.26197850
H   -1.20481462  -0.73502983  -0.36746616
H   -0.56946022  -1.84982944  -1.17086011
C   -3.14707074   1.25629657  -2.04148509
H   -3.98787352   1.87086364  -2.28696047
H   -3.39254456   0.63263161  -1.20740852
H   -2.89490057   0.64446899  -2.88230392
C   -1.94657884   2.14996664  -1.67847957
N   -1.05275806   2.81534464  -1.40820546
C    1.34160331  -2.69931589   2.39659512
H    2.31438966  -2.26324377   2.48839931
H    1.33566499  -3.66028913   2.86712065
H    0.62070561  -2.06595875   2.86994945
C    0.98761808  -2.85541179   0.90598165
N    0.72405998  -2.97163228  -0.20384783
C    2.05811534   0.13055784  -1.65848406
H    2.02797866  -0.87942939  -2.01050359
H    2.77519532   0.68514584  -2.22692714
H    1.09195822   0.57642943  -1.77090313
C    2.45997522   0.14427055  -0.17190389
N    2.75917816   0.15448029   0.93492262
C    0.23040464   2.29885834   1.93626036
H    0.18876370   2.93148723   1.07431668
H    1.25173745   2.08341722   2.17155485
H   -0.22962178   2.79484663   2.76527809
C   -0.51752647   0.98456511   1.64500040
N   -1.07439518   0.00601406   1.42814413
