27
Energy:   -108.41185044
O   -0.10599589   0.13696210   2.62827759
H   -0.33124436   0.86061643   2.04362438
H    0.13261455  -0.58046806   2.04125896
C   -3.12460426  -1.15581338   1.41450857
H   -2.78044881  -0.29092723   1.94217243
H   -2.54633716  -2.00666523   1.70871494
H   -4.15514185  -1.32784332   1.64537015
C   -2.96899916  -0.92841737  -0.10064096
N   -2.85314409  -0.75911071  -1.22873866
C   -0.37080411   1.66608167  -2.42508851
H    0.61704282   1.97429013  -2.69723954
H   -1.08554241   2.32850758  -2.86694841
H   -0.54304809   0.67004623  -2.77600803
C   -0.51597405   1.70264028  -0.89238203
N   -0.62405966   1.72985983   0.24878761
C    2.86211102   1.20695261   1.47034366
H    3.79747754   1.60177124   1.80814228
H    2.74733163   0.20540956   1.82900268
H    2.06337986   1.81322155   1.84366069
C    2.83065470   1.20760817  -0.06933490
N    2.80723405   1.20809626  -1.21569557
C    0.73675717  -1.90064865  -1.99702711
H    0.97854149  -2.88485201  -2.34022423
H    1.49528036  -1.21590710  -2.31431352
H   -0.20634556  -1.60231042  -2.40501073
C    0.65442489  -1.89903153  -0.45923038
N    0.59312477  -1.89782751   0.68572919
