27
Energy:   -108.10565585
O    0.26186903  -0.47737659  -2.06700704
H    0.84195708  -0.66452490  -1.32896557
H   -0.46512189  -1.09121375  -1.96250829
C   -2.25247384   1.29998706  -0.50734752
H   -2.95368356   2.08770197  -0.32648754
H   -2.66781582   0.60680438  -1.20869472
H   -1.34852117   1.71156012  -0.90531269
C   -1.94648962   0.57157249   0.81453972
N   -1.71867046   0.02923473   1.79874486
C   -1.45270334  -3.47171246   1.19188146
H   -1.31110364  -2.73021702   1.95019157
H   -0.58876708  -4.10107227   1.14269337
H   -2.31222366  -4.06366110   1.42793383
C   -1.66285707  -2.78113917  -0.16846553
N   -1.81932608  -2.26697597  -1.18130570
C    2.23505555   2.20743658  -2.08080644
H    2.86974299   3.01168338  -2.38944720
H    1.54494057   1.97650042  -2.86522272
H    2.83105995   1.34543503  -1.86486394
C    1.45702757   2.62293643  -0.81841492
N    0.87775037   2.93229495   0.12149294
C    1.51391609   0.57206578   2.64852207
H    0.69175279   0.18836940   3.21572994
H    1.34708469   1.60696878   2.43394772
H    2.41688191   0.46583599   3.21267369
C    1.63773360  -0.21229487   1.32903444
N    1.72992136  -0.79628703   0.34661593
