27
Energy:   -108.63310006
O   -1.57236757   1.53041354   1.43514583
H   -1.62922922   0.74018714   0.89798585
H   -0.64357574   1.76162906   1.42433064
C   -0.35067861  -1.16282295   3.18166081
H   -0.21070234  -0.12203711   2.97654701
H   -0.21213893  -1.34204265   4.22740750
H   -1.34109999  -1.45213262   2.89835092
C    0.67393485  -1.98644593   2.37953086
N    1.43680614  -2.59967068   1.78230866
C    2.70312361  -0.15437813  -0.33480147
H    3.68284332  -0.23523717   0.08770450
H    2.77920376   0.16357955  -1.35363110
H    2.21727508  -1.10683002  -0.29374433
C    1.88281830   0.87519766   0.46436866
N    1.27206371   1.64176363   1.05938715
C   -0.92096584   2.81157798  -1.57700611
H   -0.34602657   3.16173542  -0.74530016
H   -1.85752820   2.42981395  -1.22771216
H   -1.09613349   3.62037443  -2.25528606
C   -0.14838707   1.69300358  -2.30054833
N    0.42683294   0.86017408  -2.83925839
C   -0.76510311  -2.40955937  -2.28304862
H   -0.49957513  -1.80858933  -3.12757813
H   -1.61682228  -3.00987768  -2.52613599
H    0.05657138  -3.04430808  -2.02450614
C   -1.10402363  -1.49693210  -1.08979913
N   -1.35636536  -0.81743961  -0.20137065
