28
Energy:   -901.58080220
O    0.40859111  -2.79842415  -1.06026504
H    0.58911593  -2.28093948  -0.27550249
H    0.13357750  -2.15535932  -1.71376866
O   -2.02863443  -1.83525357  -0.14951527
H   -1.30456092  -2.42877664  -0.34871305
H   -1.61256356  -1.08026708   0.26655236
O    2.84747433  -1.45959964  -1.33812681
H    2.33270575  -0.75099366  -0.95196269
H    2.26564330  -2.21930252  -1.31454639
O    0.56277054   0.02817538   3.62459982
H    0.29181186   0.91931387   3.40395208
H    0.59949773  -0.42676189   2.78322295
O   -1.71150438   1.82438973  -1.13429733
H   -1.43330446   1.27568381  -1.86761749
H   -1.39824160   1.36253332  -0.35661684
O   -0.42004919   2.35237066   2.25897894
H   -0.59840189   1.50930061   1.84225955
H    0.14338103   2.81298921   1.63720021
O    0.74644118   2.85675629  -0.31379988
H    0.98103535   1.93373904  -0.21769266
H   -0.15518088   2.84303828  -0.63492497
O   -0.76938111  -0.58768518  -2.25404918
H   -0.09243599  -0.24308450  -1.67161676
H   -1.44459506  -0.92390303  -1.66474830
C    0.52314387  -0.00188398   0.68349464
O    0.73660670  -1.30867766   1.03517957
O   -0.81866365   0.27063248   0.73234304
O    0.98667587   0.20989139  -0.58853896
