28
Energy:   -896.35456049
O   -0.11806178   2.23036378   2.52370834
H   -0.31426554   2.68332013   1.70360684
H    0.26031993   1.39431605   2.25152582
O   -0.21689443  -2.73397066   1.21994038
H    0.17893304  -1.88678100   1.42444501
H    0.04176402  -2.90748692   0.31483279
O    0.81927618   0.14579464  -2.79426407
H    0.72942972   0.48867542  -1.90511153
H    0.73482783  -0.80253853  -2.69544855
O    0.22009022  -2.27661464  -1.52200699
H   -0.61068445  -1.83703928  -1.34084740
H    0.86190032  -1.80503660  -0.99104015
O    3.36622695  -0.02687562  -1.73435319
H    2.65917579   0.19339630  -2.34081077
H    2.91935616  -0.28174839  -0.92714924
O   -1.12604598   2.84019390   0.05017252
H   -0.48342798   2.16177328  -0.15723870
H   -1.83358427   2.37283499   0.49424128
O   -1.71006134  -0.86174817  -0.12431707
H   -0.95542162  -0.27611298  -0.18581638
H   -1.43451160  -1.54487732   0.48694290
O   -2.50819400   1.07453580   1.67240875
H   -1.69199302   1.31106838   2.11297674
H   -2.25960928   0.37849598   1.06416040
C    1.13779896   0.15336954   0.59124478
O    0.42196094  -0.19970682   1.70473990
O    0.29980954   0.73096172  -0.32595737
O    1.71279280  -0.96416761   0.04510103
