48
Energy:   -664.11687699
O    2.42443597  -0.67585157  -0.58449286
H    2.80162334  -1.49070124  -0.25285819
H    1.89242584  -0.34556268   0.13945902
O   -1.35324655   1.35241439  -1.58064204
H   -0.62102786   1.81314192  -1.17098635
H   -1.01006895   1.05882622  -2.42460115
O    0.69195121  -1.83530452  -2.34111669
H    1.31624557  -1.39120947  -1.76729792
H    0.39281090  -1.15400877  -2.94326537
O   -3.05113619   2.86806378   0.03628893
H   -2.64960652   2.38152357  -0.68363078
H   -3.32800791   2.19374882   0.65667046
O   -3.28391399   0.85834940   1.94739942
H   -2.52856536   1.20332213   2.42350246
H   -3.89114954   0.57735889   2.63190009
O    0.72467189   0.26206220   1.40311181
H   -0.09332956  -0.06224185   1.02637267
H    1.04628722  -0.46309803   1.93877781
O    1.46153798  -2.09869453   2.47475877
H    0.63769571  -2.51456044   2.22064992
H    2.12277110  -2.52136024   1.92671104
O   -1.60858587  -0.59634812   0.33369981
H   -1.59746714  -0.06076270  -0.45955708
H   -2.29397952  -0.20687905   0.87663741
O    2.20457847   1.48663375  -2.34181098
H    1.82454042   2.08004028  -1.69399031
H    2.53613124   0.75049852  -1.82760331
O   -0.99875225   1.85366248   2.96202781
H   -0.27593922   1.32812427   2.61912438
H   -0.91134416   2.69872116   2.52104310
O    0.71040344   2.53200717  -0.23006715
H    0.25050081   3.21512697   0.25785574
H    0.87799274   1.84658416   0.41672568
O    0.70674439  -4.11539156  -0.89804032
H    0.62989499  -3.36728443  -1.49020730
H    0.35141754  -4.85230136  -1.39496952
O    0.12611856   0.49383316  -3.75049148
H    0.90623187   0.87929402  -3.35164942
H    0.19173694   0.72403937  -4.67727689
O   -0.99117438   4.06951495   1.28594337
H   -1.77246221   3.74739915   0.83642966
H   -1.17119837   4.99590300   1.44603209
O    2.96995764  -3.20663666   0.40252209
H    2.23688512  -3.63859230  -0.03594212
H    3.67096768  -3.85838838   0.39648372
O   -0.75551552  -3.08393264   1.21842146
H   -1.17129057  -2.30687055   0.84487431
H   -0.33682447  -3.51397511   0.47277199
