48
Energy:   -663.01568422
O    0.21220686   1.64597239  -3.89254549
H   -0.60217836   1.17333116  -3.72044423
H    0.00376687   2.22386484  -4.62659244
O   -0.45872847  -3.53673843   1.51477861
H   -1.07103508  -4.26001506   1.37993285
H   -0.13366436  -3.33091764   0.63830672
O    1.92816009  -0.40408303  -0.85989493
H    1.48730099   0.43658331  -0.98300141
H    2.12056855  -0.43922123   0.07710888
O   -1.92262099   0.17860352  -3.16880793
H   -1.59824207  -0.71917424  -3.23955583
H   -2.05744551   0.31182419  -2.23056146
O   -1.83832404   0.75964713  -0.44284412
H   -2.17968764   1.47914690   0.08821409
H   -1.55739539   0.10316412   0.19460472
O   -1.47748126   1.19694262   3.39372224
H   -1.39816916   0.38182329   2.89822056
H   -0.57395704   1.46292764   3.56439093
O   -0.55940298  -2.21919549  -3.43845166
H   -0.60633240  -2.83789263  -4.16731606
H    0.25718382  -1.74082924  -3.58192144
O   -0.88280323  -0.80220955   1.59479338
H   -0.93626579  -1.75756720   1.62058800
H    0.05433624  -0.61294216   1.64147653
O    1.20758653   1.92673773   3.29632015
H    1.73708670   2.49473849   3.85599554
H    0.98675025   2.47211293   2.54131744
O    1.65925590  -0.71592994  -3.64385330
H    1.30869325   0.15563133  -3.82747962
H    1.99035393  -0.65750309  -2.74764337
O    0.36268883   3.35879925   1.17117075
H   -0.59297261   3.33327891   1.21904326
H    0.57042871   2.97921171   0.31736205
O   -2.34681244   2.77347999   1.39663145
H   -3.10211934   3.28969779   1.67816743
H   -2.12356099   2.23937965   2.15894862
O    1.79391819  -0.37953326   1.88804850
H    1.85361630  -1.14054765   2.46556481
H    1.73233435   0.36839517   2.48222216
O    1.59771514  -2.75984958   3.20559799
H    0.87440262  -3.11896037   2.69170085
H    2.16330684  -3.51168155   3.38191182
O    0.51828027   1.89009904  -1.16880130
H   -0.32592511   1.50216320  -0.93846478
H    0.48391456   1.99231439  -2.11990743
O    0.39474138  -2.70517305  -0.90081505
H   -0.02019604  -2.65688982  -1.76205109
H    0.96385621  -1.93636204  -0.86518092
