48
Energy:   -672.49823042
O    3.27915644   1.15707982  -3.17954101
H    3.72817506   1.64409855  -3.87050185
H    2.68691046   0.56811229  -3.64708115
O   -2.32120258   0.66870453  -0.39861893
H   -3.13664809   0.77885887   0.09040713
H   -1.73086373   1.32713869  -0.03229074
O   -0.39918385   0.07159209  -2.32290984
H   -1.23842826   0.28409229  -1.91456644
H    0.21130530   0.71705230  -1.96665716
O    1.54135848  -0.62406859  -4.21115555
H    1.80321294  -1.46775969  -3.84257799
H    0.71407912  -0.41836727  -3.77580780
O    2.45408460  -2.79750560  -2.72635882
H    3.11926153  -2.23002525  -2.33682379
H    2.93979652  -3.56598107  -3.02596062
O   -4.23655577   0.89516256   1.51702419
H   -4.05890913   0.16663323   2.11193471
H   -3.80000797   1.64580065   1.91976519
O    0.30726557   0.12347956   2.35159011
H   -0.13871328   0.33046160   3.17286543
H   -0.26711919  -0.50849741   1.91924869
O   -3.20456683  -1.18553503   3.08576638
H   -2.62132935  -1.44301784   2.37178564
H   -3.74251966  -1.96055875   3.24755896
O   -1.56885920   0.66638849   4.32171029
H   -2.18822801   0.00285204   4.01784600
H   -1.69357249   0.69458127   5.27033224
O    1.47892523   1.65264045  -1.13547813
H    2.12879943   1.71301011  -1.83565730
H    1.82164930   0.97970816  -0.54731641
O   -2.51802626   2.69120374   2.66238800
H   -1.80924809   2.80499476   2.02920796
H   -2.15156045   2.11309527   3.33151075
O   -1.44030703  -1.47460308   1.00097123
H   -0.86050239  -1.95302430   0.40837393
H   -1.81240606  -0.77702876   0.46137487
O   -0.44744026   2.24564765   0.81087389
H   -0.09672284   1.57350281   1.39521150
H    0.22540140   2.35418405   0.13876095
O    4.09985709  -0.98598589  -1.60185173
H    3.68481970  -0.78209407  -0.76375631
H    3.98923663  -0.19142391  -2.12402625
O    2.23287842  -0.45324479   0.41315431
H    1.82534789  -0.26713735   1.25903535
H    1.65830448  -1.10258869   0.00763103
O    0.48909624  -2.07372203  -0.91657195
H    1.09000983  -2.53926023  -1.49830116
H    0.11242642  -1.38385132  -1.46285950
