48
Energy:   -672.41370884
O    3.21672080   0.84478543  -3.32987015
H    3.62513845   0.28336694  -2.67090418
H    3.95170307   1.26982782  -3.77187906
O   -2.37560135   0.35409827  -0.29144377
H   -2.03498671  -0.34505609   0.26658552
H   -3.17243986   0.64722926   0.15054543
O   -0.54039113  -0.24830742  -2.31426442
H   -1.34497744  -0.04374370  -1.83779155
H    0.07206359   0.44132124  -2.05825000
O    1.45421678  -1.18543073  -4.05638762
H    0.66421385  -0.84882893  -3.63350887
H    2.07081733  -0.45375843  -4.03009574
O    2.24818656  -3.32200943  -2.59582853
H    2.03055522  -2.59944634  -3.18470121
H    2.46618265  -4.04930429  -3.17871081
O   -4.26062662   1.19415559   1.56428053
H   -5.11475311   1.62616875   1.57230685
H   -3.65752715   1.84824082   1.91737454
O    0.45762855   0.47064855   2.27547328
H    0.03127391   0.63197518   3.11715450
H    0.16181634   1.18814366   1.71518071
O   -3.09316574  -0.69803909   3.25187955
H   -2.56317058  -1.20806774   2.63933751
H   -3.63730449  -0.14261725   2.69362204
O   -1.26025128   0.97110735   4.34301742
H   -1.93608669   0.34255470   4.08924606
H   -1.27433726   0.96531049   5.30009622
O    1.32712823   1.50284726  -1.38642288
H    1.95935439   1.52524838  -2.10476829
H    1.70259054   0.88885325  -0.75533553
O   -2.35936276   2.82400004   2.56272855
H   -1.69305213   2.86818496   1.87693726
H   -1.94417214   2.32930556   3.26921702
O   -1.19522566  -1.46944195   1.32868958
H   -0.56273936  -0.87019536   1.72504352
H   -0.67554459  -2.00451506   0.72880609
O   -0.58970082   2.25170482   0.50626054
H    0.09037212   2.29017393  -0.16623687
H   -1.25257958   1.66391089   0.14387690
O    4.18333575  -0.88805217  -1.46456590
H    3.66060178  -0.69332637  -0.68670800
H    3.94800286  -1.78733499  -1.69290926
O    2.19965703  -0.40201805   0.35460368
H    1.78992794  -0.15984082   1.18508794
H    1.66198174  -1.12086980   0.02235483
O    0.52115244  -2.21643112  -0.74075099
H    1.03021357  -2.80471320  -1.29843621
H    0.04936441  -1.65286884  -1.35397645
