19
Energy:   -382.21168751
Na   0.06689779   0.37798729  -0.29722155
O   -1.83381162   0.48398054   3.40149691
H   -2.23507499   1.26494462   3.78269852
H   -1.91461384  -0.18399698   4.08231178
O    0.47986358   2.25381710  -1.59922612
H    0.11287499   3.13423104  -1.51908554
H    1.15672462   2.33619015  -2.27101898
O   -2.25419103   0.47262427   0.03639476
H   -2.63269038   0.33275900   0.90438543
H   -3.00425667   0.67528361  -0.52267820
O    0.52549079   0.46170732   1.93162011
H    1.29141952   0.45095738   2.50561443
H   -0.22219999   0.46807532   2.52924022
C    2.52145613  -3.09262023  -3.12273707
H    2.62281394  -3.99088480  -2.55024468
H    3.48998921  -2.74653647  -3.41781129
H    1.93234313  -3.28951280  -3.99398805
C    1.82949415  -2.01451259  -2.26806020
N    1.31429700  -1.21181246  -1.63171443
