19
Energy:   -382.65216303
Na  -0.46663302   0.36206333  -0.32825615
O    0.29179448   0.54722076   3.65226158
H   -0.19523209   0.99835967   4.34183439
H    1.00357952   0.10268524   4.11267669
O    0.69445954   1.67303401   1.17995602
H    1.45921498   2.24654566   1.22960849
H    0.57752073   1.35104307   2.07375633
O   -1.48463435  -0.89287725   1.33552843
H   -2.15302759  -1.57287839   1.25138113
H   -1.29390559  -0.85852989   2.27290490
O   -1.93717068   1.65521127  -1.61698099
H   -1.94980516   1.75091873  -2.56930043
H   -2.45660149   2.39185819  -1.29484003
C    1.95264764  -2.42964566  -3.78559050
H    2.77473210  -2.96717223  -3.36115854
H    2.30673800  -1.80372974  -4.57789623
H    1.23487636  -3.12265426  -4.17216850
C    1.29288804  -1.55944434  -2.69974201
N    0.80166703  -0.91153991  -1.89127845
