19
Energy:   -380.33415497
Na  -0.80331835  -0.42260277   0.28000029
O    0.52351580   0.54672662  -3.65133930
H    1.34607407   1.01082508  -3.80703893
H    0.17318346   0.37916291  -4.52622301
O    0.00113470  -2.33074028  -0.80579144
H    0.23395168  -2.36294933  -1.73368727
H    0.26719247  -3.18347840  -0.46186876
O   -2.74626764  -0.67023504   1.53194217
H   -3.49788710  -1.22999099   1.33707474
H   -2.96320937  -0.25999530   2.36912285
O   -1.01619036   1.07303735  -1.44917349
H   -0.48404969   0.92345901  -2.23063653
H   -1.57775267   1.81325468  -1.67929937
C    2.67507013   1.19156310   3.56565634
H    2.38686642   2.13555965   3.97882621
H    3.58784151   1.30521885   3.01900302
H    2.81845891   0.48501269   4.35630498
C    1.56978493   0.68623796   2.61982807
N    0.74684986   0.31000042   1.91561592
