19
Energy:   -380.68747871
Na  -0.20793773   0.18282220  -0.52747010
O   -1.94386804   0.11633813  -2.05077563
H   -2.82835016   0.48229275  -2.05010870
H   -1.93225072  -0.48193875  -2.79787781
O    0.01239019   2.33332887   0.58047545
H    0.31340074   3.19917431   0.30491026
H   -0.26456627   2.45339912   1.48883116
O   -0.85765080  -0.79071009   1.47898270
H   -1.07006630  -0.15824555   2.16535002
H   -0.96891701  -1.64469662   1.89678490
O   -1.44267464   1.19220620   3.37650269
H   -0.93524257   1.20660790   4.18800570
H   -2.35105569   1.29681028   3.65958166
C    3.56800106  -2.27935429  -2.79002515
H    4.46637070  -1.84050264  -2.40891966
H    3.51825240  -2.12825651  -3.84813366
H    3.56612897  -3.32834844  -2.57905861
C    2.34931347  -1.61867190  -2.11927981
N    1.44194516  -1.12676382  -1.61987941
