19
Energy:   -380.63903568
Na  -0.58446056   0.15042220  -0.27408899
O   -2.55396744   0.63336411  -1.41476334
H   -2.66352669   1.14710917  -2.21494747
H   -3.44677891   0.42883071  -1.13676046
O    0.83954472   1.98960451  -0.11518128
H    0.95477446   2.56128401   0.64385528
H    1.51234386   2.27370767  -0.73393695
O   -0.94829113  -0.30392923   1.93317942
H   -1.42699447  -0.92629098   2.48066532
H   -0.49456701   0.26400728   2.55592688
O    0.40556987   1.46183571   3.55809705
H   -0.05825805   2.01922917   4.18292346
H    1.25880621   1.30589443   3.96294507
C    1.82294901  -3.18050552  -3.24009874
H    2.87223753  -3.14966452  -3.03287275
H    1.65571385  -2.94397157  -4.27013912
H    1.44730477  -4.16091791  -3.03374455
C    1.09409715  -2.15426282  -2.35285532
N    0.55143381  -1.39017849  -1.69226227
