19
Energy:   -380.91276986
Na  -0.13193852  -0.46784304  -0.11308829
O   -1.33626071  -0.36396170   1.86040287
H   -2.20104719  -0.60917465   2.18941169
H   -0.94325693   0.14151752   2.57192985
O    1.72004896   0.65717034   0.76284956
H    2.54800147   0.95736356   0.38786887
H    1.75886347   0.92995315   1.67953643
O    0.17163517  -2.80056491  -0.46112431
H    0.01395018  -3.54507545   0.11945414
H    0.35999955  -3.19571879  -1.31236113
O    0.06919554   1.06284189   3.76045185
H    0.35209267   0.64161426   4.57209730
H   -0.03749061   1.98514646   3.99326979
C   -0.58138511   1.13684814  -4.87625408
H   -0.60413362   0.25235220  -5.47795968
H    0.21961977   1.76803800  -5.20012077
H   -1.50975547   1.65955559  -4.97527166
C   -0.36533279   0.74911084  -3.40160796
N   -0.20447201   0.46042280  -2.30366689
