19
Energy:   -380.79146149
Na   0.47794435   0.18634744   0.02271981
O   -0.66628739  -3.64915761  -1.27883843
H   -1.56418527  -3.92934726  -1.45633488
H   -0.14337144  -4.44534243  -1.37307480
O    2.68206142   0.89083694  -0.37293910
H    3.17732260   0.55298426  -1.11913196
H    3.27647756   1.51165827   0.04834722
O   -0.03246425  -0.99512114  -1.87789284
H   -0.27075946  -1.91707456  -1.78068618
H   -0.11592498  -0.82327975  -2.81583563
O    0.19649075  -1.57311421   1.52947076
H    0.29697543  -1.60389736   2.48088396
H    0.00157613  -2.47627466   1.27938810
C   -1.81012118   4.43479278   1.63003103
H   -2.85339414   4.42452204   1.39259424
H   -1.34059738   5.26116824   1.13855358
H   -1.68613912   4.53196993   2.68837131
C   -1.16279163   3.12034726   1.15590297
N   -0.68082536   2.14168282   0.80289307
