19
Energy:   -381.15119559
Na  -0.06756751   0.52907792   0.48157916
O   -0.45003571   0.53320824  -1.78596951
H    0.31686137   0.58184665  -2.35670150
H   -1.19463774   0.50204601  -2.38665960
O    1.77424644   0.74007420  -3.35183998
H    1.96564083   1.48961600  -3.91556609
H    2.04834144  -0.02112334  -3.86338869
O    2.27689660   0.66694750   0.20961685
H    2.60727635   0.84389526  -0.67116153
H    3.06373012   0.55386743   0.74285015
O   -1.24525725   2.27595257   1.48220014
H   -1.65331951   3.02233742   1.04330757
H   -1.40521585   2.42838465   2.41354839
C   -1.90780212  -3.51613323   2.86500500
H   -1.95264336  -3.32087225   3.91608188
H   -1.20748300  -4.30320697   2.67800995
H   -2.87556001  -3.80920753   2.51507472
C   -1.45835154  -2.24255509   2.12500981
N   -1.12371515  -1.29431827   1.57404975
