49
Energy:  -1899.48163985
O   -2.12827805  -3.08795974   1.35289964
H   -2.40291007  -3.25653984   0.45157292
H   -2.50341704  -3.80995563   1.85710646
O    1.40700291   0.25439647  -0.88636778
H    1.49089671  -0.07893077  -1.77972473
H    2.30100149   0.48036960  -0.62959058
O    3.70940929   0.03055895   2.74988930
H    4.12074985   0.62690052   3.37551500
H    4.08293284  -0.82672506   2.95428139
O   -2.25439959  -2.99824237  -1.45203156
H   -2.90695246  -3.42741927  -2.00539743
H   -1.41307736  -3.29579274  -1.79825770
O   -0.64252185   1.97681691   0.30026401
H   -0.63341746   2.51121969  -0.49381573
H   -0.95355958   2.56928964   0.98470790
O    0.49592212  -3.16203783  -2.03204412
H    0.76974336  -2.47778201  -2.64282047
H    0.97152344  -3.94235053  -2.31690781
O    1.03811212   0.34539594   2.05947380
H    1.95419823   0.21907947   2.30658154
H    0.61286744   0.64894638   2.86150618
O   -0.88784643   1.20076183   3.84822126
H   -1.00025434   1.19058130   4.79874357
H   -1.14509337   2.08455013   3.58559206
O   -0.97816781   0.92144451  -3.54153659
H   -1.53022595   1.01592371  -4.31776938
H   -0.85224758   1.81640496  -3.22622446
O   -1.51686391   3.52763989   2.44189039
H   -1.03093118   4.31627239   2.68305423
H   -2.43658325   3.78865524   2.48899857
O   -0.62969804   3.31605115  -2.13768311
H   -1.34270090   3.93601101  -2.29100805
H    0.16322193   3.80070868  -2.36706675
O    1.20224815  -0.82565167  -3.39065996
H    1.82606797  -0.82883376  -4.11665622
H    0.49234251  -0.25591090  -3.68673645
O    3.84205332   0.80693894   0.07897844
H    4.69770851   1.08940489  -0.24397520
H    3.99785108   0.56573954   0.99209494
O    0.27544791  -2.04785653   0.47305001
H   -0.33835711  -2.62852677   0.92282475
H    0.52883241  -2.52985460  -0.31416407
O   -1.39078043  -0.41374534  -1.19512199
H   -1.40003164   0.02402436  -2.04629996
H   -1.83757582  -1.24625054  -1.34855218
O   -1.71018233  -0.37745011   1.71693474
H   -1.75370897   0.00172189   2.59475355
H   -2.13456683  -1.23110871   1.80293843
Ca  -0.15087121  -0.02917701   0.41474081
