49
Energy:  -1899.71934626
O   -1.94224808  -0.47741633  -0.76790697
H   -2.52584125  -0.12355408  -1.43904955
H   -2.51222555  -1.00438618  -0.20785312
O    3.31453361  -2.03601874   0.14706263
H    3.52305278  -1.42980671   0.85787806
H    3.88582849  -2.78897065   0.29844767
O   -0.75273248   0.62051979   1.60939841
H   -0.23425435   0.31113273   2.35215807
H   -1.62366764   0.77833747   1.97381215
O   -0.92531883   0.14070952  -4.63795051
H   -1.17670536  -0.68358554  -5.05457303
H   -0.59049397   0.67955781  -5.35472571
O   -0.82807760   2.18402918  -0.91245144
H   -1.49077028   2.28424696  -1.59584493
H   -0.30065747   2.98067220  -0.97093006
O   -0.69207705  -2.72453221   2.26705852
H   -0.69753087  -3.64870183   2.51628252
H   -1.60401954  -2.52853665   2.05216675
O    3.17156023  -0.03133635   2.08513403
H    2.48636807  -0.28663963   2.70284253
H    3.89798574   0.25652492   2.63801169
O    0.80302691  -0.66089936   3.46722610
H    0.37201991  -1.49337516   3.27370904
H    0.81851583  -0.61520330   4.42320927
O   -2.69147722   1.27922194  -2.81243893
H   -2.21894643   0.94409901  -3.57443573
H   -3.50309635   1.63747111  -3.17183253
O   -3.33868899   0.69342401   2.65845525
H   -4.00757024   1.31702953   2.37570823
H   -3.41515788   0.67557435   3.61242892
O    1.38685757   3.90476566  -0.71338576
H    1.89195106   4.22271495  -1.46173104
H    1.36451095   4.64504129  -0.10698287
O    0.52758908   0.02644893  -2.27312436
H    1.42543618  -0.26305477  -2.43526642
H    0.11198045   0.01386646  -3.13529777
O    1.67442918   1.24369610   0.15944562
H    1.89697435   2.15505766  -0.03062172
H    2.34029446   0.95964404   0.78568017
O    3.07221875  -0.80613252  -2.33616640
H    3.78663054  -0.92386169  -2.96225544
H    3.35047493  -1.29271731  -1.56025365
O   -3.15748298  -1.77023660   1.34943705
H   -3.93792389  -2.32437637   1.35797706
H   -3.39637935  -1.01103900   1.88120710
O    0.64131591  -1.49000859   0.22909143
H    1.53611858  -1.81895402   0.14333057
H    0.23062992  -2.07484948   0.86590381
Ca  -0.10243222   0.34049895  -0.34434399
