49
Energy:  -1900.18206176
O    0.16553739   1.55185776   4.36298988
H   -0.30597832   1.19194084   5.11423191
H    0.84966929   2.09902079   4.74874627
O    0.32992790   2.10298090   0.27760385
H   -0.17506565   2.61087216   0.91263127
H    0.63354499   2.74941822  -0.35970872
O   -1.79074306   0.30973966   0.95857923
H   -2.06879946   1.06863297   1.47141199
H   -2.57539080  -0.23420558   0.89014428
O   -0.54480808   0.07481853  -1.69456653
H   -0.32192925   0.61124251  -2.45535966
H   -1.00383860  -0.68134905  -2.06026232
O   -3.89455643  -1.34329936   0.67067510
H   -4.63247673  -1.47189315   1.26663576
H   -4.14169307  -1.81765571  -0.12313935
O    3.91967686  -1.97015657   0.60257893
H    4.68999534  -1.62338011   1.05267601
H    4.26582136  -2.64783336   0.02191551
O    2.97588761   1.54886538  -2.34832566
H    2.66576230   2.42272689  -2.11079628
H    3.85841331   1.69211122  -2.69017483
O    0.45535741   1.67759900  -3.67053966
H    0.27361884   1.75210971  -4.60737001
H    1.39096124   1.48121905  -3.62245407
O   -1.64893494  -2.44679851  -2.08416410
H   -1.42720911  -3.02886841  -2.81098191
H   -2.59398933  -2.55068827  -1.97320935
O    1.76409114  -2.66992381   2.23352005
H    1.89500271  -3.36241058   2.88125155
H    2.60589364  -2.60022785   1.78325029
O    2.06797788  -0.15563255  -0.41272497
H    2.48570183   0.37920872  -1.08776821
H    2.75755366  -0.74968451  -0.11638164
O   -4.38119956  -2.72657234  -1.69196235
H   -4.72853537  -3.61139166  -1.57933713
H   -4.99586983  -2.30182407  -2.29029438
O    1.21854866   3.64904495  -1.78885974
H    0.74725967   3.31552052  -2.55232551
H    1.25839933   4.59552414  -1.92604907
O   -0.12094829  -1.99042597   0.23463299
H    0.29081333  -2.64231182   0.80184464
H   -0.62774215  -2.50484581  -0.39366953
O    0.79676974  -0.08657633   2.20507084
H    0.64844329   0.41923133   3.00406379
H    1.16388027  -0.91602714   2.51080447
O   -1.38732391   2.71418844   2.35157115
H   -0.94508422   2.46921557   3.16437136
H   -1.92916595   3.46624383   2.59042624
Ca   0.12135781   0.05612258   0.25523059
