
                                 *****************
                                 * O   R   C   A *
                                 *****************

           --- An Ab Initio, DFT and Semiempirical electronic structure package ---

                  #######################################################
                  #                        -***-                        #
                  #          Department of theory and spectroscopy      #
                  #               Directorship: Frank Neese             #
                  #        Max Planck Institute fuer Kohlenforschung    #
                  #                Kaiser Wilhelm Platz 1               #
                  #                 D-45470 Muelheim/Ruhr               #
                  #                      Germany                        #
                  #                                                     #
                  #                  All rights reserved                #
                  #                        -***-                        #
                  #######################################################


                         Program Version 4.2.0 -  RELEASE  -


 With contributions from (in alphabetic order):
   Daniel Aravena         : Magnetic Suceptibility
   Michael Atanasov       : Ab Initio Ligand Field Theory (pilot matlab implementation)
   Alexander A. Auer      : GIAO ZORA, VPT2
   Ute Becker             : Parallelization
   Giovanni Bistoni       : ED, misc. LED, open-shell LED, HFLED
   Martin Brehm           : Molecular dynamics
   Dmytro Bykov           : SCF Hessian
   Vijay G. Chilkuri      : MRCI spin determinant printing, contributions to CSF-ICE
   Dipayan Datta          : RHF DLPNO-CCSD density
   Achintya Kumar Dutta   : EOM-CC, STEOM-CC
   Dmitry Ganyushin       : Spin-Orbit,Spin-Spin,Magnetic field MRCI
   Miquel Garcia          : C-PCM Hessian, Gaussian charge scheme
   Yang Guo               : DLPNO-NEVPT2, CIM, IAO-localization
   Andreas Hansen         : Spin unrestricted coupled pair/coupled cluster methods
   Benjamin Helmich-Paris : CASSCF linear response (MC-RPA)
   Lee Huntington         : MR-EOM, pCC
   Robert Izsak           : Overlap fitted RIJCOSX, COSX-SCS-MP3, EOM
   Christian Kollmar      : KDIIS, OOCD, Brueckner-CCSD(T), CCSD density
   Simone Kossmann        : Meta GGA functionals, TD-DFT gradient, OOMP2, MP2 Hessian
   Martin Krupicka        : AUTO-CI
   Lucas Lang             : DCDCAS
   Dagmar Lenk            : GEPOL surface, SMD
   Dimitrios Liakos       : Extrapolation schemes; Compound Job, initial MDCI parallelization
   Dimitrios Manganas     : Further ROCIS development; embedding schemes
   Dimitrios Pantazis     : SARC Basis sets
   Taras Petrenko         : DFT Hessian,TD-DFT gradient, ASA, ECA, R-Raman, ABS, FL, XAS/XES, NRVS
   Peter Pinski           : DLPNO-MP2, DLPNO-MP2 Gradient
   Christoph Reimann      : Effective Core Potentials
   Marius Retegan         : Local ZFS, SOC
   Christoph Riplinger    : Optimizer, TS searches, QM/MM, DLPNO-CCSD(T), (RO)-DLPNO pert. Triples
   Tobias Risthaus        : Range-separated hybrids, TD-DFT gradient, RPA, STAB
   Michael Roemelt        : Original ROCIS implementation
   Masaaki Saitow         : Open-shell DLPNO-CCSD energy and density
   Barbara Sandhoefer     : DKH picture change effects
   Avijit Sen             : IP-ROCIS
   Kantharuban Sivalingam : CASSCF convergence, NEVPT2, FIC-MRCI
   Bernardo de Souza      : ESD, SOC TD-DFT
   Georgi Stoychev        : AutoAux, RI-MP2 NMR
   Willem Van den Heuvel  : Paramagnetic NMR
   Boris Wezisla          : Elementary symmetry handling
   Frank Wennmohs         : Technical directorship


 We gratefully acknowledge several colleagues who have allowed us to
 interface, adapt or use parts of their codes:
   Stefan Grimme, W. Hujo, H. Kruse,             : VdW corrections, initial TS optimization,
                  C. Bannwarth                     DFT functionals, gCP, sTDA/sTD-DF
   Ed Valeev, F. Pavosevic, A. Kumar             : LibInt (2-el integral package), F12 methods
   Garnet Chan, S. Sharma, J. Yang, R. Olivares  : DMRG
   Ulf Ekstrom                                   : XCFun DFT Library
   Mihaly Kallay                                 : mrcc  (arbitrary order and MRCC methods)
   Andreas Klamt, Michael Diedenhofen            : otool_cosmo (COSMO solvation model)
   Jiri Pittner, Ondrej Demel                    : Mk-CCSD
   Frank Weinhold                                : gennbo (NPA and NBO analysis)
   Christopher J. Cramer and Donald G. Truhlar   : smd solvation model
   Lars Goerigk                                  : TD-DFT with DH, B97 family of functionals
   V. Asgeirsson, H. Jonsson                     : NEB implementation
   FAccTs GmbH                                   : IRC, NEB, NEB-TS, Multilevel, MM, QM/MM, CI optimization
   S Lehtola, MJT Oliveira, MAL Marques          : LibXC Library


 Your calculation uses the libint2 library for the computation of 2-el integrals
 For citations please refer to: http://libint.valeyev.net

 Your ORCA version has been built with support for libXC version: 4.2.3
 For citations please refer to: https://tddft.org/programs/libxc/

 This ORCA versions uses:
   CBLAS   interface :  Fast vector & matrix operations
   LAPACKE interface :  Fast linear algebra routines
   SCALAPACK package :  Parallel linear algebra routines


----- Orbital basis set information -----
Your calculation utilizes the basis: def2-TZVP
   F. Weigend and R. Ahlrichs, Phys. Chem. Chem. Phys. 7, 3297 (2005).

================================================================================
                                        WARNINGS
                       Please study these warnings very carefully!
================================================================================


WARNING: The frozen-core approximation for MP2-gradient calculations is turned on by default.

INFO   : the flag for use of LIBINT has been found!

================================================================================
                                       INPUT FILE
================================================================================
NAME = 12meoh.boyd.etal.mol0,6-orca.engrad-mp2.def2tzvp.frozencore.inp
|  1> # 12meoh.boyd.etal.mol0,6
|  2> ! MP2 def2-TZVP EnGrad TightSCF
|  3> 
|  4> %pal
|  5>     nprocs 6
|  6> end
|  7> 
|  8> %maxcore 8000
|  9> 
| 10> %scf
| 11>     ConvForced true
| 12> end
| 13> 
| 14> *xyz 0 1
| 15> O  -1.776108874  -2.741384797  -1.019308298
| 16> H  -2.520094035  -2.452295987  -0.420778302
| 17> C  -2.174025166  -3.952700964  -1.647004581
| 18> H  -1.359803895  -4.272673416  -2.304149236
| 19> H  -3.075973971  -3.808692420  -2.256751112
| 20> H  -2.370225393  -4.752784761  -0.918966137
| 21> O   2.622209273  -1.703002590  -1.445859723
| 22> H   1.828551432  -1.986513781  -0.909754968
| 23> C   2.781117675  -2.615822239  -2.525472890
| 24> H   3.691063626  -2.339003544  -3.065143454
| 25> H   1.934727323  -2.559520367  -3.223226661
| 26> H   2.879948338  -3.653846211  -2.177750170
| 27> *
| 28> 
| 29>                          ****END OF INPUT****
================================================================================

                     *******************************
                     * Energy+Gradient Calculation *
                     *******************************

---------------------------------
CARTESIAN COORDINATES (ANGSTROEM)
---------------------------------
  O     -1.776109   -2.741385   -1.019308
  H     -2.520094   -2.452296   -0.420778
  C     -2.174025   -3.952701   -1.647005
  H     -1.359804   -4.272673   -2.304149
  H     -3.075974   -3.808692   -2.256751
  H     -2.370225   -4.752785   -0.918966
  O      2.622209   -1.703003   -1.445860
  H      1.828551   -1.986514   -0.909755
  C      2.781118   -2.615822   -2.525473
  H      3.691064   -2.339004   -3.065143
  H      1.934727   -2.559520   -3.223227
  H      2.879948   -3.653846   -2.177750

----------------------------
CARTESIAN COORDINATES (A.U.)
----------------------------
  NO LB      ZA    FRAG     MASS         X           Y           Z
   0 O     8.0000    0    15.999   -3.356359   -5.180466   -1.926214
   1 H     1.0000    0     1.008   -4.762288   -4.634168   -0.795156
   2 C     6.0000    0    12.011   -4.108312   -7.469522   -3.112388
   3 H     1.0000    0     1.008   -2.569657   -8.074183   -4.354211
   4 H     1.0000    0     1.008   -5.812748   -7.197386   -4.264642
   5 H     1.0000    0     1.008   -4.479077   -8.981462   -1.736594
   6 O     8.0000    0    15.999    4.955257   -3.218209   -2.732279
   7 H     1.0000    0     1.008    3.455461   -3.753967   -1.719188
   8 C     6.0000    0    12.011    5.255551   -4.943188   -4.772452
   9 H     1.0000    0     1.008    6.975099   -4.420076   -5.792282
  10 H     1.0000    0     1.008    3.656105   -4.836793   -6.091016
  11 H     1.0000    0     1.008    5.442314   -6.904769   -4.115351

--------------------------------
INTERNAL COORDINATES (ANGSTROEM)
--------------------------------
 O      0   0   0     0.000000000000     0.00000000     0.00000000
 H      1   0   0     0.997659468941     0.00000000     0.00000000
 C      1   2   0     1.421135762539   107.64775557     0.00000000
 H      3   1   2     1.094156179795   107.82879233   180.01581697
 H      3   1   2     1.098198952673   111.31077271    61.21076131
 H      3   1   2     1.099394645811   112.19621244   299.46622341
 O      1   2   3     4.539315614519   135.45149305   196.54245871
 H      7   1   2     0.998839162396    27.71594534    51.88006061
 C      7   1   2     1.422693284649    91.87751179   179.68395040
 H      9   7   1     1.093560488172   107.75927006   161.10311217
 H      9   7   1     1.098365537375   111.29143095    42.45033562
 H      9   7   1     1.099168938972   112.08005485   280.63653801

---------------------------
INTERNAL COORDINATES (A.U.)
---------------------------
 O      0   0   0     0.000000000000     0.00000000     0.00000000
 H      1   0   0     1.885303171211     0.00000000     0.00000000
 C      1   2   0     2.685557390320   107.64775557     0.00000000
 H      3   1   2     2.067655527549   107.82879233   180.01581697
 H      3   1   2     2.075295261111   111.31077271    61.21076131
 H      3   1   2     2.077554793683   112.19621244   299.46622341
 O      1   2   3     8.578063346873   135.45149305   196.54245871
 H      7   1   2     1.887532468764    27.71594534    51.88006061
 C      7   1   2     2.688500680556    91.87751179   179.68395040
 H      9   7   1     2.066529833522   107.75927006   161.10311217
 H      9   7   1     2.075610060577   111.29143095    42.45033562
 H      9   7   1     2.077128269569   112.08005485   280.63653801

---------------------
BASIS SET INFORMATION
---------------------
There are 3 groups of distinct atoms

 Group   1 Type O   : 11s6p2d1f contracted to 5s3p2d1f pattern {62111/411/11/1}
 Group   2 Type H   : 5s1p contracted to 3s1p pattern {311/1}
 Group   3 Type C   : 11s6p2d1f contracted to 5s3p2d1f pattern {62111/411/11/1}

Atom   0O    basis set group =>   1
Atom   1H    basis set group =>   2
Atom   2C    basis set group =>   3
Atom   3H    basis set group =>   2
Atom   4H    basis set group =>   2
Atom   5H    basis set group =>   2
Atom   6O    basis set group =>   1
Atom   7H    basis set group =>   2
Atom   8C    basis set group =>   3
Atom   9H    basis set group =>   2
Atom  10H    basis set group =>   2
Atom  11H    basis set group =>   2


           ************************************************************
           *        Program running with 6 parallel MPI-processes     *
           *              working on a common directory               *
           ************************************************************
------------------------------------------------------------------------------
                           ORCA GTO INTEGRAL CALCULATION
------------------------------------------------------------------------------

                         BASIS SET STATISTICS AND STARTUP INFO

 # of primitive gaussian shells          ...  128
 # of primitive gaussian functions       ...  248
 # of contracted shells                  ...   76
 # of contracted basis functions         ...  172
 Highest angular momentum                ...    3
 Maximum contraction depth               ...    6
 Integral package used                   ... LIBINT
 Integral threshhold            Thresh   ...  2.500e-11
 Primitive cut-off              TCut     ...  2.500e-12


------------------------------ INTEGRAL EVALUATION ----------------------------


 * One electron integrals 
 Pre-screening matrix                    ... done
 Shell pair data                         ... done (   0.001 sec)



           ************************************************************
           *        Program running with 6 parallel MPI-processes     *
           *              working on a common directory               *
           ************************************************************
-------------------------------------------------------------------------------
                                 ORCA SCF
-------------------------------------------------------------------------------

------------
SCF SETTINGS
------------
Hamiltonian:
 Ab initio Hamiltonian  Method          .... Hartree-Fock(GTOs)


General Settings:
 Integral files         IntName         .... 12meoh.boyd.etal.mol0,6-orca.engrad-mp2.def2tzvp.frozencore
 Hartree-Fock type      HFTyp           .... RHF
 Total Charge           Charge          ....    0
 Multiplicity           Mult            ....    1
 Number of Electrons    NEL             ....   36
 Basis Dimension        Dim             ....  172
 Nuclear Repulsion      ENuc            ....    114.5668869453 Eh

Convergence Acceleration:
 DIIS                   CNVDIIS         .... on
   Start iteration      DIISMaxIt       ....    12
   Startup error        DIISStart       ....  0.200000
   # of expansion vecs  DIISMaxEq       ....     5
   Bias factor          DIISBfac        ....   1.050
   Max. coefficient     DIISMaxC        ....  10.000
 Newton-Raphson         CNVNR           .... off
 SOSCF                  CNVSOSCF        .... on
   Start iteration      SOSCFMaxIt      ....   150
   Startup grad/error   SOSCFStart      ....  0.003300
 Level Shifting         CNVShift        .... on
   Level shift para.    LevelShift      ....    0.2500
   Turn off err/grad.   ShiftErr        ....    0.0010
 Zerner damping         CNVZerner       .... off
 Static damping         CNVDamp         .... on
   Fraction old density DampFac         ....    0.7000
   Max. Damping (<1)    DampMax         ....    0.9800
   Min. Damping (>=0)   DampMin         ....    0.0000
   Turn off err/grad.   DampErr         ....    0.1000
 Fernandez-Rico         CNVRico         .... off

SCF Procedure:
 Maximum # iterations   MaxIter         ....   125
 SCF integral mode      SCFMode         .... Direct
   Integral package                     .... LIBINT
 Reset frequency        DirectResetFreq ....    20
 Integral Threshold     Thresh          ....  2.500e-11 Eh
 Primitive CutOff       TCut            ....  2.500e-12 Eh

Convergence Tolerance:
 Convergence Check Mode ConvCheckMode   .... Total+1el-Energy
 Convergence forced     ConvForced      .... 1
 Energy Change          TolE            ....  1.000e-08 Eh
 1-El. energy change                    ....  1.000e-05 Eh
 Orbital Gradient       TolG            ....  1.000e-05
 Orbital Rotation angle TolX            ....  1.000e-05
 DIIS Error             TolErr          ....  5.000e-07


Diagonalization of the overlap matrix:
Smallest eigenvalue                        ... 1.591e-03
Time for diagonalization                   ...    0.005 sec
Threshold for overlap eigenvalues          ... 1.000e-08
Number of eigenvalues below threshold      ... 0
Time for construction of square roots      ...    0.002 sec
Total time needed                          ...    0.007 sec

-------------------
DFT GRID GENERATION
-------------------

General Integration Accuracy     IntAcc      ...  4.340
Radial Grid Type                 RadialGrid  ... Gauss-Chebyshev
Angular Grid (max. acc.)         AngularGrid ... Lebedev-110
Angular grid pruning method      GridPruning ... 3 (G Style)
Weight generation scheme         WeightScheme... Becke
Basis function cutoff            BFCut       ...    1.0000e-11
Integration weight cutoff        WCut        ...    1.0000e-14
Grids for H and He will be reduced by one unit

# of grid points (after initial pruning)     ...  13096 (   0.0 sec)
# of grid points (after weights+screening)   ...  12578 (   0.0 sec)
nearest neighbour list constructed           ...    0.0 sec
Grid point re-assignment to atoms done       ...    0.0 sec
Grid point division into batches done        ...    0.0 sec
Reduced shell lists constructed in    0.0 sec

Total number of grid points                  ...    12578
Total number of batches                      ...      203
Average number of points per batch           ...       61
Average number of grid points per atom       ...     1048
Average number of shells per batch           ...    46.54 (61.24%)
Average number of basis functions per batch  ...   100.94 (58.69%)
Average number of large shells per batch     ...    37.00 (79.50%)
Average number of large basis fcns per batch ...    81.91 (81.15%)
Maximum spatial batch extension              ...  18.79, 14.21, 17.54 au
Average spatial batch extension              ...   0.67,  0.65,  0.67 au

Time for grid setup =    0.030 sec

------------------------------
INITIAL GUESS: MODEL POTENTIAL
------------------------------
Loading Hartree-Fock densities                     ... done
Calculating cut-offs                               ... done
Setting up the integral package                    ... done
Initializing the effective Hamiltonian             ... done
Starting the Coulomb interaction                   ... done (   0.0 sec)
Reading the grid                                   ... done
Mapping shells                                     ... done
Starting the XC term evaluation                    ... done (   0.0 sec)
Transforming the Hamiltonian                       ... done (   0.0 sec)
Diagonalizing the Hamiltonian                      ... done (   0.0 sec)
Back transforming the eigenvectors                 ... done (   0.0 sec)
Now organizing SCF variables                       ... done
                      ------------------
                      INITIAL GUESS DONE (   0.1 sec)
                      ------------------
--------------
SCF ITERATIONS
--------------
ITER       Energy         Delta-E        Max-DP      RMS-DP      [F,P]     Damp
               ***  Starting incremental Fock matrix formation  ***
  0   -229.9404996199   0.000000000000 0.03645464  0.00093816  0.2887415 0.7000
  1   -230.0275975941  -0.087097974130 0.02487718  0.00069434  0.2178275 0.7000
                               ***Turning on DIIS***
  2   -230.0778250854  -0.050227491341 0.01448253  0.00042780  0.1628249 0.7000
  3   -230.6615482178  -0.583723132383 0.00754016  0.00023784  0.1199552 0.7000
  4   -230.5594681057   0.102080112053 0.01608383  0.00056699  0.0845594 0.0000
  5   -230.1999786660   0.359489439754 0.00180237  0.00007475  0.0052905 0.0000
                      *** Initiating the SOSCF procedure ***
                           *** Shutting down DIIS ***
                      *** Re-Reading the Fockian *** 
                      *** Removing any level shift *** 
ITER      Energy       Delta-E        Grad      Rot      Max-DP    RMS-DP
  6   -230.18328668   0.0166919826  0.000701  0.000701  0.000774  0.000038
               *** Restarting incremental Fock matrix formation ***
  7   -230.17981665   0.0034700340  0.000323  0.000302  0.000445  0.000021
  8   -230.17982119  -0.0000045405  0.000164  0.000198  0.000297  0.000014
  9   -230.17982230  -0.0000011145  0.000026  0.000027  0.000051  0.000002
 10   -230.17982234  -0.0000000326  0.000005  0.000011  0.000016  0.000001
                 **** Energy Check signals convergence ****
              ***Rediagonalizing the Fockian in SOSCF/NRSCF***

               *****************************************************
               *                     SUCCESS                       *
               *           SCF CONVERGED AFTER  11 CYCLES          *
               *****************************************************


----------------
TOTAL SCF ENERGY
----------------

Total Energy       :         -230.17982234 Eh           -6263.51140 eV

Components:
Nuclear Repulsion  :          114.56688695 Eh            3117.52349 eV
Electronic Energy  :         -344.74670929 Eh           -9381.03488 eV
One Electron Energy:         -541.78183094 Eh          -14742.63312 eV
Two Electron Energy:          197.03512166 Eh            5361.59824 eV

Virial components:
Potential Energy   :         -459.91167809 Eh          -12514.83300 eV
Kinetic Energy     :          229.73185575 Eh            6251.32161 eV
Virial Ratio       :            2.00194995


---------------
SCF CONVERGENCE
---------------

  Last Energy change         ...   -2.9110e-09  Tolerance :   1.0000e-08
  Last MAX-Density change    ...    4.4248e-06  Tolerance :   1.0000e-07
  Last RMS-Density change    ...    1.5597e-07  Tolerance :   5.0000e-09
  Last Orbital Gradient      ...    1.7202e-06  Tolerance :   1.0000e-05
  Last Orbital Rotation      ...    4.2583e-06  Tolerance :   1.0000e-05

             **** THE GBW FILE WAS UPDATED (12meoh.boyd.etal.mol0,6-orca.engrad-mp2.def2tzvp.frozencore.gbw) ****
             **** DENSITY FILE WAS UPDATED (12meoh.boyd.etal.mol0,6-orca.engrad-mp2.def2tzvp.frozencore.scfp) ****
             **** ENERGY FILE WAS UPDATED (12meoh.boyd.etal.mol0,6-orca.engrad-mp2.def2tzvp.frozencore.en.tmp) ****
             **** THE GBW FILE WAS UPDATED (12meoh.boyd.etal.mol0,6-orca.engrad-mp2.def2tzvp.frozencore.gbw) ****
             **** DENSITY FILE WAS UPDATED (12meoh.boyd.etal.mol0,6-orca.engrad-mp2.def2tzvp.frozencore.scfp) ****
----------------
ORBITAL ENERGIES
----------------

  NO   OCC          E(Eh)            E(eV) 
   0   2.0000     -20.566142      -559.6332 
   1   2.0000     -20.547746      -559.1326 
   2   2.0000     -11.278308      -306.8984 
   3   2.0000     -11.263987      -306.5087 
   4   2.0000      -1.355125       -36.8748 
   5   2.0000      -1.336076       -36.3565 
   6   2.0000      -0.926110       -25.2007 
   7   2.0000      -0.911271       -24.7970 
   8   2.0000      -0.689365       -18.7586 
   9   2.0000      -0.671622       -18.2758 
  10   2.0000      -0.624425       -16.9915 
  11   2.0000      -0.608533       -16.5590 
  12   2.0000      -0.598909       -16.2971 
  13   2.0000      -0.582479       -15.8501 
  14   2.0000      -0.508059       -13.8250 
  15   2.0000      -0.491235       -13.3672 
  16   2.0000      -0.456551       -12.4234 
  17   2.0000      -0.439848       -11.9689 
  18   0.0000       0.118801         3.2327 
  19   0.0000       0.149098         4.0572 
  20   0.0000       0.164538         4.4773 
  21   0.0000       0.189109         5.1459 
  22   0.0000       0.217479         5.9179 
  23   0.0000       0.224895         6.1197 
  24   0.0000       0.234115         6.3706 
  25   0.0000       0.247056         6.7227 
  26   0.0000       0.251728         6.8499 
  27   0.0000       0.266858         7.2616 
  28   0.0000       0.324492         8.8299 
  29   0.0000       0.336991         9.1700 
  30   0.0000       0.345588         9.4039 
  31   0.0000       0.374089        10.1795 
  32   0.0000       0.454174        12.3587 
  33   0.0000       0.469040        12.7632 
  34   0.0000       0.515692        14.0327 
  35   0.0000       0.535612        14.5747 
  36   0.0000       0.563353        15.3296 
  37   0.0000       0.574095        15.6219 
  38   0.0000       0.610297        16.6070 
  39   0.0000       0.614038        16.7088 
  40   0.0000       0.631674        17.1887 
  41   0.0000       0.636446        17.3186 
  42   0.0000       0.658445        17.9172 
  43   0.0000       0.667311        18.1585 
  44   0.0000       0.677098        18.4248 
  45   0.0000       0.696345        18.9485 
  46   0.0000       0.702802        19.1242 
  47   0.0000       0.722487        19.6599 
  48   0.0000       0.758734        20.6462 
  49   0.0000       0.818959        22.2850 
  50   0.0000       0.877936        23.8898 
  51   0.0000       0.890701        24.2372 
  52   0.0000       0.921017        25.0621 
  53   0.0000       0.931804        25.3557 
  54   0.0000       0.947588        25.7852 
  55   0.0000       0.972194        26.4547 
  56   0.0000       1.084027        29.4979 
  57   0.0000       1.097727        29.8707 
  58   0.0000       1.110213        30.2104 
  59   0.0000       1.149246        31.2726 
  60   0.0000       1.246048        33.9067 
  61   0.0000       1.255301        34.1585 
  62   0.0000       1.528579        41.5947 
  63   0.0000       1.545078        42.0437 
  64   0.0000       1.650854        44.9220 
  65   0.0000       1.668733        45.4085 
  66   0.0000       1.703246        46.3477 
  67   0.0000       1.715604        46.6840 
  68   0.0000       1.769112        48.1400 
  69   0.0000       1.777631        48.3718 
  70   0.0000       1.786074        48.6015 
  71   0.0000       1.794299        48.8254 
  72   0.0000       1.800003        48.9806 
  73   0.0000       1.805398        49.1274 
  74   0.0000       1.836096        49.9627 
  75   0.0000       1.854810        50.4719 
  76   0.0000       1.858012        50.5591 
  77   0.0000       1.871039        50.9135 
  78   0.0000       1.958879        53.3038 
  79   0.0000       1.973870        53.7117 
  80   0.0000       2.140016        58.2328 
  81   0.0000       2.148785        58.4714 
  82   0.0000       2.201055        59.8937 
  83   0.0000       2.215895        60.2976 
  84   0.0000       2.236280        60.8523 
  85   0.0000       2.263014        61.5797 
  86   0.0000       2.284422        62.1623 
  87   0.0000       2.295746        62.4704 
  88   0.0000       2.299246        62.5657 
  89   0.0000       2.322026        63.1855 
  90   0.0000       2.433876        66.2291 
  91   0.0000       2.453492        66.7629 
  92   0.0000       2.547054        69.3089 
  93   0.0000       2.551219        69.4222 
  94   0.0000       2.564502        69.7837 
  95   0.0000       2.574550        70.0571 
  96   0.0000       2.586382        70.3790 
  97   0.0000       2.607291        70.9480 
  98   0.0000       2.624468        71.4154 
  99   0.0000       2.656738        72.2935 
 100   0.0000       2.689681        73.1900 
 101   0.0000       2.704234        73.5860 
 102   0.0000       2.778210        75.5989 
 103   0.0000       2.794341        76.0379 
 104   0.0000       2.832650        77.0803 
 105   0.0000       2.847402        77.4817 
 106   0.0000       2.896033        78.8051 
 107   0.0000       2.912504        79.2533 
 108   0.0000       3.040534        82.7371 
 109   0.0000       3.056880        83.1819 
 110   0.0000       3.103925        84.4621 
 111   0.0000       3.122926        84.9791 
 112   0.0000       3.128766        85.1381 
 113   0.0000       3.148734        85.6814 
 114   0.0000       3.238585        88.1264 
 115   0.0000       3.260858        88.7325 
 116   0.0000       3.350145        91.1621 
 117   0.0000       3.364191        91.5443 
 118   0.0000       3.416483        92.9672 
 119   0.0000       3.428573        93.2962 
 120   0.0000       3.535251        96.1991 
 121   0.0000       3.548196        96.5513 
 122   0.0000       3.630597        98.7936 
 123   0.0000       3.646664        99.2308 
 124   0.0000       3.662334        99.6572 
 125   0.0000       3.682504       100.2060 
 126   0.0000       3.714869       101.0867 
 127   0.0000       3.731844       101.5486 
 128   0.0000       3.858571       104.9971 
 129   0.0000       3.870484       105.3212 
 130   0.0000       3.884903       105.7136 
 131   0.0000       3.896597       106.0318 
 132   0.0000       3.900985       106.1512 
 133   0.0000       3.911298       106.4318 
 134   0.0000       4.242808       115.4527 
 135   0.0000       4.266009       116.0840 
 136   0.0000       4.490218       122.1851 
 137   0.0000       4.504874       122.5839 
 138   0.0000       4.529380       123.2507 
 139   0.0000       4.543106       123.6242 
 140   0.0000       4.702416       127.9592 
 141   0.0000       4.717925       128.3813 
 142   0.0000       4.859036       132.2211 
 143   0.0000       4.877337       132.7191 
 144   0.0000       5.686643       154.7414 
 145   0.0000       5.702110       155.1623 
 146   0.0000       5.764178       156.8513 
 147   0.0000       5.777366       157.2101 
 148   0.0000       5.867486       159.6624 
 149   0.0000       5.886799       160.1880 
 150   0.0000       6.154088       167.4612 
 151   0.0000       6.167755       167.8332 
 152   0.0000       6.176177       168.0623 
 153   0.0000       6.182705       168.2400 
 154   0.0000       6.319010       171.9490 
 155   0.0000       6.329100       172.2236 
 156   0.0000       6.644679       180.8109 
 157   0.0000       6.660714       181.2472 
 158   0.0000       6.940031       188.8478 
 159   0.0000       6.957562       189.3249 
 160   0.0000       7.151024       194.5892 
 161   0.0000       7.159229       194.8125 
 162   0.0000       7.210731       196.2140 
 163   0.0000       7.228239       196.6904 
 164   0.0000       7.448495       202.6839 
 165   0.0000       7.469552       203.2568 
 166   0.0000       7.582761       206.3374 
 167   0.0000       7.598620       206.7690 
 168   0.0000      23.359438       635.6426 
 169   0.0000      23.371086       635.9596 
 170   0.0000      45.138308      1228.2758 
 171   0.0000      45.173444      1229.2319 

                    ********************************
                    * MULLIKEN POPULATION ANALYSIS *
                    ********************************

-----------------------
MULLIKEN ATOMIC CHARGES
-----------------------
   0 O :   -0.549117
   1 H :    0.332911
   2 C :   -0.077077
   3 H :    0.106359
   4 H :    0.094526
   5 H :    0.093549
   6 O :   -0.552036
   7 H :    0.338429
   8 C :   -0.071051
   9 H :    0.105610
  10 H :    0.091143
  11 H :    0.086754
Sum of atomic charges:   -0.0000000

--------------------------------
MULLIKEN REDUCED ORBITAL CHARGES
--------------------------------
  0 O s       :     3.806714  s :     3.806714
      pz      :     1.633517  p :     4.708203
      px      :     1.582162
      py      :     1.492524
      dz2     :     0.002577  d :     0.032476
      dxz     :     0.009500
      dyz     :     0.004616
      dx2y2   :     0.008306
      dxy     :     0.007476
      f0      :     0.000294  f :     0.001724
      f+1     :     0.000124
      f-1     :     0.000212
      f+2     :     0.000473
      f-2     :     0.000322
      f+3     :     0.000152
      f-3     :     0.000147
  1 H s       :     0.624685  s :     0.624685
      pz      :     0.015903  p :     0.042404
      px      :     0.014988
      py      :     0.011513
  2 C s       :     3.194515  s :     3.194515
      pz      :     0.967858  p :     2.758595
      px      :     1.027399
      py      :     0.763339
      dz2     :     0.013067  d :     0.115012
      dxz     :     0.026252
      dyz     :     0.028310
      dx2y2   :     0.026135
      dxy     :     0.021249
      f0      :     0.000510  f :     0.008954
      f+1     :     0.000225
      f-1     :     0.001991
      f+2     :     0.002334
      f-2     :     0.001497
      f+3     :     0.001128
      f-3     :     0.001269
  3 H s       :     0.872535  s :     0.872535
      pz      :     0.007750  p :     0.021106
      px      :     0.009618
      py      :     0.003738
  4 H s       :     0.885288  s :     0.885288
      pz      :     0.006948  p :     0.020186
      px      :     0.010792
      py      :     0.002445
  5 H s       :     0.886371  s :     0.886371
      pz      :     0.007575  p :     0.020080
      px      :     0.003654
      py      :     0.008850
  6 O s       :     3.805369  s :     3.805369
      pz      :     1.470231  p :     4.712497
      px      :     1.584701
      py      :     1.657564
      dz2     :     0.003460  d :     0.032443
      dxz     :     0.006467
      dyz     :     0.010785
      dx2y2   :     0.006830
      dxy     :     0.004902
      f0      :     0.000218  f :     0.001727
      f+1     :     0.000180
      f-1     :     0.000375
      f+2     :     0.000465
      f-2     :     0.000281
      f+3     :     0.000045
      f-3     :     0.000163
  7 H s       :     0.619287  s :     0.619287
      pz      :     0.014036  p :     0.042283
      px      :     0.017244
      py      :     0.011004
  8 C s       :     3.191962  s :     3.191962
      pz      :     0.826187  p :     2.754400
      px      :     1.049613
      py      :     0.878599
      dz2     :     0.024687  d :     0.115743
      dxz     :     0.036009
      dyz     :     0.018285
      dx2y2   :     0.027574
      dxy     :     0.009188
      f0      :     0.001616  f :     0.008946
      f+1     :     0.000568
      f-1     :     0.001689
      f+2     :     0.002454
      f-2     :     0.001477
      f+3     :     0.000460
      f-3     :     0.000683
  9 H s       :     0.873321  s :     0.873321
      pz      :     0.005877  p :     0.021069
      px      :     0.011600
      py      :     0.003592
 10 H s       :     0.888698  s :     0.888698
      pz      :     0.007523  p :     0.020158
      px      :     0.009775
      py      :     0.002860
 11 H s       :     0.893285  s :     0.893285
      pz      :     0.003381  p :     0.019961
      px      :     0.003498
      py      :     0.013082


                     *******************************
                     * LOEWDIN POPULATION ANALYSIS *
                     *******************************

----------------------
LOEWDIN ATOMIC CHARGES
----------------------
   0 O :   -0.132186
   1 H :    0.193452
   2 C :   -0.338527
   3 H :    0.100491
   4 H :    0.089096
   5 H :    0.088485
   6 O :   -0.132700
   7 H :    0.195256
   8 C :   -0.337784
   9 H :    0.099906
  10 H :    0.087858
  11 H :    0.086654

-------------------------------
LOEWDIN REDUCED ORBITAL CHARGES
-------------------------------
  0 O s       :     3.395163  s :     3.395163
      pz      :     1.580751  p :     4.664163
      px      :     1.570898
      py      :     1.512513
      dz2     :     0.007031  d :     0.068725
      dxz     :     0.016313
      dyz     :     0.014047
      dx2y2   :     0.015021
      dxy     :     0.016314
      f0      :     0.000465  f :     0.004135
      f+1     :     0.000225
      f-1     :     0.000628
      f+2     :     0.000951
      f-2     :     0.000590
      f+3     :     0.000610
      f-3     :     0.000665
  1 H s       :     0.663907  s :     0.663907
      pz      :     0.050058  p :     0.142642
      px      :     0.061486
      py      :     0.031098
  2 C s       :     2.861889  s :     2.861889
      pz      :     1.029113  p :     2.993461
      px      :     1.076328
      py      :     0.888020
      dz2     :     0.041877  d :     0.425365
      dxz     :     0.092272
      dyz     :     0.112095
      dx2y2   :     0.102927
      dxy     :     0.076194
      f0      :     0.006056  f :     0.057813
      f+1     :     0.002266
      f-1     :     0.014296
      f+2     :     0.007684
      f-2     :     0.007639
      f+3     :     0.010005
      f-3     :     0.009867
  3 H s       :     0.840890  s :     0.840890
      pz      :     0.021070  p :     0.058620
      px      :     0.026701
      py      :     0.010849
  4 H s       :     0.852247  s :     0.852247
      pz      :     0.020271  p :     0.058657
      px      :     0.029555
      py      :     0.008831
  5 H s       :     0.853020  s :     0.853020
      pz      :     0.021959  p :     0.058495
      px      :     0.012647
      py      :     0.023889
  6 O s       :     3.395608  s :     3.395608
      pz      :     1.469942  p :     4.664902
      px      :     1.542962
      py      :     1.651997
      dz2     :     0.011317  d :     0.068114
      dxz     :     0.018081
      dyz     :     0.018967
      dx2y2   :     0.012366
      dxy     :     0.007383
      f0      :     0.000708  f :     0.004077
      f+1     :     0.000293
      f-1     :     0.000845
      f+2     :     0.000710
      f-2     :     0.000890
      f+3     :     0.000190
      f-3     :     0.000441
  7 H s       :     0.662120  s :     0.662120
      pz      :     0.041001  p :     0.142624
      px      :     0.064674
      py      :     0.036949
  8 C s       :     2.861966  s :     2.861966
      pz      :     0.926260  p :     2.992823
      px      :     1.087383
      py      :     0.979180
      dz2     :     0.086429  d :     0.425429
      dxz     :     0.116182
      dyz     :     0.093120
      dx2y2   :     0.100137
      dxy     :     0.029561
      f0      :     0.013451  f :     0.057566
      f+1     :     0.003472
      f-1     :     0.012567
      f+2     :     0.009845
      f-2     :     0.009683
      f+3     :     0.004268
      f-3     :     0.004279
  9 H s       :     0.841487  s :     0.841487
      pz      :     0.015880  p :     0.058607
      px      :     0.030882
      py      :     0.011845
 10 H s       :     0.853625  s :     0.853625
      pz      :     0.021001  p :     0.058517
      px      :     0.027400
      py      :     0.010116
 11 H s       :     0.855067  s :     0.855067
      pz      :     0.011426  p :     0.058279
      px      :     0.012543
      py      :     0.034311


                      *****************************
                      * MAYER POPULATION ANALYSIS *
                      *****************************

  NA   - Mulliken gross atomic population
  ZA   - Total nuclear charge
  QA   - Mulliken gross atomic charge
  VA   - Mayer's total valence
  BVA  - Mayer's bonded valence
  FA   - Mayer's free valence

  ATOM       NA         ZA         QA         VA         BVA        FA
  0 O      8.5491     8.0000    -0.5491     1.7902     1.7902    -0.0000
  1 H      0.6671     1.0000     0.3329     0.8962     0.8962    -0.0000
  2 C      6.0771     6.0000    -0.0771     3.8974     3.8974    -0.0000
  3 H      0.8936     1.0000     0.1064     0.9611     0.9611    -0.0000
  4 H      0.9055     1.0000     0.0945     0.9621     0.9621    -0.0000
  5 H      0.9065     1.0000     0.0935     0.9607     0.9607    -0.0000
  6 O      8.5520     8.0000    -0.5520     1.7903     1.7903     0.0000
  7 H      0.6616     1.0000     0.3384     0.8945     0.8945     0.0000
  8 C      6.0711     6.0000    -0.0711     3.9055     3.9055     0.0000
  9 H      0.8944     1.0000     0.1056     0.9613     0.9613     0.0000
 10 H      0.9089     1.0000     0.0911     0.9607     0.9607    -0.0000
 11 H      0.9132     1.0000     0.0868     0.9615     0.9615    -0.0000

  Mayer bond orders larger than 0.100000
B(  0-O ,  1-H ) :   0.8850 B(  0-O ,  2-C ) :   0.9307 B(  2-C ,  3-H ) :   0.9832 
B(  2-C ,  4-H ) :   0.9883 B(  2-C ,  5-H ) :   0.9870 B(  6-O ,  7-H ) :   0.8804 
B(  6-O ,  8-C ) :   0.9378 B(  8-C ,  9-H ) :   0.9836 B(  8-C , 10-H ) :   0.9880 
B(  8-C , 11-H ) :   0.9880 

-------
TIMINGS
-------

Total SCF time: 0 days 0 hours 0 min 5 sec 

Total time                  ....       5.089 sec
Sum of individual times     ....       4.898 sec  ( 96.2%)

Fock matrix formation       ....       4.697 sec  ( 92.3%)
Diagonalization             ....       0.029 sec  (  0.6%)
Density matrix formation    ....       0.004 sec  (  0.1%)
Population analysis         ....       0.012 sec  (  0.2%)
Initial guess               ....       0.106 sec  (  2.1%)
Orbital Transformation      ....       0.000 sec  (  0.0%)
Orbital Orthonormalization  ....       0.000 sec  (  0.0%)
DIIS solution               ....       0.010 sec  (  0.2%)
SOSCF solution              ....       0.011 sec  (  0.2%)


           ************************************************************
           *        Program running with 6 parallel MPI-processes     *
           *              working on a common directory               *
           ************************************************************

------------------------------------------------------------------------------
                                ORCA  MP2 
------------------------------------------------------------------------------

Freezing NCore=8 chemical core electrons
MP2 will be done in the AO integral direct mode
The Q1-step will be done using symmetric double matrices
Dimension of the basis                    ...  172
Memory devoted for MP2                    ... 8000 MB   
Memory needed for all in one shot         ...   60 MB
Number of MOs that can be treated together...  408      
MP2 density construction                  ... relaxed
The MP2 gradient is requested => amplitudes will be stored on disk
Total number of MOs              ...   14
Number of MOs treated per batch  ...    3 
Number of batches necessary      ...    1 
OPERATORS   0/  0 PASS   0
-----------------------------------------------
 MP2 CORRELATION ENERGY   :     -0.834926700 Eh
-----------------------------------------------


---------------------
MP2 DENSITY FORMATION
---------------------

Completing the external part of the density      ... done
Storing the unrelaxed density                    ... done

Calculating G(D)                                 ... done
Completing the Lagrangian                        ... done
Solving the Z-vector equations                   ... 

------------------------------------------------------------------------------
                           ORCA CP-SCF CALCULATION
------------------------------------------------------------------------------

Input orbitals are from        ... 12meoh.boyd.etal.mol0,6-orca.engrad-mp2.def2tzvp.frozencore.gbw
Input Perturbation             ... 12meoh.boyd.etal.mol0,6-orca.engrad-mp2.def2tzvp.frozencore.pin.tmp
Wavefunction output            ... 12meoh.boyd.etal.mol0,6-orca.engrad-mp2.def2tzvp.frozencore.pout.tmp
Perturbation mode              ... Real perturbation (singlet)
Solver                         ... POPLE
Max. number of iterations      ... 128
Convergence tolerance          ... 1.000e-08
Integral handling              ... Direct
Number of perturbations        ... 1
Number of operators            ... 1
Orbital ranges used for CP-SCF:
 Operator 0:  Orbitals   0... 17  to  18...171
Variables per vector in CP-SCF ... 2772
Number of vectors sought       ... 1
     CP-SCF ITERATION   0: 
     CP-SCF ITERATION   1:      0.000238902963
     CP-SCF ITERATION   2:      0.000011264104
     CP-SCF ITERATION   3:      0.000001591729
     CP-SCF ITERATION   4:      0.000000102458
     CP-SCF ITERATION   5:      0.000000003024
                                                 ... done
Finalizing the relaxed density                   ... done
Transforming P to the AO basis                   ... done
Storing the relaxed density                      ... done

------------------------------------
ENERGY WEIGHTED DENSITY FINALIZATION
------------------------------------

Gathering the parts of the W-matrix              ...                                                      done
Forming the Z-density                            ... done
Transforming Z to the AO basis                   ... done
Calculating G(Z)                                 ... done
Finalizing the W-matrix                          ...                                                      done
Transforming W to the AO basis and storing       ... done

                *********************************************
                * UNRELAXED MP2 DENSITY POPULATION ANALYSIS *
                *********************************************

------------------------------------------------------------------------------
                           ORCA POPULATION ANALYSIS
------------------------------------------------------------------------------
Input electron density              ... 12meoh.boyd.etal.mol0,6-orca.engrad-mp2.def2tzvp.frozencore.pmp2ur
BaseName (.gbw .S,...)              ... 12meoh.boyd.etal.mol0,6-orca.engrad-mp2.def2tzvp.frozencore

                    ********************************
                    * MULLIKEN POPULATION ANALYSIS *
                    ********************************

-----------------------
MULLIKEN ATOMIC CHARGES
-----------------------
   0 O :   -0.538048
   1 H :    0.330189
   2 C :   -0.092969
   3 H :    0.109134
   4 H :    0.096944
   5 H :    0.095953
   6 O :   -0.540935
   7 H :    0.335653
   8 C :   -0.087069
   9 H :    0.108407
  10 H :    0.093551
  11 H :    0.089191
Sum of atomic charges:   -0.0000000

--------------------------------
MULLIKEN REDUCED ORBITAL CHARGES
--------------------------------
  0 O s       :     3.801486  s :     3.801486
      pz      :     1.621852  p :     4.672429
      px      :     1.570084
      py      :     1.480492
      dz2     :     0.008274  d :     0.059753
      dxz     :     0.014812
      dyz     :     0.010169
      dx2y2   :     0.013649
      dxy     :     0.012848
      f0      :     0.000661  f :     0.004381
      f+1     :     0.000502
      f-1     :     0.000590
      f+2     :     0.000848
      f-2     :     0.000700
      f+3     :     0.000541
      f-3     :     0.000538
  1 H s       :     0.625707  s :     0.625707
      pz      :     0.016424  p :     0.044104
      px      :     0.015415
      py      :     0.012266
  2 C s       :     3.192621  s :     3.192621
      pz      :     0.964997  p :     2.752431
      px      :     1.023104
      py      :     0.764330
      dz2     :     0.018382  d :     0.135632
      dxz     :     0.030253
      dyz     :     0.031404
      dx2y2   :     0.029723
      dxy     :     0.025870
      f0      :     0.000961  f :     0.012285
      f+1     :     0.000766
      f-1     :     0.002474
      f+2     :     0.002735
      f-2     :     0.002000
      f+3     :     0.001600
      f-3     :     0.001749
  3 H s       :     0.866666  s :     0.866666
      pz      :     0.008773  p :     0.024200
      px      :     0.010562
      py      :     0.004865
  4 H s       :     0.879689  s :     0.879689
      pz      :     0.007998  p :     0.023367
      px      :     0.011756
      py      :     0.003612
  5 H s       :     0.880785  s :     0.880785
      pz      :     0.008607  p :     0.023263
      px      :     0.004803
      py      :     0.009853
  6 O s       :     3.800127  s :     3.800127
      pz      :     1.459139  p :     4.676699
      px      :     1.573446
      py      :     1.644113
      dz2     :     0.009110  d :     0.059729
      dxz     :     0.011939
      dyz     :     0.016042
      dx2y2   :     0.012283
      dxy     :     0.010354
      f0      :     0.000597  f :     0.004381
      f+1     :     0.000555
      f-1     :     0.000757
      f+2     :     0.000840
      f-2     :     0.000665
      f+3     :     0.000426
      f-3     :     0.000541
  7 H s       :     0.620395  s :     0.620395
      pz      :     0.014561  p :     0.043952
      px      :     0.017524
      py      :     0.011867
  8 C s       :     3.190073  s :     3.190073
      pz      :     0.826186  p :     2.748360
      px      :     1.045140
      py      :     0.877034
      dz2     :     0.029230  d :     0.136362
      dxz     :     0.039783
      dyz     :     0.021582
      dx2y2   :     0.031341
      dxy     :     0.014425
      f0      :     0.002076  f :     0.012274
      f+1     :     0.001130
      f-1     :     0.002095
      f+2     :     0.002852
      f-2     :     0.001975
      f+3     :     0.000977
      f-3     :     0.001170
  9 H s       :     0.867427  s :     0.867427
      pz      :     0.006956  p :     0.024167
      px      :     0.012509
      py      :     0.004701
 10 H s       :     0.883091  s :     0.883091
      pz      :     0.008571  p :     0.023358
      px      :     0.010758
      py      :     0.004029
 11 H s       :     0.887645  s :     0.887645
      pz      :     0.004526  p :     0.023164
      px      :     0.004651
      py      :     0.013986


                     *******************************
                     * LOEWDIN POPULATION ANALYSIS *
                     *******************************

----------------------
LOEWDIN ATOMIC CHARGES
----------------------
   0 O :   -0.124369
   1 H :    0.191566
   2 C :   -0.349088
   3 H :    0.102242
   4 H :    0.090567
   5 H :    0.089950
   6 O :   -0.124879
   7 H :    0.193338
   8 C :   -0.348404
   9 H :    0.101657
  10 H :    0.089308
  11 H :    0.088112

-------------------------------
LOEWDIN REDUCED ORBITAL CHARGES
-------------------------------
  0 O s       :     3.391695  s :     3.391695
      pz      :     1.569223  p :     4.628224
      px      :     1.559030
      py      :     1.499971
      dz2     :     0.012624  d :     0.097406
      dxz     :     0.022150
      dyz     :     0.020048
      dx2y2   :     0.020748
      dxy     :     0.021836
      f0      :     0.000872  f :     0.007044
      f+1     :     0.000619
      f-1     :     0.001024
      f+2     :     0.001395
      f-2     :     0.001021
      f+3     :     0.001032
      f-3     :     0.001080
  1 H s       :     0.662241  s :     0.662241
      pz      :     0.051227  p :     0.146193
      px      :     0.062992
      py      :     0.031974
  2 C s       :     2.860750  s :     2.860750
      pz      :     1.023907  p :     2.979590
      px      :     1.070062
      py      :     0.885620
      dz2     :     0.046572  d :     0.446054
      dxz     :     0.096760
      dyz     :     0.115566
      dx2y2   :     0.106842
      dxy     :     0.080314
      f0      :     0.006732  f :     0.062694
      f+1     :     0.002905
      f-1     :     0.014771
      f+2     :     0.008725
      f-2     :     0.008429
      f+3     :     0.010679
      f-3     :     0.010453
  3 H s       :     0.834116  s :     0.834116
      pz      :     0.022779  p :     0.063642
      px      :     0.028576
      py      :     0.012287
  4 H s       :     0.845549  s :     0.845549
      pz      :     0.021962  p :     0.063884
      px      :     0.031731
      py      :     0.010191
  5 H s       :     0.846332  s :     0.846332
      pz      :     0.023759  p :     0.063718
      px      :     0.013955
      py      :     0.026004
  6 O s       :     3.392145  s :     3.392145
      pz      :     1.458428  p :     4.628957
      px      :     1.531955
      py      :     1.638574
      dz2     :     0.016874  d :     0.096793
      dxz     :     0.023813
      dyz     :     0.025130
      dx2y2   :     0.018010
      dxy     :     0.012966
      f0      :     0.001113  f :     0.006984
      f+1     :     0.000687
      f-1     :     0.001293
      f+2     :     0.001168
      f-2     :     0.001304
      f+3     :     0.000580
      f-3     :     0.000839
  7 H s       :     0.660553  s :     0.660553
      pz      :     0.042026  p :     0.146110
      px      :     0.066137
      py      :     0.037947
  8 C s       :     2.860831  s :     2.860831
      pz      :     0.923140  p :     2.978982
      px      :     1.080940
      py      :     0.974902
      dz2     :     0.090314  d :     0.446145
      dxz     :     0.119890
      dyz     :     0.097133
      dx2y2   :     0.104360
      dxy     :     0.034447
      f0      :     0.013943  f :     0.062446
      f+1     :     0.004167
      f-1     :     0.013359
      f+2     :     0.010902
      f-2     :     0.010231
      f+3     :     0.004875
      f-3     :     0.004968
  9 H s       :     0.834703  s :     0.834703
      pz      :     0.017513  p :     0.063639
      px      :     0.032956
      py      :     0.013170
 10 H s       :     0.846926  s :     0.846926
      pz      :     0.022929  p :     0.063766
      px      :     0.029415
      py      :     0.011421
 11 H s       :     0.848348  s :     0.848348
      pz      :     0.012859  p :     0.063540
      px      :     0.013802
      py      :     0.036879


                      *****************************
                      * MAYER POPULATION ANALYSIS *
                      *****************************

  NA   - Mulliken gross atomic population
  ZA   - Total nuclear charge
  QA   - Mulliken gross atomic charge
  VA   - Mayer's total valence
  BVA  - Mayer's bonded valence
  FA   - Mayer's free valence

  ATOM       NA         ZA         QA         VA         BVA        FA
  0 O      8.5380     8.0000    -0.5380     2.0895     1.6842     0.4053
  1 H      0.6698     1.0000     0.3302     0.9026     0.8497     0.0529
  2 C      6.0930     6.0000    -0.0930     4.0023     3.7240     0.2783
  3 H      0.8909     1.0000     0.1091     0.9701     0.9230     0.0471
  4 H      0.9031     1.0000     0.0969     0.9719     0.9229     0.0490
  5 H      0.9040     1.0000     0.0960     0.9706     0.9215     0.0491
  6 O      8.5409     8.0000    -0.5409     2.0901     1.6846     0.4055
  7 H      0.6643     1.0000     0.3357     0.9009     0.8484     0.0525
  8 C      6.0871     6.0000    -0.0871     4.0100     3.7315     0.2785
  9 H      0.8916     1.0000     0.1084     0.9703     0.9232     0.0471
 10 H      0.9064     1.0000     0.0936     0.9707     0.9215     0.0493
 11 H      0.9108     1.0000     0.0892     0.9716     0.9221     0.0495

  Mayer bond orders larger than 0.100000
B(  0-O ,  1-H ) :   0.8395 B(  0-O ,  2-C ) :   0.8719 B(  2-C ,  3-H ) :   0.9457 
B(  2-C ,  4-H ) :   0.9501 B(  2-C ,  5-H ) :   0.9488 B(  6-O ,  7-H ) :   0.8354 
B(  6-O ,  8-C ) :   0.8786 B(  8-C ,  9-H ) :   0.9461 B(  8-C , 10-H ) :   0.9497 
B(  8-C , 11-H ) :   0.9496 


                *******************************************
                * RELAXED MP2 DENSITY POPULATION ANALYSIS *
                *******************************************

------------------------------------------------------------------------------
                           ORCA POPULATION ANALYSIS
------------------------------------------------------------------------------
Input electron density              ... 12meoh.boyd.etal.mol0,6-orca.engrad-mp2.def2tzvp.frozencore.pmp2re
BaseName (.gbw .S,...)              ... 12meoh.boyd.etal.mol0,6-orca.engrad-mp2.def2tzvp.frozencore

                    ********************************
                    * MULLIKEN POPULATION ANALYSIS *
                    ********************************

-----------------------
MULLIKEN ATOMIC CHARGES
-----------------------
   0 O :   -0.500340
   1 H :    0.324788
   2 C :   -0.175230
   3 H :    0.127636
   4 H :    0.113066
   5 H :    0.111840
   6 O :   -0.503021
   7 H :    0.329121
   8 C :   -0.169282
   9 H :    0.126485
  10 H :    0.109541
  11 H :    0.105395
Sum of atomic charges:   -0.0000000

--------------------------------
MULLIKEN REDUCED ORBITAL CHARGES
--------------------------------
  0 O s       :     3.803577  s :     3.803577
      pz      :     1.610869  p :     4.634818
      px      :     1.552279
      py      :     1.471669
      dz2     :     0.008355  d :     0.057621
      dxz     :     0.013936
      dyz     :     0.009870
      dx2y2   :     0.012917
      dxy     :     0.012542
      f0      :     0.000646  f :     0.004325
      f+1     :     0.000499
      f-1     :     0.000599
      f+2     :     0.000828
      f-2     :     0.000688
      f+3     :     0.000530
      f-3     :     0.000534
  1 H s       :     0.630548  s :     0.630548
      pz      :     0.016640  p :     0.044664
      px      :     0.015261
      py      :     0.012763
  2 C s       :     3.214895  s :     3.214895
      pz      :     0.989748  p :     2.822639
      px      :     1.050025
      py      :     0.782866
      dz2     :     0.020396  d :     0.125974
      dxz     :     0.025651
      dyz     :     0.026794
      dx2y2   :     0.026142
      dxy     :     0.026991
      f0      :     0.000914  f :     0.011723
      f+1     :     0.000740
      f-1     :     0.002344
      f+2     :     0.002558
      f-2     :     0.001943
      f+3     :     0.001567
      f-3     :     0.001657
  3 H s       :     0.849302  s :     0.849302
      pz      :     0.008341  p :     0.023062
      px      :     0.009815
      py      :     0.004906
  4 H s       :     0.864682  s :     0.864682
      pz      :     0.007619  p :     0.022252
      px      :     0.010777
      py      :     0.003856
  5 H s       :     0.866010  s :     0.866010
      pz      :     0.008103  p :     0.022150
      px      :     0.004991
      py      :     0.009056
  6 O s       :     3.801514  s :     3.801514
      pz      :     1.450771  p :     4.639577
      px      :     1.558618
      py      :     1.630189
      dz2     :     0.009163  d :     0.057604
      dxz     :     0.011674
      dyz     :     0.014700
      dx2y2   :     0.011878
      dxy     :     0.010189
      f0      :     0.000596  f :     0.004326
      f+1     :     0.000557
      f-1     :     0.000736
      f+2     :     0.000815
      f-2     :     0.000664
      f+3     :     0.000426
      f-3     :     0.000532
  7 H s       :     0.626410  s :     0.626410
      pz      :     0.014660  p :     0.044469
      px      :     0.017212
      py      :     0.012598
  8 C s       :     3.212126  s :     3.212126
      pz      :     0.846041  p :     2.818620
      px      :     1.072053
      py      :     0.900526
      dz2     :     0.029751  d :     0.126822
      dxz     :     0.035602
      dyz     :     0.019551
      dx2y2   :     0.026903
      dxy     :     0.015015
      f0      :     0.001933  f :     0.011715
      f+1     :     0.001105
      f-1     :     0.002012
      f+2     :     0.002720
      f-2     :     0.001890
      f+3     :     0.000925
      f-3     :     0.001130
  9 H s       :     0.850494  s :     0.850494
      pz      :     0.006716  p :     0.023021
      px      :     0.011500
      py      :     0.004804
 10 H s       :     0.868193  s :     0.868193
      pz      :     0.008037  p :     0.022265
      px      :     0.009935
      py      :     0.004293
 11 H s       :     0.872541  s :     0.872541
      pz      :     0.004634  p :     0.022064
      px      :     0.004862
      py      :     0.012569


                     *******************************
                     * LOEWDIN POPULATION ANALYSIS *
                     *******************************

----------------------
LOEWDIN ATOMIC CHARGES
----------------------
   0 O :   -0.111406
   1 H :    0.194208
   2 C :   -0.383898
   3 H :    0.109604
   4 H :    0.096634
   5 H :    0.095993
   6 O :   -0.111794
   7 H :    0.195487
   8 C :   -0.383302
   9 H :    0.108950
  10 H :    0.095239
  11 H :    0.094287

-------------------------------
LOEWDIN REDUCED ORBITAL CHARGES
-------------------------------
  0 O s       :     3.394565  s :     3.394565
      pz      :     1.565415  p :     4.612781
      px      :     1.552803
      py      :     1.494563
      dz2     :     0.012938  d :     0.096903
      dxz     :     0.021683
      dyz     :     0.019958
      dx2y2   :     0.020459
      dxy     :     0.021865
      f0      :     0.000881  f :     0.007157
      f+1     :     0.000625
      f-1     :     0.001050
      f+2     :     0.001418
      f-2     :     0.001039
      f+3     :     0.001042
      f-3     :     0.001102
  1 H s       :     0.659015  s :     0.659015
      pz      :     0.051330  p :     0.146777
      px      :     0.063259
      py      :     0.032188
  2 C s       :     2.866706  s :     2.866706
      pz      :     1.038384  p :     3.019563
      px      :     1.084990
      py      :     0.896189
      dz2     :     0.047333  d :     0.436486
      dxz     :     0.093662
      dyz     :     0.110953
      dx2y2   :     0.104561
      dxy     :     0.079976
      f0      :     0.006697  f :     0.061143
      f+1     :     0.002827
      f-1     :     0.014389
      f+2     :     0.008403
      f-2     :     0.008145
      f+3     :     0.010566
      f-3     :     0.010116
  3 H s       :     0.826379  s :     0.826379
      pz      :     0.022890  p :     0.064017
      px      :     0.028445
      py      :     0.012682
  4 H s       :     0.838739  s :     0.838739
      pz      :     0.022226  p :     0.064627
      px      :     0.031649
      py      :     0.010751
  5 H s       :     0.839553  s :     0.839553
      pz      :     0.023812  p :     0.064455
      px      :     0.014414
      py      :     0.026229
  6 O s       :     3.395050  s :     3.395050
      pz      :     1.455939  p :     4.613368
      px      :     1.528540
      py      :     1.628889
      dz2     :     0.017208  d :     0.096280
      dxz     :     0.023726
      dyz     :     0.024422
      dx2y2   :     0.017788
      dxy     :     0.013137
      f0      :     0.001136  f :     0.007096
      f+1     :     0.000693
      f-1     :     0.001319
      f+2     :     0.001194
      f-2     :     0.001325
      f+3     :     0.000588
      f-3     :     0.000840
  7 H s       :     0.657899  s :     0.657899
      pz      :     0.041831  p :     0.146614
      px      :     0.066015
      py      :     0.038768
  8 C s       :     2.866771  s :     2.866771
      pz      :     0.934738  p :     3.018884
      px      :     1.096278
      py      :     0.987868
      dz2     :     0.090984  d :     0.436736
      dxz     :     0.116645
      dyz     :     0.093594
      dx2y2   :     0.101292
      dxy     :     0.034221
      f0      :     0.013672  f :     0.060911
      f+1     :     0.003996
      f-1     :     0.013074
      f+2     :     0.010622
      f-2     :     0.009931
      f+3     :     0.004763
      f-3     :     0.004854
  9 H s       :     0.827035  s :     0.827035
      pz      :     0.017750  p :     0.064015
      px      :     0.032709
      py      :     0.013556
 10 H s       :     0.840244  s :     0.840244
      pz      :     0.023243  p :     0.064517
      px      :     0.029331
      py      :     0.011943
 11 H s       :     0.841402  s :     0.841402
      pz      :     0.013304  p :     0.064311
      px      :     0.014266
      py      :     0.036740


                      *****************************
                      * MAYER POPULATION ANALYSIS *
                      *****************************

  NA   - Mulliken gross atomic population
  ZA   - Total nuclear charge
  QA   - Mulliken gross atomic charge
  VA   - Mayer's total valence
  BVA  - Mayer's bonded valence
  FA   - Mayer's free valence

  ATOM       NA         ZA         QA         VA         BVA        FA
  0 O      8.5003     8.0000    -0.5003     2.1439     1.7453     0.3986
  1 H      0.6752     1.0000     0.3248     0.9052     0.8522     0.0530
  2 C      6.1752     6.0000    -0.1752     4.0231     3.7470     0.2761
  3 H      0.8724     1.0000     0.1276     0.9616     0.9151     0.0466
  4 H      0.8869     1.0000     0.1131     0.9646     0.9162     0.0484
  5 H      0.8882     1.0000     0.1118     0.9632     0.9147     0.0485
  6 O      8.5030     8.0000    -0.5030     2.1449     1.7460     0.3989
  7 H      0.6709     1.0000     0.3291     0.9051     0.8525     0.0526
  8 C      6.1693     6.0000    -0.1693     4.0318     3.7555     0.2763
  9 H      0.8735     1.0000     0.1265     0.9618     0.9153     0.0465
 10 H      0.8905     1.0000     0.1095     0.9632     0.9146     0.0486
 11 H      0.8946     1.0000     0.1054     0.9647     0.9158     0.0488

  Mayer bond orders larger than 0.100000
B(  0-O ,  1-H ) :   0.8398 B(  0-O ,  2-C ) :   0.9229 B(  2-C ,  3-H ) :   0.9376 
B(  2-C ,  4-H ) :   0.9396 B(  2-C ,  5-H ) :   0.9381 B(  6-O ,  7-H ) :   0.8361 
B(  6-O ,  8-C ) :   0.9305 B(  8-C ,  9-H ) :   0.9379 B(  8-C , 10-H ) :   0.9390 
B(  8-C , 11-H ) :   0.9393 


----------------------------------
MP2 DERIVATIVE INTEGRAL GENERATION
----------------------------------


Input Wavefunction Amplitudes       ... 12meoh.boyd.etal.mol0,6-orca.engrad-mp2.def2tzvp.frozencore.mp2tsaa.tmp
Input Correlated Electron Density   ... 12meoh.boyd.etal.mol0,6-orca.engrad-mp2.def2tzvp.frozencore.pmp2re
Input Energy Weighted Density       ... 12meoh.boyd.etal.mol0,6-orca.engrad-mp2.def2tzvp.frozencore.wmp2.tmp
Input SCF Electron Density          ... 12meoh.boyd.etal.mol0,6-orca.engrad-mp2.def2tzvp.frozencore.scfp

One-Electron Terms    ...
                        ... One-Electron Terms done
Prescreening matrices              ... done

Batch handling in the gradient evaluation:
Memory available                      ... 8000.0 MB
Memory per occupied orbital in Q2     ...    3.2 MB
Memory per occupied orbital in Q3     ...    0.1 MB
Total memory requirement per |i>      ...    3.2 MB
Max. Number of orbitals possible      ...   2481
Number of orbitals treated per batch  ...     14
Number of batches to be done          ...      1
Batch   0: i=    4 ...    17

---------------------------------------
MP2 TOTAL ENERGY:     -231.014749040 Eh
---------------------------------------

The final MP2 gradient
  0:   0.01885662  -0.00828301  -0.01787368
  1:  -0.02259071   0.00950923   0.01878976
  2:   0.00479582   0.00283095   0.00080689
  3:   0.00220876  -0.00281431  -0.00326330
  4:  -0.00278767   0.00133948  -0.00080549
  5:  -0.00145685  -0.00257426   0.00233648
  6:   0.02016326   0.00853831  -0.01573235
  7:  -0.02354802  -0.00769817   0.01905091
  8:   0.00476121   0.00194114   0.00004081
  9:   0.00277870  -0.00024909  -0.00352347
 10:  -0.00258754   0.00078865  -0.00114428
 11:  -0.00059357  -0.00332892   0.00131772

-----------------------------------
NORM OF THE MP2 GRADIENT:  0.059574
-----------------------------------

-------------------------   --------------------
FINAL SINGLE POINT ENERGY      -231.014749039691
-------------------------   --------------------


                            ***************************************
                            *     ORCA property calculations      *
                            ***************************************

                                    ---------------------
                                    Active property flags
                                    ---------------------
   (+) Dipole Moment


------------------------------------------------------------------------------
                       ORCA ELECTRIC PROPERTIES CALCULATION
------------------------------------------------------------------------------

Dipole Moment Calculation                       ... on
Quadrupole Moment Calculation                   ... off
Polarizability Calculation                      ... off
GBWName                                         ... 12meoh.boyd.etal.mol0,6-orca.engrad-mp2.def2tzvp.frozencore.gbw
Electron density file                           ... 12meoh.boyd.etal.mol0,6-orca.engrad-mp2.def2tzvp.frozencore.scfp
The origin for moment calculation is the CENTER OF MASS  = ( 0.644166, -5.190885 -3.094929)

-------------
DIPOLE MOMENT
-------------
                                X             Y             Z
Electronic contribution:      0.47403       2.68251       2.02518
Nuclear contribution   :     -1.61013      -3.59660      -2.02798
                        -----------------------------------------
Total Dipole Moment    :     -1.13610      -0.91408      -0.00280
                        -----------------------------------------
Magnitude (a.u.)       :      1.45818
Magnitude (Debye)      :      3.70639



--------------------
Rotational spectrum 
--------------------
 
Rotational constants in cm-1:     0.436013     0.043281     0.040116 
Rotational constants in MHz : 13071.347745  1297.539461  1202.648673 

 Dipole components along the rotational axes: 
x,y,z [a.u.] :     1.318784    -0.556151    -0.278904 
x,y,z [Debye]:     3.352084    -1.413623    -0.708917 

 

                         *** MP2 UNRELAXED DENSITY ***

------------------------------------------------------------------------------
                       ORCA ELECTRIC PROPERTIES CALCULATION
------------------------------------------------------------------------------

Dipole Moment Calculation                       ... on
Quadrupole Moment Calculation                   ... off
Polarizability Calculation                      ... off
GBWName                                         ... 12meoh.boyd.etal.mol0,6-orca.engrad-mp2.def2tzvp.frozencore.gbw
Electron density file                           ... 12meoh.boyd.etal.mol0,6-orca.engrad-mp2.def2tzvp.frozencore.pmp2ur
The origin for moment calculation is the CENTER OF MASS  = ( 0.644166, -5.190885 -3.094929)

-------------
DIPOLE MOMENT
-------------
                                X             Y             Z
Electronic contribution:      0.49228       2.70511       2.03124
Nuclear contribution   :     -1.61013      -3.59660      -2.02798
                        -----------------------------------------
Total Dipole Moment    :     -1.11785      -0.89149       0.00326
                        -----------------------------------------
Magnitude (a.u.)       :      1.42981
Magnitude (Debye)      :      3.63428



--------------------
Rotational spectrum 
--------------------
 
Rotational constants in cm-1:     0.436013     0.043281     0.040116 
Rotational constants in MHz : 13071.347745  1297.539461  1202.648673 

 Dipole components along the rotational axes: 
x,y,z [a.u.] :     1.296392    -0.537372    -0.273757 
x,y,z [Debye]:     3.295168    -1.365891    -0.695834 

 

                           *** MP2 RELAXED DENSITY ***

------------------------------------------------------------------------------
                       ORCA ELECTRIC PROPERTIES CALCULATION
------------------------------------------------------------------------------

Dipole Moment Calculation                       ... on
Quadrupole Moment Calculation                   ... off
Polarizability Calculation                      ... off
GBWName                                         ... 12meoh.boyd.etal.mol0,6-orca.engrad-mp2.def2tzvp.frozencore.gbw
Electron density file                           ... 12meoh.boyd.etal.mol0,6-orca.engrad-mp2.def2tzvp.frozencore.pmp2re
The origin for moment calculation is the CENTER OF MASS  = ( 0.644166, -5.190885 -3.094929)

-------------
DIPOLE MOMENT
-------------
                                X             Y             Z
Electronic contribution:      0.51267       2.73910       2.04530
Nuclear contribution   :     -1.61013      -3.59660      -2.02798
                        -----------------------------------------
Total Dipole Moment    :     -1.09747      -0.85750       0.01732
                        -----------------------------------------
Magnitude (a.u.)       :      1.39285
Magnitude (Debye)      :      3.54034



--------------------
Rotational spectrum 
--------------------
 
Rotational constants in cm-1:     0.436013     0.043281     0.040116 
Rotational constants in MHz : 13071.347745  1297.539461  1202.648673 

 Dipole components along the rotational axes: 
x,y,z [a.u.] :     1.270135    -0.505083    -0.267727 
x,y,z [Debye]:     3.228427    -1.283819    -0.680507 

 

Timings for individual modules:

Sum of individual times         ...       19.272 sec (=   0.321 min)
GTO integral calculation        ...        1.197 sec (=   0.020 min)   6.2 %
SCF iterations                  ...        6.032 sec (=   0.101 min)  31.3 %
MP2 module                      ...       12.044 sec (=   0.201 min)  62.5 %
                             ****ORCA TERMINATED NORMALLY****
TOTAL RUN TIME: 0 days 0 hours 0 minutes 20 seconds 304 msec
