43
Energy:   -477.87005240
C   -2.30858882  -1.40536344   3.01768025
H   -3.32234972  -1.30588987   3.34523793
H   -1.64793328  -1.17037789   3.82589750
H   -2.13480749  -2.41089065   2.69578872
C   -2.05049583  -0.43952529   1.84629445
N   -1.85833386   0.27958511   0.97414448
C    3.55561035   0.13770997   2.07149873
H    3.58527907  -0.92312221   1.93491527
H    3.47548709   0.36088043   3.11489429
H    4.45203124   0.57273964   1.68152711
C    2.33804903   0.71720015   1.32763346
N    1.43151928   1.14865694   0.77379195
C   -4.51207658   0.29134417  -3.76002441
H   -4.40676096  -0.45206973  -4.52235279
H   -4.74812022   1.23289508  -4.21020702
H   -5.29852719   0.00826246  -3.09199801
C   -3.19202262   0.41360129  -2.97637222
N   -2.20918245   0.50462727  -2.39290755
C    1.79793183  -3.66575187  -0.71736712
H    2.07495106  -4.00262202  -1.69444390
H    1.23918941  -4.43157349  -0.22115824
H    2.67970976  -3.44501172  -0.15288455
C    0.93430005  -2.39639860  -0.83770995
N    0.29128692  -1.45130739  -0.92731066
C    1.19393888  -4.26135933   4.77572610
H    0.93765910  -3.71348160   5.65836468
H    2.16456412  -4.69566032   4.89475707
H    0.47372699  -5.03623351   4.61521468
C    1.20238216  -3.30958365   3.56508505
N    1.20866857  -2.60094339   2.66370775
C    2.09433329   2.45358177  -4.97196255
H    2.09963372   3.51986671  -4.88303263
H    1.47753070   2.16764872  -5.79821672
H    3.09257647   2.10425577  -5.13438481
C    1.53771432   1.83322562  -3.67699785
N    1.12328621   1.37134226  -2.71283777
C   -1.52387153   5.65088651   0.32610719
H   -0.72503650   5.98688542   0.95369584
H   -2.41962017   5.56372209   0.90484360
H   -1.67707584   6.35564849  -0.46429655
C   -1.16388806   4.27841801  -0.27250964
N   -0.89586401   3.25655283  -0.71820709
Na  -0.36680448   0.90762925  -0.82962411
