43
Energy:   -477.57526992
C    1.51184543  -0.82083987  -3.77560127
H    2.21853771  -0.24997922  -4.34093686
H    0.60067869  -0.90987902  -4.32944808
H    1.91072147  -1.79545577  -3.58607333
C    1.23205199  -0.11158303  -2.43759142
N    1.02373306   0.41649092  -1.44138226
C    1.91359623  -3.22458950   0.42568029
H    2.77696707  -3.16403527   1.05482587
H    2.20234501  -3.06631211  -0.59239216
H    1.46802808  -4.19245389   0.52369369
C    0.89668848  -2.14654031   0.84437895
N    0.13955444  -1.34388368   1.15611914
C   -1.41582104  -5.33725923  -3.62501041
H   -1.60776357  -5.03917348  -4.63456632
H   -2.32678230  -5.66784699  -3.17140220
H   -0.70368186  -6.13582679  -3.61817302
C   -0.85341110  -4.14113820  -2.83470064
N   -0.43467134  -3.25057172  -2.24627909
C   -1.53056244   1.56396341   5.50139091
H   -1.09200648   2.42905815   5.95325364
H   -1.22269392   0.68852347   6.03404556
H   -2.59689922   1.64560858   5.53543532
C   -1.07012703   1.46134455   4.03542071
N   -0.72731195   1.38494014   2.94393927
C   -3.77363133  -1.38060100  -0.57165584
H   -4.76368104  -1.10162251  -0.27691399
H   -3.44597954  -2.21020244   0.01936434
H   -3.77378722  -1.65704571  -1.60532764
C   -2.82004745  -0.19023974  -0.35877597
N   -2.11006091   0.69603833  -0.20027723
C    4.44926322   2.85218690   2.13798651
H    4.99179512   2.43675863   2.96138112
H    4.07464152   3.81732916   2.40827911
H    5.09938934   2.94567647   1.29330028
C    3.27190034   1.92645294   1.77961061
N    2.39530017   1.23720192   1.51278346
C   -1.26653975   5.51901925  -0.72169711
H   -0.64367257   6.04199665  -1.41698935
H   -1.52704827   6.17197870   0.08494925
H   -2.15660987   5.19110305  -1.21681856
C   -0.50702840   4.29850129  -0.16935808
N    0.05846233   3.38977019   0.24188343
Na   0.13431888   1.02313678   0.72364937
