43
Energy:   -477.49921218
C    0.96492835  -2.52831011   3.05530867
H    0.88899580  -3.44601359   2.51037311
H    0.43090595  -2.61635902   3.97832901
H    1.99432399  -2.31769183   3.25750572
C    0.36124624  -1.38390938   2.22013512
N   -0.08822253  -0.53185101   1.59831044
C   -0.06730336  -3.15457521  -2.15358133
H    0.92395122  -3.42966356  -2.44792969
H   -0.75082029  -3.38440933  -2.94407483
H   -0.34241973  -3.69915762  -1.27458186
C   -0.11425367  -1.64407004  -1.85732165
N   -0.14921032  -0.51943029  -1.63674285
C   -5.59813906  -0.11603027   0.55712661
H   -6.07169868   0.75737929   0.95436358
H   -5.66755640  -0.91352592   1.26711323
H   -6.08495083  -0.40379599  -0.35122590
C   -4.11601046   0.18887851   0.27090040
N   -3.01249835   0.41589696   0.05779197
C    3.40468433   0.55468624  -1.68547309
H    2.89519015  -0.11031526  -2.35112229
H    4.07682497  -0.00412733  -1.06833984
H    3.95658580   1.27422833  -2.25341942
C    2.37626764   1.28046366  -0.79822665
N    1.61056467   1.82083794  -0.13763134
C    4.19605048  -5.11265021   0.37094870
H    3.81681271  -5.94279668  -0.18756337
H    4.24380430  -5.37236209   1.40785197
H    5.17588357  -4.86440347   0.01995048
C    3.26291069  -3.90135646   0.18759769
N    2.56814571  -2.99949320   0.05108452
C   -1.91980529   4.51401861  -3.62099812
H   -1.91823855   4.03738305  -4.57897320
H   -1.20043281   5.30608709  -3.61553534
H   -2.89230268   4.91407824  -3.42326037
C   -1.55774895   3.48424237  -2.53468504
N   -1.28818155   2.71752716  -1.72587557
C   -0.46966189   4.70461650   3.49027840
H   -0.24127984   5.60650853   2.96175917
H    0.38480930   4.39651587   4.05583307
H   -1.29212852   4.87777471   4.15244453
C   -0.84442464   3.60078041   2.48394905
N   -1.12345254   2.77892427   1.73469110
Na  -0.72214495   1.16547015   0.00291522
