43
Energy:   -477.69951760
C   -3.71257493   1.96783439  -5.01270033
H   -3.44410581   1.53641412  -5.95434839
H   -3.70946192   3.03463724  -5.09529009
H   -4.69025877   1.63456923  -4.73347332
C   -2.69631446   1.53301036  -3.94043976
N   -1.93966235   1.20926411  -3.14209303
C   -3.50423137  -1.05655784  -0.26546424
H   -4.28282251  -1.68660331   0.11101779
H   -3.04029352  -1.52705146  -1.10706778
H   -3.91943630  -0.11730368  -0.56597310
C   -2.45377925  -0.82442769   0.83647312
N   -1.67166990  -0.65159625   1.65691557
C    0.43265719  -1.28186156  -3.73833541
H    1.29701121  -1.85251807  -4.00693077
H    0.53637763  -0.28262779  -4.10667360
H   -0.43873240  -1.73128484  -4.16681877
C    0.29350300  -1.25185886  -2.20492876
N    0.18989638  -1.22952048  -1.06323781
C   -0.63101307   3.82195551  -1.37641462
H   -1.68911972   3.82125791  -1.53550581
H   -0.12902226   3.72006942  -2.31584186
H   -0.34036547   4.74240980  -0.91469287
C   -0.24893658   2.64483115  -0.45990177
N    0.03553674   1.76840856   0.22248370
C    1.03333623  -4.83741740   3.45437653
H    0.31575856  -4.73748473   4.24177473
H    2.00163293  -5.01307857   3.87442861
H    0.76205382  -5.66060440   2.82694676
C    1.06293220  -3.54364874   2.61957910
N    1.08496774  -2.58037917   1.99803447
C    0.11804006   1.48269154   5.62981574
H    0.89859465   1.50503719   6.36134523
H   -0.65373608   0.81526908   5.95200816
H   -0.28734225   2.46572885   5.51064389
C    0.68885415   0.99628019   4.28475988
N    1.11385119   0.63412483   3.28330465
C    5.67222468   0.19712275   0.25837682
H    5.92650759   1.23388511   0.18513613
H    6.03466900  -0.32085877  -0.60488927
H    6.11895238  -0.21845094   1.13737169
C    4.14164183   0.04858136   0.34115116
N    3.00205333  -0.06201446   0.40278041
Na   0.72182642  -0.34623370   1.12229721
