43
Energy:   -477.63824157
C   -5.93348804  -0.21324504  -3.20682962
H   -6.38924633   0.75483482  -3.20926974
H   -6.54809160  -0.89542461  -2.65747310
H   -5.82739809  -0.56005438  -4.21349108
C   -4.54565487  -0.12558136  -2.54513923
N   -3.51234999  -0.06031177  -2.05248066
C    3.46290409   3.52063048   3.73527753
H    3.80783632   3.01922761   4.61534407
H    2.74838031   4.26893919   4.00802087
H    4.29140397   3.98227554   3.23992829
C    2.80241797   2.50084502   2.78902403
N    2.31065602   1.74156838   2.08449529
C   -1.35505686  -2.69532635  -2.71449136
H   -0.82625665  -3.60097141  -2.92680611
H   -1.41220194  -2.09939077  -3.60133651
H   -2.34334958  -2.92985569  -2.37808006
C   -0.61148360  -1.91202789  -1.61670162
N   -0.05785950  -1.32882658  -0.79934725
C    1.79616854  -3.50865200   3.90615890
H    1.06438138  -3.70371009   4.66202930
H    2.74017601  -3.30622731   4.36743239
H    1.88672051  -4.36306404   3.26844462
C    1.36040202  -2.28953760   3.07221190
N    1.03595403  -1.38185151   2.45130045
C    5.45321621  -0.77744392  -1.65010812
H    5.49959945  -1.69520237  -2.19825793
H    6.32838616  -0.68047627  -1.04218220
H    5.40098906   0.04404872  -2.33371711
C    4.20203433  -0.77845406  -0.75225351
N    3.27047255  -0.77920615  -0.08375994
C   -3.54128569   0.17190957   1.37196181
H   -4.19856195   0.81945891   0.83014271
H   -3.82794082   0.15403375   2.40269378
H   -3.60169295  -0.81696311   0.96775780
C   -2.09578625   0.68888875   1.25004419
N   -1.01954622   1.07380324   1.15927098
C   -0.91512099   3.21502873  -1.95053306
H   -0.99345403   3.21779068  -3.01765840
H   -0.79922891   4.21890205  -1.59881374
H   -1.80173028   2.78950682  -1.52892404
C    0.30687884   2.37865842  -1.52768425
N    1.21671326   1.75594271  -1.21285409
Na   1.17109413   0.18551087   0.63665382
