43
Energy:   -477.65780954
C   -3.81881026  -0.06079142  -0.16579213
H   -4.18115180   0.93381531  -0.00969521
H   -4.50615513  -0.76170238   0.25986025
H   -3.72517084  -0.24563099  -1.21553737
C   -2.44281483  -0.21746323   0.50777340
N   -1.41832368  -0.33411252   1.00927355
C    5.72741005   0.67787101   1.35873470
H    5.94932507   1.39594352   0.59714047
H    6.51453515  -0.04529564   1.40734711
H    5.64040382   1.17434153   2.30258111
C    4.40036812  -0.02934491   1.02646169
N    3.41232508  -0.55589931   0.77906932
C    0.82778747  -5.61727907   1.86864286
H    1.82724792  -5.99697855   1.91115522
H    0.29428962  -6.10482184   1.07960471
H    0.33554510  -5.80357875   2.80024845
C    0.86561075  -4.10096358   1.60226582
N    0.89377190  -2.97199777   1.40393601
C   -0.68297103   3.59319705  -0.71098691
H   -0.47510380   4.51666919  -0.21209754
H   -1.68861376   3.29337895  -0.50196322
H   -0.56137535   3.72259957  -1.76614973
C    0.29022418   2.50935663  -0.21120595
N    1.01481225   1.70238816   0.16090369
C   -3.98326569   2.68783739  -4.57578777
H   -3.41196739   3.24074965  -5.29189283
H   -4.64607369   3.35069451  -4.05983711
H   -4.55259155   1.93436336  -5.07882260
C   -3.03215480   2.02247648  -3.56371912
N   -2.32400951   1.52708504  -2.81018802
C    0.61644512  -1.07831670  -4.18773065
H    0.08355132  -1.93254196  -4.54997859
H    1.62869165  -1.11688368  -4.53235890
H    0.14980578  -0.18649579  -4.55077648
C    0.59814731  -1.07691869  -2.64783999
N    0.58452375  -1.07587782  -1.50132140
C    0.30277537   0.33324092   5.70166497
H   -0.58710158  -0.23980592   5.85862516
H    0.10005669   1.36634435   5.89271872
H    1.06893059  -0.00863879   6.36576099
C    0.77260638   0.16315427   4.24498060
N    1.12241693   0.03651703   3.16041287
Na   1.01604734  -0.62068461   0.84451987
