43
Energy:   -477.72862602
C    1.83286044  -3.91306101  -3.69379367
H    1.92614069  -3.62731731  -4.72070628
H    1.08310547  -4.67080547  -3.60111188
H    2.76946388  -4.29322274  -3.34286612
C    1.42968376  -2.68658187  -2.85427150
N    1.12950040  -1.77341240  -2.22920908
C   -0.50404525  -1.81257469   3.55290586
H   -0.07927188  -2.66118439   4.04720267
H   -1.55338581  -1.96903534   3.41396861
H   -0.34978364  -0.93799658   4.14974383
C    0.17284441  -1.62476309   2.18245075
N    0.67681953  -1.48492881   1.16208464
C   -3.62421025  -0.75404550  -1.13377231
H   -3.87748019  -0.84664802  -2.16923322
H   -4.33883465  -0.12393881  -0.64676450
H   -3.63183452  -1.72153444  -0.67681923
C   -2.22019018  -0.13518777  -1.00208044
N   -1.17483342   0.32557995  -0.90402986
C    5.94769877   0.42490404   1.07661561
H    6.66026770  -0.32513266   0.80350270
H    5.79145826   0.39995039   2.13485250
H    6.31745929   1.38818158   0.79329135
C    4.61482063   0.15391075   0.35439785
N    3.62243227  -0.04785607  -0.18332610
C   -5.61948148  -0.32654974   3.47521342
H   -5.72586365   0.55640785   4.07016629
H   -5.65929229  -1.18923912   4.10694218
H   -6.41325883  -0.37190720   2.75914128
C   -4.26662447  -0.29043990   2.74031616
N   -3.25936093  -0.26355448   2.19315174
C    2.11064689   3.20804296  -4.52449885
H    1.22827607   3.28753514  -5.12450126
H    2.90389015   2.79238200  -5.11006711
H    2.39474032   4.17953660  -4.17752604
C    1.83004129   2.29364848  -3.31754266
N    1.62111767   1.61284023  -2.41890892
C   -1.27575353   3.12694065   1.69880368
H   -1.14692794   4.16783026   1.48701851
H   -1.47957634   2.99762027   2.74121991
H   -2.09428568   2.74490714   1.12525804
C    0.01026310   2.36480370   1.32879222
N    0.96776094   1.79735810   1.05330186
Na   1.25300300   0.02853735  -0.61931260
