43
Energy:   -477.62530122
C    1.18921142   3.70247832   0.11958095
H    1.23128030   3.61893754  -0.94632304
H    2.14328657   4.01355156   0.49089367
H    0.44787901   4.42444463   0.39177572
C    0.82247251   2.33590742   0.72751726
N    0.54941873   1.31843327   1.18015347
C   -3.76249881   4.82218475  -2.44124259
H   -4.09670428   4.63711560  -3.44072060
H   -3.45143023   5.84209679  -2.35227709
H   -4.56265842   4.63233567  -1.75669820
C   -2.57756519   3.89387418  -2.11601683
N   -1.69532825   3.20270476  -1.87387147
C   -0.71110610  -5.62485701  -0.79841363
H   -0.98308763  -5.56708707  -1.83165555
H   -1.59259225  -5.74390289  -0.20367895
H   -0.06262426  -6.46230387  -0.64658103
C    0.01569728  -4.33136569  -0.38581573
N    0.55683544  -3.36830260  -0.07861783
C    0.32303207   1.19666665  -3.87988500
H    0.73370092   2.16839000  -3.70098555
H   -0.70732725   1.28966478  -4.15303351
H    0.86117004   0.72270632  -4.67403122
C    0.44040691   0.34641069  -2.60125763
N    0.52779782  -0.28664352  -1.64926143
C    0.76670749  -1.83059668   5.65585604
H    0.58985545  -0.86867544   6.08982731
H    1.72912489  -2.18697333   5.95858946
H    0.01305651  -2.51474496   5.98578092
C    0.72077454  -1.71746593   4.12070406
N    0.68657537  -1.63323494   2.97771363
C    5.51608700  -2.04244035   0.34173366
H    5.78883505  -2.08668363  -0.69197385
H    5.54476779  -3.02662294   0.76061447
H    6.20378911  -1.41176111   0.86538297
C    4.09247533  -1.46998150   0.47296119
N    3.03253172  -1.04375987   0.57066604
C   -3.90075468   0.68309611   0.44527728
H   -3.62991531   1.62975250   0.86407067
H   -4.73373790   0.28047658   0.98280454
H   -4.16800391   0.81125429  -0.58285327
C   -2.70704650  -0.28436396   0.54863004
N   -1.81827650  -1.00468197   0.62558087
Na   0.63388818  -1.06603316   0.62907977
