43
Energy:   -478.01121700
C    1.49464306   3.98753125   3.78439241
H    1.77399851   3.61981078   4.74960864
H    0.46089374   4.26354073   3.79334761
H    2.09012890   4.84299333   3.54256532
C    1.72335225   2.88829866   2.73036214
N    1.89363664   2.06987003   1.94558870
C   -2.27660989  -2.44128844   2.14913795
H   -1.98667355  -3.28199327   2.74416105
H   -2.45428584  -2.76043508   1.14341643
H   -3.17077271  -2.01180193   2.55027791
C   -1.15125290  -1.39010703   2.16289499
N   -0.31337346  -0.60745468   2.17313773
C   -6.00496271  -1.44376140  -2.24578391
H   -6.34333973  -2.41114211  -1.93825223
H   -6.07803683  -1.36206340  -3.31015447
H   -6.61226950  -0.69122910  -1.78777440
C   -4.53871026  -1.25212399  -1.81569222
N   -3.44701867  -1.10944124  -1.49546941
C   -0.75398935  -2.26816791  -3.27344704
H   -1.47116120  -3.04402181  -3.10428603
H    0.02580339  -2.63533343  -3.90749108
H   -1.23371886  -1.43538608  -3.74380129
C   -0.15366370  -1.82165690  -1.92740208
N    0.29330604  -1.48920915  -0.92521043
C   -3.15607574   2.20059302  -0.84280417
H   -3.78247520   1.75219961  -0.10019576
H   -3.41432151   1.81544730  -1.80710236
H   -3.29520065   3.26146852  -0.83350227
C   -1.68260943   1.87339799  -0.53712386
N   -0.58554679   1.62978642  -0.30953098
C    4.53060880   2.27751244  -2.72674627
H    4.28121451   2.16786091  -3.76148257
H    5.51300740   1.89041921  -2.55368295
H    4.50364935   3.31369471  -2.46123060
C    3.51443019   1.50112428  -1.86872386
N    2.75783902   0.92306800  -1.22988718
C    5.03249439  -2.42606652   2.66037174
H    5.96001937  -1.98521776   2.35995544
H    5.02200546  -3.45922652   2.38221804
H    4.92443341  -2.34127361   3.72151833
C    3.86817292  -1.69561820   1.96582097
N    3.00128267  -1.15176622   1.44869635
Na   1.24114846   0.23716855   0.49930566
