
                                 *****************
                                 * O   R   C   A *
                                 *****************

           --- An Ab Initio, DFT and Semiempirical electronic structure package ---

                  #######################################################
                  #                        -***-                        #
                  #          Department of theory and spectroscopy      #
                  #               Directorship: Frank Neese             #
                  #        Max Planck Institute fuer Kohlenforschung    #
                  #                Kaiser Wilhelm Platz 1               #
                  #                 D-45470 Muelheim/Ruhr               #
                  #                      Germany                        #
                  #                                                     #
                  #                  All rights reserved                #
                  #                        -***-                        #
                  #######################################################


                         Program Version 4.2.0 -  RELEASE  -


 With contributions from (in alphabetic order):
   Daniel Aravena         : Magnetic Suceptibility
   Michael Atanasov       : Ab Initio Ligand Field Theory (pilot matlab implementation)
   Alexander A. Auer      : GIAO ZORA, VPT2
   Ute Becker             : Parallelization
   Giovanni Bistoni       : ED, misc. LED, open-shell LED, HFLED
   Martin Brehm           : Molecular dynamics
   Dmytro Bykov           : SCF Hessian
   Vijay G. Chilkuri      : MRCI spin determinant printing, contributions to CSF-ICE
   Dipayan Datta          : RHF DLPNO-CCSD density
   Achintya Kumar Dutta   : EOM-CC, STEOM-CC
   Dmitry Ganyushin       : Spin-Orbit,Spin-Spin,Magnetic field MRCI
   Miquel Garcia          : C-PCM Hessian, Gaussian charge scheme
   Yang Guo               : DLPNO-NEVPT2, CIM, IAO-localization
   Andreas Hansen         : Spin unrestricted coupled pair/coupled cluster methods
   Benjamin Helmich-Paris : CASSCF linear response (MC-RPA)
   Lee Huntington         : MR-EOM, pCC
   Robert Izsak           : Overlap fitted RIJCOSX, COSX-SCS-MP3, EOM
   Christian Kollmar      : KDIIS, OOCD, Brueckner-CCSD(T), CCSD density
   Simone Kossmann        : Meta GGA functionals, TD-DFT gradient, OOMP2, MP2 Hessian
   Martin Krupicka        : AUTO-CI
   Lucas Lang             : DCDCAS
   Dagmar Lenk            : GEPOL surface, SMD
   Dimitrios Liakos       : Extrapolation schemes; Compound Job, initial MDCI parallelization
   Dimitrios Manganas     : Further ROCIS development; embedding schemes
   Dimitrios Pantazis     : SARC Basis sets
   Taras Petrenko         : DFT Hessian,TD-DFT gradient, ASA, ECA, R-Raman, ABS, FL, XAS/XES, NRVS
   Peter Pinski           : DLPNO-MP2, DLPNO-MP2 Gradient
   Christoph Reimann      : Effective Core Potentials
   Marius Retegan         : Local ZFS, SOC
   Christoph Riplinger    : Optimizer, TS searches, QM/MM, DLPNO-CCSD(T), (RO)-DLPNO pert. Triples
   Tobias Risthaus        : Range-separated hybrids, TD-DFT gradient, RPA, STAB
   Michael Roemelt        : Original ROCIS implementation
   Masaaki Saitow         : Open-shell DLPNO-CCSD energy and density
   Barbara Sandhoefer     : DKH picture change effects
   Avijit Sen             : IP-ROCIS
   Kantharuban Sivalingam : CASSCF convergence, NEVPT2, FIC-MRCI
   Bernardo de Souza      : ESD, SOC TD-DFT
   Georgi Stoychev        : AutoAux, RI-MP2 NMR
   Willem Van den Heuvel  : Paramagnetic NMR
   Boris Wezisla          : Elementary symmetry handling
   Frank Wennmohs         : Technical directorship


 We gratefully acknowledge several colleagues who have allowed us to
 interface, adapt or use parts of their codes:
   Stefan Grimme, W. Hujo, H. Kruse,             : VdW corrections, initial TS optimization,
                  C. Bannwarth                     DFT functionals, gCP, sTDA/sTD-DF
   Ed Valeev, F. Pavosevic, A. Kumar             : LibInt (2-el integral package), F12 methods
   Garnet Chan, S. Sharma, J. Yang, R. Olivares  : DMRG
   Ulf Ekstrom                                   : XCFun DFT Library
   Mihaly Kallay                                 : mrcc  (arbitrary order and MRCC methods)
   Andreas Klamt, Michael Diedenhofen            : otool_cosmo (COSMO solvation model)
   Jiri Pittner, Ondrej Demel                    : Mk-CCSD
   Frank Weinhold                                : gennbo (NPA and NBO analysis)
   Christopher J. Cramer and Donald G. Truhlar   : smd solvation model
   Lars Goerigk                                  : TD-DFT with DH, B97 family of functionals
   V. Asgeirsson, H. Jonsson                     : NEB implementation
   FAccTs GmbH                                   : IRC, NEB, NEB-TS, Multilevel, MM, QM/MM, CI optimization
   S Lehtola, MJT Oliveira, MAL Marques          : LibXC Library


 Your calculation uses the libint2 library for the computation of 2-el integrals
 For citations please refer to: http://libint.valeyev.net

 Your ORCA version has been built with support for libXC version: 4.2.3
 For citations please refer to: https://tddft.org/programs/libxc/

 This ORCA versions uses:
   CBLAS   interface :  Fast vector & matrix operations
   LAPACKE interface :  Fast linear algebra routines
   SCALAPACK package :  Parallel linear algebra routines


----- Orbital basis set information -----
Your calculation utilizes the basis: def2-TZVP
   F. Weigend and R. Ahlrichs, Phys. Chem. Chem. Phys. 7, 3297 (2005).

================================================================================
                                        WARNINGS
                       Please study these warnings very carefully!
================================================================================


WARNING: The frozen-core approximation for MP2-gradient calculations is turned on by default.

INFO   : the flag for use of LIBINT has been found!

================================================================================
                                       INPUT FILE
================================================================================
NAME = 12h2o.su.etal.mol4,7,9,10-orca.engrad-mp2.def2tzvp.frozencore.inp
|  1> # 12h2o.su.etal.mol4,7,9,10
|  2> ! MP2 def2-TZVP EnGrad TightSCF
|  3> 
|  4> %pal
|  5>     nprocs 6
|  6> end
|  7> 
|  8> %maxcore 8000
|  9> 
| 10> %scf
| 11>     ConvForced true
| 12> end
| 13> 
| 14> *xyz 0 1
| 15> O  -0.885520000   1.737840000   0.052730000
| 16> H  -1.032320000   2.090180000  -0.841890000
| 17> H  -1.284090000   0.839590000   0.017130000
| 18> O  -1.737840000  -0.885520000  -0.052730000
| 19> H  -2.090180000  -1.032320000   0.841890000
| 20> H  -0.839590000  -1.284090000  -0.017130000
| 21> O   0.741530000  -1.752130000   2.896280000
| 22> H   0.920500000  -2.036450000   1.984040000
| 23> H   1.242140000  -0.921210000   2.984230000
| 24> O  -0.923410000   1.794470000  -2.768350000
| 25> H  -1.359750000   2.338250000  -3.430940000
| 26> H  -1.303000000   0.879480000  -2.865760000
| 27> *
| 28> 
| 29>                          ****END OF INPUT****
================================================================================

                     *******************************
                     * Energy+Gradient Calculation *
                     *******************************

---------------------------------
CARTESIAN COORDINATES (ANGSTROEM)
---------------------------------
  O     -0.885520    1.737840    0.052730
  H     -1.032320    2.090180   -0.841890
  H     -1.284090    0.839590    0.017130
  O     -1.737840   -0.885520   -0.052730
  H     -2.090180   -1.032320    0.841890
  H     -0.839590   -1.284090   -0.017130
  O      0.741530   -1.752130    2.896280
  H      0.920500   -2.036450    1.984040
  H      1.242140   -0.921210    2.984230
  O     -0.923410    1.794470   -2.768350
  H     -1.359750    2.338250   -3.430940
  H     -1.303000    0.879480   -2.865760

----------------------------
CARTESIAN COORDINATES (A.U.)
----------------------------
  NO LB      ZA    FRAG     MASS         X           Y           Z
   0 O     8.0000    0    15.999   -1.673390    3.284042    0.099645
   1 H     1.0000    0     1.008   -1.950802    3.949868   -1.590942
   2 H     1.0000    0     1.008   -2.426578    1.586595    0.032371
   3 O     8.0000    0    15.999   -3.284042   -1.673390   -0.099645
   4 H     1.0000    0     1.008   -3.949868   -1.950802    1.590942
   5 H     1.0000    0     1.008   -1.586595   -2.426578   -0.032371
   6 O     8.0000    0    15.999    1.401289   -3.311046    5.473176
   7 H     1.0000    0     1.008    1.739493   -3.848333    3.749292
   8 H     1.0000    0     1.008    2.347304   -1.740835    5.639377
   9 O     8.0000    0    15.999   -1.744992    3.391057   -5.231423
  10 H     1.0000    0     1.008   -2.569555    4.418652   -6.483537
  11 H     1.0000    0     1.008   -2.462313    1.661976   -5.415502

--------------------------------
INTERNAL COORDINATES (ANGSTROEM)
--------------------------------
 O      0   0   0     0.000000000000     0.00000000     0.00000000
 H      1   0   0     0.972645187106     0.00000000     0.00000000
 H      1   2   0     0.983350632989   103.67575169     0.00000000
 O      3   1   2     1.785153773264   170.81379649   105.82965911
 H      4   3   1     0.972645187106   101.65007623   109.44492584
 H      4   3   1     0.983350632989    99.09581498     3.33484705
 O      6   4   3     3.347679752321   121.30565948    83.11460775
 H      7   6   4     0.972136791249    46.46358234   170.36223581
 H      7   6   4     0.974050112161   101.65702229   268.49406050
 O      2   1   3     1.952064016317   147.60984291   312.42431299
 H     10   2   1     0.961828878803   124.67322417   165.49513251
 H     10   2   1     0.995381322057   102.38931089    45.51897547

---------------------------
INTERNAL COORDINATES (A.U.)
---------------------------
 O      0   0   0     0.000000000000     0.00000000     0.00000000
 H      1   0   0     1.838033029106     0.00000000     0.00000000
 H      1   2   0     1.858263389967   103.67575169     0.00000000
 O      3   1   2     3.373451738406   170.81379649   105.82965911
 H      4   3   1     1.838033029106   101.65007623   109.44492584
 H      4   3   1     1.858263389967    99.09581498     3.33484705
 O      6   4   3     6.326197915960   121.30565948    83.11460775
 H      7   6   4     1.837072300170    46.46358234   170.36223581
 H      7   6   4     1.840687952699   101.65702229   268.49406050
 O      2   1   3     3.688866386722   147.60984291   312.42431299
 H     10   2   1     1.817593168635   124.67322417   165.49513251
 H     10   2   1     1.880998097508   102.38931089    45.51897547

---------------------
BASIS SET INFORMATION
---------------------
There are 2 groups of distinct atoms

 Group   1 Type O   : 11s6p2d1f contracted to 5s3p2d1f pattern {62111/411/11/1}
 Group   2 Type H   : 5s1p contracted to 3s1p pattern {311/1}

Atom   0O    basis set group =>   1
Atom   1H    basis set group =>   2
Atom   2H    basis set group =>   2
Atom   3O    basis set group =>   1
Atom   4H    basis set group =>   2
Atom   5H    basis set group =>   2
Atom   6O    basis set group =>   1
Atom   7H    basis set group =>   2
Atom   8H    basis set group =>   2
Atom   9O    basis set group =>   1
Atom  10H    basis set group =>   2
Atom  11H    basis set group =>   2


           ************************************************************
           *        Program running with 6 parallel MPI-processes     *
           *              working on a common directory               *
           ************************************************************
------------------------------------------------------------------------------
                           ORCA GTO INTEGRAL CALCULATION
------------------------------------------------------------------------------

                         BASIS SET STATISTICS AND STARTUP INFO

 # of primitive gaussian shells          ...  128
 # of primitive gaussian functions       ...  248
 # of contracted shells                  ...   76
 # of contracted basis functions         ...  172
 Highest angular momentum                ...    3
 Maximum contraction depth               ...    6
 Integral package used                   ... LIBINT
 Integral threshhold            Thresh   ...  2.500e-11
 Primitive cut-off              TCut     ...  2.500e-12


------------------------------ INTEGRAL EVALUATION ----------------------------


 * One electron integrals 
 Pre-screening matrix                    ... done
 Shell pair data                         ... done (   0.001 sec)



           ************************************************************
           *        Program running with 6 parallel MPI-processes     *
           *              working on a common directory               *
           ************************************************************
-------------------------------------------------------------------------------
                                 ORCA SCF
-------------------------------------------------------------------------------

------------
SCF SETTINGS
------------
Hamiltonian:
 Ab initio Hamiltonian  Method          .... Hartree-Fock(GTOs)


General Settings:
 Integral files         IntName         .... 12h2o.su.etal.mol4,7,9,10-orca.engrad-mp2.def2tzvp.frozencore
 Hartree-Fock type      HFTyp           .... RHF
 Total Charge           Charge          ....    0
 Multiplicity           Mult            ....    1
 Number of Electrons    NEL             ....   40
 Basis Dimension        Dim             ....  172
 Nuclear Repulsion      ENuc            ....    120.3548879658 Eh

Convergence Acceleration:
 DIIS                   CNVDIIS         .... on
   Start iteration      DIISMaxIt       ....    12
   Startup error        DIISStart       ....  0.200000
   # of expansion vecs  DIISMaxEq       ....     5
   Bias factor          DIISBfac        ....   1.050
   Max. coefficient     DIISMaxC        ....  10.000
 Newton-Raphson         CNVNR           .... off
 SOSCF                  CNVSOSCF        .... on
   Start iteration      SOSCFMaxIt      ....   150
   Startup grad/error   SOSCFStart      ....  0.003300
 Level Shifting         CNVShift        .... on
   Level shift para.    LevelShift      ....    0.2500
   Turn off err/grad.   ShiftErr        ....    0.0010
 Zerner damping         CNVZerner       .... off
 Static damping         CNVDamp         .... on
   Fraction old density DampFac         ....    0.7000
   Max. Damping (<1)    DampMax         ....    0.9800
   Min. Damping (>=0)   DampMin         ....    0.0000
   Turn off err/grad.   DampErr         ....    0.1000
 Fernandez-Rico         CNVRico         .... off

SCF Procedure:
 Maximum # iterations   MaxIter         ....   125
 SCF integral mode      SCFMode         .... Direct
   Integral package                     .... LIBINT
 Reset frequency        DirectResetFreq ....    20
 Integral Threshold     Thresh          ....  2.500e-11 Eh
 Primitive CutOff       TCut            ....  2.500e-12 Eh

Convergence Tolerance:
 Convergence Check Mode ConvCheckMode   .... Total+1el-Energy
 Convergence forced     ConvForced      .... 1
 Energy Change          TolE            ....  1.000e-08 Eh
 1-El. energy change                    ....  1.000e-05 Eh
 Orbital Gradient       TolG            ....  1.000e-05
 Orbital Rotation angle TolX            ....  1.000e-05
 DIIS Error             TolErr          ....  5.000e-07


Diagonalization of the overlap matrix:
Smallest eigenvalue                        ... 4.940e-03
Time for diagonalization                   ...    0.005 sec
Threshold for overlap eigenvalues          ... 1.000e-08
Number of eigenvalues below threshold      ... 0
Time for construction of square roots      ...    0.002 sec
Total time needed                          ...    0.007 sec

-------------------
DFT GRID GENERATION
-------------------

General Integration Accuracy     IntAcc      ...  4.340
Radial Grid Type                 RadialGrid  ... Gauss-Chebyshev
Angular Grid (max. acc.)         AngularGrid ... Lebedev-110
Angular grid pruning method      GridPruning ... 3 (G Style)
Weight generation scheme         WeightScheme... Becke
Basis function cutoff            BFCut       ...    1.0000e-11
Integration weight cutoff        WCut        ...    1.0000e-14
Grids for H and He will be reduced by one unit

# of grid points (after initial pruning)     ...  13216 (   0.0 sec)
# of grid points (after weights+screening)   ...  12781 (   0.0 sec)
nearest neighbour list constructed           ...    0.0 sec
Grid point re-assignment to atoms done       ...    0.0 sec
Grid point division into batches done        ...    0.0 sec
Reduced shell lists constructed in    0.0 sec

Total number of grid points                  ...    12781
Total number of batches                      ...      206
Average number of points per batch           ...       62
Average number of grid points per atom       ...     1065
Average number of shells per batch           ...    46.36 (61.00%)
Average number of basis functions per batch  ...    99.75 (57.99%)
Average number of large shells per batch     ...    34.81 (75.07%)
Average number of large basis fcns per batch ...    72.86 (73.04%)
Maximum spatial batch extension              ...  21.59, 14.14, 10.47 au
Average spatial batch extension              ...   0.77,  0.68,  0.51 au

Time for grid setup =    0.030 sec

------------------------------
INITIAL GUESS: MODEL POTENTIAL
------------------------------
Loading Hartree-Fock densities                     ... done
Calculating cut-offs                               ... done
Setting up the integral package                    ... done
Initializing the effective Hamiltonian             ... done
Starting the Coulomb interaction                   ... done (   0.0 sec)
Reading the grid                                   ... done
Mapping shells                                     ... done
Starting the XC term evaluation                    ... done (   0.0 sec)
Transforming the Hamiltonian                       ... done (   0.0 sec)
Diagonalizing the Hamiltonian                      ... done (   0.0 sec)
Back transforming the eigenvectors                 ... done (   0.0 sec)
Now organizing SCF variables                       ... done
                      ------------------
                      INITIAL GUESS DONE (   0.1 sec)
                      ------------------
--------------
SCF ITERATIONS
--------------
ITER       Energy         Delta-E        Max-DP      RMS-DP      [F,P]     Damp
               ***  Starting incremental Fock matrix formation  ***
  0   -303.8577563209   0.000000000000 0.04458307  0.00120503  0.3426309 0.7000
  1   -304.0066847406  -0.148928419686 0.02946502  0.00083114  0.2165966 0.7000
                               ***Turning on DIIS***
  2   -304.0849665075  -0.078281766846 0.01619660  0.00045950  0.1637962 0.7000
  3   -304.7679093786  -0.682942871157 0.00766373  0.00020693  0.1218574 0.7000
  4   -304.6281782591   0.139731119489 0.01720288  0.00048244  0.0862371 0.0000
  5   -304.2655964366   0.362581822563 0.00236670  0.00007955  0.0056039 0.0000
                      *** Initiating the SOSCF procedure ***
                           *** Shutting down DIIS ***
                      *** Re-Reading the Fockian *** 
                      *** Removing any level shift *** 
ITER      Energy       Delta-E        Grad      Rot      Max-DP    RMS-DP
  6   -304.24277440   0.0228220321  0.001146  0.001146  0.001490  0.000048
               *** Restarting incremental Fock matrix formation ***
  7   -304.23556700   0.0072073996  0.000358  0.000496  0.000706  0.000021
  8   -304.23557320  -0.0000061938  0.000161  0.000423  0.000523  0.000017
  9   -304.23557464  -0.0000014438  0.000082  0.000060  0.000117  0.000003
 10   -304.23557476  -0.0000001215  0.000013  0.000008  0.000021  0.000001
 11   -304.23557477  -0.0000000026  0.000003  0.000003  0.000006  0.000000
                  ***Gradient check signals convergence***
              ***Rediagonalizing the Fockian in SOSCF/NRSCF***

               *****************************************************
               *                     SUCCESS                       *
               *           SCF CONVERGED AFTER  12 CYCLES          *
               *****************************************************


----------------
TOTAL SCF ENERGY
----------------

Total Energy       :         -304.23557477 Eh           -8278.67087 eV

Components:
Nuclear Repulsion  :          120.35488797 Eh            3275.02300 eV
Electronic Energy  :         -424.59046273 Eh          -11553.69387 eV
One Electron Energy:         -659.56613446 Eh          -17947.70696 eV
Two Electron Energy:          234.97567173 Eh            6394.01309 eV

Virial components:
Potential Energy   :         -608.02295123 Eh          -16545.14564 eV
Kinetic Energy     :          303.78737646 Eh            8266.47477 eV
Virial Ratio       :            2.00147537


---------------
SCF CONVERGENCE
---------------

  Last Energy change         ...   -2.3374e-10  Tolerance :   1.0000e-08
  Last MAX-Density change    ...    1.6243e-06  Tolerance :   1.0000e-07
  Last RMS-Density change    ...    4.2551e-08  Tolerance :   5.0000e-09
  Last Orbital Gradient      ...    9.7065e-07  Tolerance :   1.0000e-05
  Last Orbital Rotation      ...    8.9885e-07  Tolerance :   1.0000e-05

             **** THE GBW FILE WAS UPDATED (12h2o.su.etal.mol4,7,9,10-orca.engrad-mp2.def2tzvp.frozencore.gbw) ****
             **** DENSITY FILE WAS UPDATED (12h2o.su.etal.mol4,7,9,10-orca.engrad-mp2.def2tzvp.frozencore.scfp) ****
             **** ENERGY FILE WAS UPDATED (12h2o.su.etal.mol4,7,9,10-orca.engrad-mp2.def2tzvp.frozencore.en.tmp) ****
             **** THE GBW FILE WAS UPDATED (12h2o.su.etal.mol4,7,9,10-orca.engrad-mp2.def2tzvp.frozencore.gbw) ****
             **** DENSITY FILE WAS UPDATED (12h2o.su.etal.mol4,7,9,10-orca.engrad-mp2.def2tzvp.frozencore.scfp) ****
----------------
ORBITAL ENERGIES
----------------

  NO   OCC          E(Eh)            E(eV) 
   0   2.0000     -20.595344      -560.4278 
   1   2.0000     -20.580321      -560.0190 
   2   2.0000     -20.573748      -559.8401 
   3   2.0000     -20.498418      -557.7903 
   4   2.0000      -1.375789       -37.4371 
   5   2.0000      -1.358139       -36.9569 
   6   2.0000      -1.352711       -36.8091 
   7   2.0000      -1.283124       -34.9156 
   8   2.0000      -0.734438       -19.9851 
   9   2.0000      -0.725012       -19.7286 
  10   2.0000      -0.715574       -19.4718 
  11   2.0000      -0.669122       -18.2077 
  12   2.0000      -0.616387       -16.7727 
  13   2.0000      -0.595009       -16.1910 
  14   2.0000      -0.590048       -16.0560 
  15   2.0000      -0.553444       -15.0600 
  16   2.0000      -0.523136       -14.2352 
  17   2.0000      -0.517375       -14.0785 
  18   2.0000      -0.500794       -13.6273 
  19   2.0000      -0.449440       -12.2299 
  20   0.0000       0.088195         2.3999 
  21   0.0000       0.120500         3.2790 
  22   0.0000       0.156005         4.2451 
  23   0.0000       0.172848         4.7034 
  24   0.0000       0.192654         5.2424 
  25   0.0000       0.235274         6.4021 
  26   0.0000       0.258977         7.0471 
  27   0.0000       0.338143         9.2013 
  28   0.0000       0.466742        12.7007 
  29   0.0000       0.491540        13.3755 
  30   0.0000       0.508559        13.8386 
  31   0.0000       0.535243        14.5647 
  32   0.0000       0.549434        14.9509 
  33   0.0000       0.552205        15.0263 
  34   0.0000       0.567408        15.4400 
  35   0.0000       0.589906        16.0521 
  36   0.0000       0.595760        16.2115 
  37   0.0000       0.613042        16.6817 
  38   0.0000       0.626129        17.0378 
  39   0.0000       0.637119        17.3369 
  40   0.0000       0.670797        18.2533 
  41   0.0000       0.699552        19.0358 
  42   0.0000       0.730480        19.8774 
  43   0.0000       0.748275        20.3616 
  44   0.0000       0.761045        20.7091 
  45   0.0000       0.765948        20.8425 
  46   0.0000       0.769253        20.9324 
  47   0.0000       0.793899        21.6031 
  48   0.0000       0.869570        23.6622 
  49   0.0000       0.898483        24.4490 
  50   0.0000       0.966390        26.2968 
  51   0.0000       1.033764        28.1302 
  52   0.0000       1.371783        37.3281 
  53   0.0000       1.387924        37.7673 
  54   0.0000       1.395890        37.9841 
  55   0.0000       1.409283        38.3485 
  56   0.0000       1.424340        38.7583 
  57   0.0000       1.437334        39.1118 
  58   0.0000       1.465150        39.8688 
  59   0.0000       1.510161        41.0936 
  60   0.0000       1.538808        41.8731 
  61   0.0000       1.573188        42.8086 
  62   0.0000       1.580668        43.0122 
  63   0.0000       1.665677        45.3254 
  64   0.0000       1.778501        48.3955 
  65   0.0000       1.785637        48.5897 
  66   0.0000       1.828186        49.7475 
  67   0.0000       1.832190        49.8564 
  68   0.0000       1.878390        51.1136 
  69   0.0000       1.905326        51.8466 
  70   0.0000       1.970905        53.6311 
  71   0.0000       1.991528        54.1922 
  72   0.0000       1.996136        54.3176 
  73   0.0000       2.012369        54.7593 
  74   0.0000       2.117204        57.6121 
  75   0.0000       2.153118        58.5893 
  76   0.0000       2.275538        61.9205 
  77   0.0000       2.288166        62.2641 
  78   0.0000       2.295097        62.4528 
  79   0.0000       2.313712        62.9593 
  80   0.0000       2.332149        63.4610 
  81   0.0000       2.340533        63.6891 
  82   0.0000       2.362563        64.2886 
  83   0.0000       2.371136        64.5219 
  84   0.0000       2.395718        65.1908 
  85   0.0000       2.449915        66.6656 
  86   0.0000       2.507774        68.2400 
  87   0.0000       2.551187        69.4213 
  88   0.0000       2.556095        69.5549 
  89   0.0000       2.580531        70.2198 
  90   0.0000       2.596228        70.6469 
  91   0.0000       2.651648        72.1550 
  92   0.0000       2.668476        72.6129 
  93   0.0000       2.686127        73.0932 
  94   0.0000       2.704073        73.5816 
  95   0.0000       2.770268        75.3828 
  96   0.0000       2.897041        78.8325 
  97   0.0000       2.911969        79.2387 
  98   0.0000       2.932763        79.8045 
  99   0.0000       2.938252        79.9539 
 100   0.0000       2.951412        80.3120 
 101   0.0000       2.959834        80.5412 
 102   0.0000       2.983118        81.1748 
 103   0.0000       3.014443        82.0272 
 104   0.0000       3.048544        82.9551 
 105   0.0000       3.084177        83.9247 
 106   0.0000       3.133530        85.2677 
 107   0.0000       3.140624        85.4607 
 108   0.0000       3.207645        87.2845 
 109   0.0000       3.253633        88.5359 
 110   0.0000       3.313275        90.1588 
 111   0.0000       3.438987        93.5796 
 112   0.0000       3.981868       108.3521 
 113   0.0000       4.005125       108.9850 
 114   0.0000       4.016159       109.2853 
 115   0.0000       4.125470       112.2597 
 116   0.0000       4.265802       116.0784 
 117   0.0000       4.294711       116.8650 
 118   0.0000       4.297400       116.9382 
 119   0.0000       4.390125       119.4614 
 120   0.0000       5.511985       149.9887 
 121   0.0000       5.536987       150.6691 
 122   0.0000       5.537053       150.6709 
 123   0.0000       5.604088       152.4950 
 124   0.0000       5.623125       153.0130 
 125   0.0000       5.638887       153.4419 
 126   0.0000       5.641543       153.5142 
 127   0.0000       5.711847       155.4273 
 128   0.0000       5.788130       157.5030 
 129   0.0000       5.797683       157.7630 
 130   0.0000       5.810463       158.1107 
 131   0.0000       5.812959       158.1786 
 132   0.0000       5.836258       158.8127 
 133   0.0000       5.842043       158.9701 
 134   0.0000       5.853587       159.2842 
 135   0.0000       5.882954       160.0833 
 136   0.0000       5.883469       160.0973 
 137   0.0000       5.901098       160.5770 
 138   0.0000       5.924960       161.2263 
 139   0.0000       5.956087       162.0734 
 140   0.0000       6.414427       174.5454 
 141   0.0000       6.435078       175.1074 
 142   0.0000       6.477401       176.2590 
 143   0.0000       6.517743       177.3568 
 144   0.0000       6.661800       181.2768 
 145   0.0000       6.682503       181.8402 
 146   0.0000       6.697385       182.2451 
 147   0.0000       6.743984       183.5131 
 148   0.0000       6.818058       185.5288 
 149   0.0000       6.847954       186.3423 
 150   0.0000       6.863830       186.7743 
 151   0.0000       6.873026       187.0246 
 152   0.0000       6.876624       187.1225 
 153   0.0000       6.890453       187.4988 
 154   0.0000       6.904195       187.8727 
 155   0.0000       6.921070       188.3319 
 156   0.0000       6.934443       188.6958 
 157   0.0000       6.972557       189.7329 
 158   0.0000       6.994897       190.3408 
 159   0.0000       7.026206       191.1928 
 160   0.0000       7.348805       199.9711 
 161   0.0000       7.361404       200.3140 
 162   0.0000       7.377491       200.7517 
 163   0.0000       7.470612       203.2857 
 164   0.0000       7.484206       203.6556 
 165   0.0000       7.491495       203.8539 
 166   0.0000       7.499405       204.0692 
 167   0.0000       7.639224       207.8738 
 168   0.0000      44.815615      1219.4949 
 169   0.0000      44.854015      1220.5398 
 170   0.0000      44.896357      1221.6920 
 171   0.0000      45.037600      1225.5354 

                    ********************************
                    * MULLIKEN POPULATION ANALYSIS *
                    ********************************

-----------------------
MULLIKEN ATOMIC CHARGES
-----------------------
   0 O :   -0.762984
   1 H :    0.375712
   2 H :    0.357611
   3 O :   -0.709282
   4 H :    0.375341
   5 H :    0.355706
   6 O :   -0.691371
   7 H :    0.333966
   8 H :    0.359489
   9 O :   -0.713497
  10 H :    0.355480
  11 H :    0.363828
Sum of atomic charges:    0.0000000

--------------------------------
MULLIKEN REDUCED ORBITAL CHARGES
--------------------------------
  0 O s       :     3.803863  s :     3.803863
      pz      :     1.578485  p :     4.933459
      px      :     1.875338
      py      :     1.479636
      dz2     :     0.010895  d :     0.024251
      dxz     :     0.002518
      dyz     :     0.002778
      dx2y2   :     0.003000
      dxy     :     0.005060
      f0      :     0.000168  f :     0.001410
      f+1     :     0.000120
      f-1     :     0.000440
      f+2     :     0.000078
      f-2     :     0.000040
      f+3     :     0.000446
      f-3     :     0.000118
  1 H s       :     0.575357  s :     0.575357
      pz      :     0.023945  p :     0.048931
      px      :     0.013491
      py      :     0.011495
  2 H s       :     0.587928  s :     0.587928
      pz      :     0.010175  p :     0.054461
      px      :     0.016148
      py      :     0.028138
  3 O s       :     3.806134  s :     3.806134
      pz      :     1.561517  p :     4.875653
      px      :     1.464465
      py      :     1.849672
      dz2     :     0.012016  d :     0.026046
      dxz     :     0.002905
      dyz     :     0.002358
      dx2y2   :     0.003608
      dxy     :     0.005158
      f0      :     0.000171  f :     0.001449
      f+1     :     0.000470
      f-1     :     0.000121
      f+2     :     0.000071
      f-2     :     0.000042
      f+3     :     0.000113
      f-3     :     0.000461
  4 H s       :     0.581001  s :     0.581001
      pz      :     0.019086  p :     0.043658
      px      :     0.011438
      py      :     0.013134
  5 H s       :     0.601674  s :     0.601674
      pz      :     0.009892  p :     0.042620
      px      :     0.018568
      py      :     0.014160
  6 O s       :     3.814716  s :     3.814716
      pz      :     1.491262  p :     4.848657
      px      :     1.818688
      py      :     1.538707
      dz2     :     0.012321  d :     0.026458
      dxz     :     0.003116
      dyz     :     0.001283
      dx2y2   :     0.002121
      dxy     :     0.007617
      f0      :     0.000271  f :     0.001540
      f+1     :     0.000176
      f-1     :     0.000385
      f+2     :     0.000056
      f-2     :     0.000057
      f+3     :     0.000525
      f-3     :     0.000070
  7 H s       :     0.620799  s :     0.620799
      pz      :     0.018722  p :     0.045235
      px      :     0.014009
      py      :     0.012504
  8 H s       :     0.596174  s :     0.596174
      pz      :     0.010428  p :     0.044337
      px      :     0.015525
      py      :     0.018383
  9 O s       :     3.810958  s :     3.810958
      pz      :     1.717413  p :     4.876060
      px      :     1.801828
      py      :     1.356820
      dz2     :     0.004137  d :     0.024958
      dxz     :     0.005856
      dyz     :     0.004453
      dx2y2   :     0.002507
      dxy     :     0.008004
      f0      :     0.000084  f :     0.001520
      f+1     :     0.000188
      f-1     :     0.000331
      f+2     :     0.000071
      f-2     :     0.000351
      f+3     :     0.000397
      f-3     :     0.000100
 10 H s       :     0.598959  s :     0.598959
      pz      :     0.017031  p :     0.045561
      px      :     0.014998
      py      :     0.013533
 11 H s       :     0.594453  s :     0.594453
      pz      :     0.010833  p :     0.041719
      px      :     0.013125
      py      :     0.017761


                     *******************************
                     * LOEWDIN POPULATION ANALYSIS *
                     *******************************

----------------------
LOEWDIN ATOMIC CHARGES
----------------------
   0 O :   -0.374854
   1 H :    0.149519
   2 H :    0.141583
   3 O :   -0.299616
   4 H :    0.176698
   5 H :    0.174247
   6 O :   -0.329281
   7 H :    0.158537
   8 H :    0.172596
   9 O :   -0.314846
  10 H :    0.160293
  11 H :    0.185123

-------------------------------
LOEWDIN REDUCED ORBITAL CHARGES
-------------------------------
  0 O s       :     3.465179  s :     3.465179
      pz      :     1.566632  p :     4.878116
      px      :     1.837787
      py      :     1.473696
      dz2     :     0.013734  d :     0.029579
      dxz     :     0.001609
      dyz     :     0.003878
      dx2y2   :     0.004024
      dxy     :     0.006335
      f0      :     0.000351  f :     0.001980
      f+1     :     0.000191
      f-1     :     0.000710
      f+2     :     0.000044
      f-2     :     0.000043
      f+3     :     0.000574
      f-3     :     0.000069
  1 H s       :     0.678501  s :     0.678501
      pz      :     0.091507  p :     0.171980
      px      :     0.043328
      py      :     0.037145
  2 H s       :     0.675082  s :     0.675082
      pz      :     0.030825  p :     0.183335
      px      :     0.052770
      py      :     0.099741
  3 O s       :     3.469244  s :     3.469244
      pz      :     1.553021  p :     4.795108
      px      :     1.453315
      py      :     1.788772
      dz2     :     0.015352  d :     0.033133
      dxz     :     0.004000
      dyz     :     0.001472
      dx2y2   :     0.005499
      dxy     :     0.006810
      f0      :     0.000358  f :     0.002130
      f+1     :     0.000758
      f-1     :     0.000215
      f+2     :     0.000042
      f-2     :     0.000044
      f+3     :     0.000076
      f-3     :     0.000637
  4 H s       :     0.664468  s :     0.664468
      pz      :     0.080817  p :     0.158834
      px      :     0.035265
      py      :     0.042752
  5 H s       :     0.672475  s :     0.672475
      pz      :     0.029389  p :     0.153278
      px      :     0.074419
      py      :     0.049470
  6 O s       :     3.473977  s :     3.473977
      pz      :     1.503218  p :     4.819247
      px      :     1.788216
      py      :     1.527813
      dz2     :     0.017040  d :     0.033827
      dxz     :     0.002568
      dyz     :     0.002197
      dx2y2   :     0.002274
      dxy     :     0.009747
      f0      :     0.000503  f :     0.002230
      f+1     :     0.000330
      f-1     :     0.000601
      f+2     :     0.000026
      f-2     :     0.000048
      f+3     :     0.000719
      f-3     :     0.000003
  7 H s       :     0.683986  s :     0.683986
      pz      :     0.079612  p :     0.157477
      px      :     0.042442
      py      :     0.035423
  8 H s       :     0.670752  s :     0.670752
      pz      :     0.029436  p :     0.156652
      px      :     0.054753
      py      :     0.072463
  9 O s       :     3.469472  s :     3.469472
      pz      :     1.682244  p :     4.810613
      px      :     1.774899
      py      :     1.353470
      dz2     :     0.005490  d :     0.032639
      dxz     :     0.005900
      dyz     :     0.006958
      dx2y2   :     0.003891
      dxy     :     0.010401
      f0      :     0.000092  f :     0.002122
      f+1     :     0.000274
      f-1     :     0.000454
      f+2     :     0.000036
      f-2     :     0.000613
      f+3     :     0.000560
      f-3     :     0.000094
 10 H s       :     0.676301  s :     0.676301
      pz      :     0.066483  p :     0.163405
      px      :     0.052861
      py      :     0.044061
 11 H s       :     0.666811  s :     0.666811
      pz      :     0.033469  p :     0.148066
      px      :     0.043578
      py      :     0.071018


                      *****************************
                      * MAYER POPULATION ANALYSIS *
                      *****************************

  NA   - Mulliken gross atomic population
  ZA   - Total nuclear charge
  QA   - Mulliken gross atomic charge
  VA   - Mayer's total valence
  BVA  - Mayer's bonded valence
  FA   - Mayer's free valence

  ATOM       NA         ZA         QA         VA         BVA        FA
  0 O      8.7630     8.0000    -0.7630     1.7027     1.7027     0.0000
  1 H      0.6243     1.0000     0.3757     0.8852     0.8852    -0.0000
  2 H      0.6424     1.0000     0.3576     0.9090     0.9090     0.0000
  3 O      8.7093     8.0000    -0.7093     1.7781     1.7781     0.0000
  4 H      0.6247     1.0000     0.3753     0.8743     0.8743     0.0000
  5 H      0.6443     1.0000     0.3557     0.8917     0.8917     0.0000
  6 O      8.6914     8.0000    -0.6914     1.7836     1.7836    -0.0000
  7 H      0.6660     1.0000     0.3340     0.9039     0.9039    -0.0000
  8 H      0.6405     1.0000     0.3595     0.8850     0.8850     0.0000
  9 O      8.7135     8.0000    -0.7135     1.7705     1.7705    -0.0000
 10 H      0.6445     1.0000     0.3555     0.8886     0.8886     0.0000
 11 H      0.6362     1.0000     0.3638     0.8822     0.8822    -0.0000

  Mayer bond orders larger than 0.100000
B(  0-O ,  1-H ) :   0.8620 B(  0-O ,  2-H ) :   0.8565 B(  3-O ,  4-H ) :   0.8674 
B(  3-O ,  5-H ) :   0.8783 B(  6-O ,  7-H ) :   0.8968 B(  6-O ,  8-H ) :   0.8801 
B(  9-O , 10-H ) :   0.8807 B(  9-O , 11-H ) :   0.8723 

-------
TIMINGS
-------

Total SCF time: 0 days 0 hours 0 min 4 sec 

Total time                  ....       4.146 sec
Sum of individual times     ....       3.942 sec  ( 95.1%)

Fock matrix formation       ....       3.743 sec  ( 90.3%)
Diagonalization             ....       0.029 sec  (  0.7%)
Density matrix formation    ....       0.005 sec  (  0.1%)
Population analysis         ....       0.004 sec  (  0.1%)
Initial guess               ....       0.108 sec  (  2.6%)
Orbital Transformation      ....       0.000 sec  (  0.0%)
Orbital Orthonormalization  ....       0.000 sec  (  0.0%)
DIIS solution               ....       0.009 sec  (  0.2%)
SOSCF solution              ....       0.013 sec  (  0.3%)


           ************************************************************
           *        Program running with 6 parallel MPI-processes     *
           *              working on a common directory               *
           ************************************************************

------------------------------------------------------------------------------
                                ORCA  MP2 
------------------------------------------------------------------------------

Freezing NCore=8 chemical core electrons
MP2 will be done in the AO integral direct mode
The Q1-step will be done using symmetric double matrices
Dimension of the basis                    ...  172
Memory devoted for MP2                    ... 8000 MB   
Memory needed for all in one shot         ...   60 MB
Number of MOs that can be treated together...  408      
MP2 density construction                  ... relaxed
The MP2 gradient is requested => amplitudes will be stored on disk
Total number of MOs              ...   16
Number of MOs treated per batch  ...    3 
Number of batches necessary      ...    1 
OPERATORS   0/  0 PASS   0
-----------------------------------------------
 MP2 CORRELATION ENERGY   :     -1.028701020 Eh
-----------------------------------------------


---------------------
MP2 DENSITY FORMATION
---------------------

Completing the external part of the density      ... done
Storing the unrelaxed density                    ... done

Calculating G(D)                                 ... done
Completing the Lagrangian                        ... done
Solving the Z-vector equations                   ... 

------------------------------------------------------------------------------
                           ORCA CP-SCF CALCULATION
------------------------------------------------------------------------------

Input orbitals are from        ... 12h2o.su.etal.mol4,7,9,10-orca.engrad-mp2.def2tzvp.frozencore.gbw
Input Perturbation             ... 12h2o.su.etal.mol4,7,9,10-orca.engrad-mp2.def2tzvp.frozencore.pin.tmp
Wavefunction output            ... 12h2o.su.etal.mol4,7,9,10-orca.engrad-mp2.def2tzvp.frozencore.pout.tmp
Perturbation mode              ... Real perturbation (singlet)
Solver                         ... POPLE
Max. number of iterations      ... 128
Convergence tolerance          ... 1.000e-08
Integral handling              ... Direct
Number of perturbations        ... 1
Number of operators            ... 1
Orbital ranges used for CP-SCF:
 Operator 0:  Orbitals   0... 19  to  20...171
Variables per vector in CP-SCF ... 3040
Number of vectors sought       ... 1
     CP-SCF ITERATION   0: 
     CP-SCF ITERATION   1:      0.000489145365
     CP-SCF ITERATION   2:      0.000010635524
     CP-SCF ITERATION   3:      0.000000479032
     CP-SCF ITERATION   4:      0.000000040157
     CP-SCF ITERATION   5:      0.000000003330
                                                 ... done
Finalizing the relaxed density                   ... done
Transforming P to the AO basis                   ... done
Storing the relaxed density                      ... done

------------------------------------
ENERGY WEIGHTED DENSITY FINALIZATION
------------------------------------

Gathering the parts of the W-matrix              ...                                                      done
Forming the Z-density                            ... done
Transforming Z to the AO basis                   ... done
Calculating G(Z)                                 ... done
Finalizing the W-matrix                          ...                                                      done
Transforming W to the AO basis and storing       ... done

                *********************************************
                * UNRELAXED MP2 DENSITY POPULATION ANALYSIS *
                *********************************************

------------------------------------------------------------------------------
                           ORCA POPULATION ANALYSIS
------------------------------------------------------------------------------
Input electron density              ... 12h2o.su.etal.mol4,7,9,10-orca.engrad-mp2.def2tzvp.frozencore.pmp2ur
BaseName (.gbw .S,...)              ... 12h2o.su.etal.mol4,7,9,10-orca.engrad-mp2.def2tzvp.frozencore

                    ********************************
                    * MULLIKEN POPULATION ANALYSIS *
                    ********************************

-----------------------
MULLIKEN ATOMIC CHARGES
-----------------------
   0 O :   -0.757058
   1 H :    0.372782
   2 H :    0.353538
   3 O :   -0.703321
   4 H :    0.372915
   5 H :    0.352959
   6 O :   -0.686476
   7 H :    0.331539
   8 H :    0.357138
   9 O :   -0.708370
  10 H :    0.353266
  11 H :    0.361088
Sum of atomic charges:    0.0000000

--------------------------------
MULLIKEN REDUCED ORBITAL CHARGES
--------------------------------
  0 O s       :     3.798876  s :     3.798876
      pz      :     1.568788  p :     4.902832
      px      :     1.863485
      py      :     1.470558
      dz2     :     0.016119  d :     0.051363
      dxz     :     0.008073
      dyz     :     0.008185
      dx2y2   :     0.008513
      dxy     :     0.010472
      f0      :     0.000553  f :     0.003988
      f+1     :     0.000492
      f-1     :     0.000810
      f+2     :     0.000441
      f-2     :     0.000407
      f+3     :     0.000802
      f-3     :     0.000484
  1 H s       :     0.576677  s :     0.576677
      pz      :     0.024059  p :     0.050541
      px      :     0.014357
      py      :     0.012125
  2 H s       :     0.590225  s :     0.590225
      pz      :     0.011042  p :     0.056237
      px      :     0.016899
      py      :     0.028296
  3 O s       :     3.801036  s :     3.801036
      pz      :     1.552054  p :     4.845324
      px      :     1.456033
      py      :     1.837237
      dz2     :     0.017100  d :     0.052944
      dxz     :     0.008192
      dyz     :     0.007922
      dx2y2   :     0.009127
      dxy     :     0.010602
      f0      :     0.000553  f :     0.004017
      f+1     :     0.000833
      f-1     :     0.000494
      f+2     :     0.000434
      f-2     :     0.000407
      f+3     :     0.000481
      f-3     :     0.000816
  4 H s       :     0.581892  s :     0.581892
      pz      :     0.019205  p :     0.045193
      px      :     0.012024
      py      :     0.013964
  5 H s       :     0.602818  s :     0.602818
      pz      :     0.010712  p :     0.044223
      px      :     0.018609
      py      :     0.014901
  6 O s       :     3.809918  s :     3.809918
      pz      :     1.482527  p :     4.819742
      px      :     1.807424
      py      :     1.529791
      dz2     :     0.017260  d :     0.052731
      dxz     :     0.008508
      dyz     :     0.006587
      dx2y2   :     0.007564
      dxy     :     0.012812
      f0      :     0.000644  f :     0.004084
      f+1     :     0.000545
      f-1     :     0.000747
      f+2     :     0.000413
      f-2     :     0.000420
      f+3     :     0.000878
      f-3     :     0.000437
  7 H s       :     0.621531  s :     0.621531
      pz      :     0.018829  p :     0.046930
      px      :     0.014890
      py      :     0.013210
  8 H s       :     0.596931  s :     0.596931
      pz      :     0.011198  p :     0.045931
      px      :     0.016190
      py      :     0.018543
  9 O s       :     3.806117  s :     3.806117
      pz      :     1.706594  p :     4.846461
      px      :     1.790586
      py      :     1.349281
      dz2     :     0.009646  d :     0.051719
      dxz     :     0.011227
      dyz     :     0.009807
      dx2y2   :     0.007845
      dxy     :     0.013194
      f0      :     0.000455  f :     0.004072
      f+1     :     0.000553
      f-1     :     0.000692
      f+2     :     0.000437
      f-2     :     0.000714
      f+3     :     0.000754
      f-3     :     0.000467
 10 H s       :     0.599582  s :     0.599582
      pz      :     0.017515  p :     0.047152
      px      :     0.015714
      py      :     0.013922
 11 H s       :     0.595632  s :     0.595632
      pz      :     0.011673  p :     0.043281
      px      :     0.013899
      py      :     0.017708


                     *******************************
                     * LOEWDIN POPULATION ANALYSIS *
                     *******************************

----------------------
LOEWDIN ATOMIC CHARGES
----------------------
   0 O :   -0.372185
   1 H :    0.147554
   2 H :    0.139095
   3 O :   -0.295432
   4 H :    0.175346
   5 H :    0.172510
   6 O :   -0.326384
   7 H :    0.157059
   8 H :    0.171311
   9 O :   -0.311351
  10 H :    0.159116
  11 H :    0.183361

-------------------------------
LOEWDIN REDUCED ORBITAL CHARGES
-------------------------------
  0 O s       :     3.461511  s :     3.461511
      pz      :     1.556871  p :     4.848082
      px      :     1.826517
      py      :     1.464694
      dz2     :     0.019573  d :     0.057837
      dxz     :     0.007096
      dyz     :     0.009323
      dx2y2   :     0.009739
      dxy     :     0.012106
      f0      :     0.000766  f :     0.004754
      f+1     :     0.000578
      f-1     :     0.001149
      f+2     :     0.000415
      f-2     :     0.000415
      f+3     :     0.000985
      f-3     :     0.000446
  1 H s       :     0.677474  s :     0.677474
      pz      :     0.092900  p :     0.174972
      px      :     0.044123
      py      :     0.037949
  2 H s       :     0.674585  s :     0.674585
      pz      :     0.031679  p :     0.186320
      px      :     0.053686
      py      :     0.100955
  3 O s       :     3.465349  s :     3.465349
      pz      :     1.543337  p :     4.764121
      px      :     1.444509
      py      :     1.776275
      dz2     :     0.021072  d :     0.061069
      dxz     :     0.009309
      dyz     :     0.006953
      dx2y2   :     0.011191
      dxy     :     0.012543
      f0      :     0.000769  f :     0.004894
      f+1     :     0.001189
      f-1     :     0.000604
      f+2     :     0.000413
      f-2     :     0.000415
      f+3     :     0.000455
      f-3     :     0.001049
  4 H s       :     0.662874  s :     0.662874
      pz      :     0.082261  p :     0.161781
      px      :     0.035989
      py      :     0.043530
  5 H s       :     0.671050  s :     0.671050
      pz      :     0.030187  p :     0.156440
      px      :     0.075817
      py      :     0.050436
  6 O s       :     3.470216  s :     3.470216
      pz      :     1.494046  p :     4.790020
      px      :     1.777273
      py      :     1.518701
      dz2     :     0.022700  d :     0.061181
      dxz     :     0.007899
      dyz     :     0.007437
      dx2y2   :     0.007699
      dxy     :     0.015445
      f0      :     0.000917  f :     0.004967
      f+1     :     0.000723
      f-1     :     0.001017
      f+2     :     0.000388
      f-2     :     0.000418
      f+3     :     0.001129
      f-3     :     0.000375
  7 H s       :     0.682150  s :     0.682150
      pz      :     0.081324  p :     0.160792
      px      :     0.043284
      py      :     0.036184
  8 H s       :     0.668973  s :     0.668973
      pz      :     0.030157  p :     0.159716
      px      :     0.055777
      py      :     0.073782
  9 O s       :     3.465695  s :     3.465695
      pz      :     1.670967  p :     4.780299
      px      :     1.763894
      py      :     1.345439
      dz2     :     0.011093  d :     0.060490
      dxz     :     0.011565
      dyz     :     0.012518
      dx2y2   :     0.009352
      dxy     :     0.015961
      f0      :     0.000474  f :     0.004868
      f+1     :     0.000659
      f-1     :     0.000862
      f+2     :     0.000409
      f-2     :     0.001020
      f+3     :     0.000970
      f-3     :     0.000474
 10 H s       :     0.674415  s :     0.674415
      pz      :     0.067719  p :     0.166468
      px      :     0.053859
      py      :     0.044890
 11 H s       :     0.665453  s :     0.665453
      pz      :     0.034317  p :     0.151186
      px      :     0.044571
      py      :     0.072298


                      *****************************
                      * MAYER POPULATION ANALYSIS *
                      *****************************

  NA   - Mulliken gross atomic population
  ZA   - Total nuclear charge
  QA   - Mulliken gross atomic charge
  VA   - Mayer's total valence
  BVA  - Mayer's bonded valence
  FA   - Mayer's free valence

  ATOM       NA         ZA         QA         VA         BVA        FA
  0 O      8.7571     8.0000    -0.7571     2.0159     1.6240     0.3919
  1 H      0.6272     1.0000     0.3728     0.8913     0.8462     0.0451
  2 H      0.6465     1.0000     0.3535     0.9166     0.8683     0.0482
  3 O      8.7033     8.0000    -0.7033     2.0848     1.6967     0.3880
  4 H      0.6271     1.0000     0.3729     0.8799     0.8347     0.0452
  5 H      0.6470     1.0000     0.3530     0.8980     0.8500     0.0481
  6 O      8.6865     8.0000    -0.6865     2.0863     1.7013     0.3850
  7 H      0.6685     1.0000     0.3315     0.9101     0.8616     0.0486
  8 H      0.6429     1.0000     0.3571     0.8908     0.8445     0.0463
  9 O      8.7084     8.0000    -0.7084     2.0778     1.6889     0.3890
 10 H      0.6467     1.0000     0.3533     0.8943     0.8483     0.0459
 11 H      0.6389     1.0000     0.3611     0.8882     0.8401     0.0481

  Mayer bond orders larger than 0.100000
B(  0-O ,  1-H ) :   0.8237 B(  0-O ,  2-H ) :   0.8172 B(  3-O ,  4-H ) :   0.8283 
B(  3-O ,  5-H ) :   0.8373 B(  6-O ,  7-H ) :   0.8549 B(  6-O ,  8-H ) :   0.8400 
B(  9-O , 10-H ) :   0.8411 B(  9-O , 11-H ) :   0.8309 


                *******************************************
                * RELAXED MP2 DENSITY POPULATION ANALYSIS *
                *******************************************

------------------------------------------------------------------------------
                           ORCA POPULATION ANALYSIS
------------------------------------------------------------------------------
Input electron density              ... 12h2o.su.etal.mol4,7,9,10-orca.engrad-mp2.def2tzvp.frozencore.pmp2re
BaseName (.gbw .S,...)              ... 12h2o.su.etal.mol4,7,9,10-orca.engrad-mp2.def2tzvp.frozencore

                    ********************************
                    * MULLIKEN POPULATION ANALYSIS *
                    ********************************

-----------------------
MULLIKEN ATOMIC CHARGES
-----------------------
   0 O :   -0.734506
   1 H :    0.359281
   2 H :    0.333806
   3 O :   -0.681402
   4 H :    0.365913
   5 H :    0.345196
   6 O :   -0.672311
   7 H :    0.325236
   8 H :    0.350464
   9 O :   -0.691832
  10 H :    0.346445
  11 H :    0.353710
Sum of atomic charges:    0.0000000

--------------------------------
MULLIKEN REDUCED ORBITAL CHARGES
--------------------------------
  0 O s       :     3.795659  s :     3.795659
      pz      :     1.564210  p :     4.885437
      px      :     1.857354
      py      :     1.463873
      dz2     :     0.015096  d :     0.049488
      dxz     :     0.008103
      dyz     :     0.007960
      dx2y2   :     0.008304
      dxy     :     0.010025
      f0      :     0.000541  f :     0.003922
      f+1     :     0.000486
      f-1     :     0.000783
      f+2     :     0.000441
      f-2     :     0.000405
      f+3     :     0.000784
      f-3     :     0.000483
  1 H s       :     0.589599  s :     0.589599
      pz      :     0.023381  p :     0.051120
      px      :     0.015271
      py      :     0.012469
  2 H s       :     0.609391  s :     0.609391
      pz      :     0.011807  p :     0.056802
      px      :     0.017549
      py      :     0.027446
  3 O s       :     3.804642  s :     3.804642
      pz      :     1.545698  p :     4.822027
      px      :     1.452801
      py      :     1.823529
      dz2     :     0.015890  d :     0.050791
      dxz     :     0.007944
      dyz     :     0.007980
      dx2y2   :     0.008857
      dxy     :     0.010120
      f0      :     0.000538  f :     0.003943
      f+1     :     0.000804
      f-1     :     0.000488
      f+2     :     0.000434
      f-2     :     0.000405
      f+3     :     0.000480
      f-3     :     0.000794
  4 H s       :     0.588282  s :     0.588282
      pz      :     0.018495  p :     0.045806
      px      :     0.012395
      py      :     0.014916
  5 H s       :     0.609909  s :     0.609909
      pz      :     0.011447  p :     0.044895
      px      :     0.017792
      py      :     0.015655
  6 O s       :     3.815077  s :     3.815077
      pz      :     1.476355  p :     4.802838
      px      :     1.801659
      py      :     1.524824
      dz2     :     0.015845  d :     0.050388
      dxz     :     0.008476
      dyz     :     0.006517
      dx2y2   :     0.007483
      dxy     :     0.012066
      f0      :     0.000626  f :     0.004008
      f+1     :     0.000535
      f-1     :     0.000725
      f+2     :     0.000414
      f-2     :     0.000418
      f+3     :     0.000853
      f-3     :     0.000438
  7 H s       :     0.626993  s :     0.626993
      pz      :     0.018053  p :     0.047771
      px      :     0.015903
      py      :     0.013816
  8 H s       :     0.602930  s :     0.602930
      pz      :     0.011865  p :     0.046606
      px      :     0.016717
      py      :     0.018023
  9 O s       :     3.810617  s :     3.810617
      pz      :     1.697099  p :     4.827747
      px      :     1.785255
      py      :     1.345393
      dz2     :     0.009411  d :     0.049468
      dxz     :     0.010944
      dyz     :     0.009212
      dx2y2   :     0.007598
      dxy     :     0.012303
      f0      :     0.000453  f :     0.004000
      f+1     :     0.000545
      f-1     :     0.000672
      f+2     :     0.000438
      f-2     :     0.000694
      f+3     :     0.000733
      f-3     :     0.000466
 10 H s       :     0.605690  s :     0.605690
      pz      :     0.017673  p :     0.047865
      px      :     0.016349
      py      :     0.013844
 11 H s       :     0.602394  s :     0.602394
      pz      :     0.012549  p :     0.043897
      px      :     0.014621
      py      :     0.016727


                     *******************************
                     * LOEWDIN POPULATION ANALYSIS *
                     *******************************

----------------------
LOEWDIN ATOMIC CHARGES
----------------------
   0 O :   -0.372688
   1 H :    0.143890
   2 H :    0.133249
   3 O :   -0.291290
   4 H :    0.176493
   5 H :    0.173243
   6 O :   -0.328773
   7 H :    0.158593
   8 H :    0.172961
   9 O :   -0.310697
  10 H :    0.160628
  11 H :    0.184391

-------------------------------
LOEWDIN REDUCED ORBITAL CHARGES
-------------------------------
  0 O s       :     3.462273  s :     3.462273
      pz      :     1.557662  p :     4.848582
      px      :     1.823976
      py      :     1.466945
      dz2     :     0.019151  d :     0.057047
      dxz     :     0.007150
      dyz     :     0.009134
      dx2y2   :     0.009661
      dxy     :     0.011952
      f0      :     0.000767  f :     0.004786
      f+1     :     0.000579
      f-1     :     0.001162
      f+2     :     0.000417
      f-2     :     0.000414
      f+3     :     0.000999
      f-3     :     0.000448
  1 H s       :     0.680608  s :     0.680608
      pz      :     0.092303  p :     0.175502
      px      :     0.045047
      py      :     0.038152
  2 H s       :     0.679464  s :     0.679464
      pz      :     0.032272  p :     0.187287
      px      :     0.054473
      py      :     0.100542
  3 O s       :     3.467079  s :     3.467079
      pz      :     1.544471  p :     4.759354
      px      :     1.448092
      py      :     1.766791
      dz2     :     0.020437  d :     0.059947
      dxz     :     0.009078
      dyz     :     0.007027
      dx2y2   :     0.011076
      dxy     :     0.012329
      f0      :     0.000766  f :     0.004910
      f+1     :     0.001197
      f-1     :     0.000605
      f+2     :     0.000415
      f-2     :     0.000414
      f+3     :     0.000458
      f-3     :     0.001057
  4 H s       :     0.661899  s :     0.661899
      pz      :     0.081405  p :     0.161609
      px      :     0.035869
      py      :     0.044334
  5 H s       :     0.670179  s :     0.670179
      pz      :     0.030658  p :     0.156578
      px      :     0.074745
      py      :     0.051175
  6 O s       :     3.472502  s :     3.472502
      pz      :     1.495809  p :     4.791495
      px      :     1.775078
      py      :     1.520608
      dz2     :     0.021876  d :     0.059793
      dxz     :     0.007927
      dyz     :     0.007281
      dx2y2   :     0.007628
      dxy     :     0.015081
      f0      :     0.000918  f :     0.004983
      f+1     :     0.000720
      f-1     :     0.001025
      f+2     :     0.000390
      f-2     :     0.000417
      f+3     :     0.001137
      f-3     :     0.000375
  7 H s       :     0.680203  s :     0.680203
      pz      :     0.080632  p :     0.161204
      px      :     0.044249
      py      :     0.036324
  8 H s       :     0.667395  s :     0.667395
      pz      :     0.030409  p :     0.159644
      px      :     0.056249
      py      :     0.072986
  9 O s       :     3.467849  s :     3.467849
      pz      :     1.666030  p :     4.778681
      px      :     1.762311
      py      :     1.350340
      dz2     :     0.011015  d :     0.059279
      dxz     :     0.011538
      dyz     :     0.012142
      dx2y2   :     0.009122
      dxy     :     0.015462
      f0      :     0.000477  f :     0.004888
      f+1     :     0.000659
      f-1     :     0.000869
      f+2     :     0.000410
      f-2     :     0.001020
      f+3     :     0.000976
      f-3     :     0.000477
 10 H s       :     0.672932  s :     0.672932
      pz      :     0.067854  p :     0.166440
      px      :     0.054514
      py      :     0.044072
 11 H s       :     0.664344  s :     0.664344
      pz      :     0.035058  p :     0.151264
      px      :     0.045331
      py      :     0.070875


                      *****************************
                      * MAYER POPULATION ANALYSIS *
                      *****************************

  NA   - Mulliken gross atomic population
  ZA   - Total nuclear charge
  QA   - Mulliken gross atomic charge
  VA   - Mayer's total valence
  BVA  - Mayer's bonded valence
  FA   - Mayer's free valence

  ATOM       NA         ZA         QA         VA         BVA        FA
  0 O      8.7345     8.0000    -0.7345     2.0291     1.6422     0.3870
  1 H      0.6407     1.0000     0.3593     0.9088     0.8639     0.0449
  2 H      0.6662     1.0000     0.3338     0.9432     0.8957     0.0475
  3 O      8.6814     8.0000    -0.6814     2.1145     1.7323     0.3822
  4 H      0.6341     1.0000     0.3659     0.8861     0.8409     0.0452
  5 H      0.6548     1.0000     0.3452     0.9067     0.8589     0.0479
  6 O      8.6723     8.0000    -0.6723     2.0934     1.7135     0.3799
  7 H      0.6748     1.0000     0.3252     0.9152     0.8665     0.0486
  8 H      0.6495     1.0000     0.3505     0.8959     0.8495     0.0464
  9 O      8.6918     8.0000    -0.6918     2.0978     1.7143     0.3834
 10 H      0.6536     1.0000     0.3464     0.8993     0.8534     0.0459
 11 H      0.6463     1.0000     0.3537     0.8951     0.8470     0.0481

  Mayer bond orders larger than 0.100000
B(  0-O ,  1-H ) :   0.8292 B(  0-O ,  2-H ) :   0.8190 B(  3-O ,  4-H ) :   0.8326 
B(  3-O ,  5-H ) :   0.8408 B(  6-O ,  7-H ) :   0.8586 B(  6-O ,  8-H ) :   0.8447 
B(  9-O , 10-H ) :   0.8448 B(  9-O , 11-H ) :   0.8348 


----------------------------------
MP2 DERIVATIVE INTEGRAL GENERATION
----------------------------------


Input Wavefunction Amplitudes       ... 12h2o.su.etal.mol4,7,9,10-orca.engrad-mp2.def2tzvp.frozencore.mp2tsaa.tmp
Input Correlated Electron Density   ... 12h2o.su.etal.mol4,7,9,10-orca.engrad-mp2.def2tzvp.frozencore.pmp2re
Input Energy Weighted Density       ... 12h2o.su.etal.mol4,7,9,10-orca.engrad-mp2.def2tzvp.frozencore.wmp2.tmp
Input SCF Electron Density          ... 12h2o.su.etal.mol4,7,9,10-orca.engrad-mp2.def2tzvp.frozencore.scfp

One-Electron Terms    ...
                        ... One-Electron Terms done
Prescreening matrices              ... done

Batch handling in the gradient evaluation:
Memory available                      ... 8000.0 MB
Memory per occupied orbital in Q2     ...    3.6 MB
Memory per occupied orbital in Q3     ...    0.1 MB
Total memory requirement per |i>      ...    3.7 MB
Max. Number of orbitals possible      ...   2176
Number of orbitals treated per batch  ...     16
Number of batches to be done          ...      1
Batch   0: i=    4 ...    19

---------------------------------------
MP2 TOTAL ENERGY:     -305.264275787 Eh
---------------------------------------

The final MP2 gradient
  0:   0.00606333   0.00621873   0.00150773
  1:  -0.00407406   0.00393277  -0.00592597
  2:  -0.00511331  -0.01581715   0.00109088
  3:  -0.01378512   0.01339566  -0.00787045
  4:  -0.00177351  -0.00007611   0.00605312
  5:   0.01708538  -0.00691843   0.00065801
  6:  -0.00511182  -0.00604215   0.00980774
  7:  -0.00061907  -0.00215157  -0.00971401
  8:   0.00575953   0.00806016   0.00072451
  9:   0.00910507   0.02554308   0.00222719
 10:   0.00199574   0.00180595   0.00229806
 11:  -0.00953216  -0.02795095  -0.00085680

-----------------------------------
NORM OF THE MP2 GRADIENT:  0.056713
-----------------------------------

-------------------------   --------------------
FINAL SINGLE POINT ENERGY      -305.264275787091
-------------------------   --------------------


                            ***************************************
                            *     ORCA property calculations      *
                            ***************************************

                                    ---------------------
                                    Active property flags
                                    ---------------------
   (+) Dipole Moment


------------------------------------------------------------------------------
                       ORCA ELECTRIC PROPERTIES CALCULATION
------------------------------------------------------------------------------

Dipole Moment Calculation                       ... on
Quadrupole Moment Calculation                   ... off
Polarizability Calculation                      ... off
GBWName                                         ... 12h2o.su.etal.mol4,7,9,10-orca.engrad-mp2.def2tzvp.frozencore.gbw
Electron density file                           ... 12h2o.su.etal.mol4,7,9,10-orca.engrad-mp2.def2tzvp.frozencore.scfp
The origin for moment calculation is the CENTER OF MASS  = (-1.328874,  0.398455  0.018559)

-------------
DIPOLE MOMENT
-------------
                                X             Y             Z
Electronic contribution:     -0.04012      -0.05853       0.08819
Nuclear contribution   :     -0.11304      -0.76235      -1.31870
                        -----------------------------------------
Total Dipole Moment    :     -0.15316      -0.82088      -1.23051
                        -----------------------------------------
Magnitude (a.u.)       :      1.48710
Magnitude (Debye)      :      3.77991



--------------------
Rotational spectrum 
--------------------
 
Rotational constants in cm-1:     0.202423     0.035778     0.033293 
Rotational constants in MHz :  6068.487491  1072.603843   998.098376 

 Dipole components along the rotational axes: 
x,y,z [a.u.] :    -0.546108     1.126655     0.802421 
x,y,z [Debye]:    -1.388095     2.863730     2.039592 

 

                         *** MP2 UNRELAXED DENSITY ***

------------------------------------------------------------------------------
                       ORCA ELECTRIC PROPERTIES CALCULATION
------------------------------------------------------------------------------

Dipole Moment Calculation                       ... on
Quadrupole Moment Calculation                   ... off
Polarizability Calculation                      ... off
GBWName                                         ... 12h2o.su.etal.mol4,7,9,10-orca.engrad-mp2.def2tzvp.frozencore.gbw
Electron density file                           ... 12h2o.su.etal.mol4,7,9,10-orca.engrad-mp2.def2tzvp.frozencore.pmp2ur
The origin for moment calculation is the CENTER OF MASS  = (-1.328874,  0.398455  0.018559)

-------------
DIPOLE MOMENT
-------------
                                X             Y             Z
Electronic contribution:     -0.03905      -0.05200       0.10084
Nuclear contribution   :     -0.11304      -0.76235      -1.31870
                        -----------------------------------------
Total Dipole Moment    :     -0.15209      -0.81435      -1.21786
                        -----------------------------------------
Magnitude (a.u.)       :      1.47292
Magnitude (Debye)      :      3.74386



--------------------
Rotational spectrum 
--------------------
 
Rotational constants in cm-1:     0.202423     0.035778     0.033293 
Rotational constants in MHz :  6068.487491  1072.603843   998.098376 

 Dipole components along the rotational axes: 
x,y,z [a.u.] :    -0.539543     1.116779     0.794473 
x,y,z [Debye]:    -1.371408     2.838627     2.019389 

 

                           *** MP2 RELAXED DENSITY ***

------------------------------------------------------------------------------
                       ORCA ELECTRIC PROPERTIES CALCULATION
------------------------------------------------------------------------------

Dipole Moment Calculation                       ... on
Quadrupole Moment Calculation                   ... off
Polarizability Calculation                      ... off
GBWName                                         ... 12h2o.su.etal.mol4,7,9,10-orca.engrad-mp2.def2tzvp.frozencore.gbw
Electron density file                           ... 12h2o.su.etal.mol4,7,9,10-orca.engrad-mp2.def2tzvp.frozencore.pmp2re
The origin for moment calculation is the CENTER OF MASS  = (-1.328874,  0.398455  0.018559)

-------------
DIPOLE MOMENT
-------------
                                X             Y             Z
Electronic contribution:     -0.03392      -0.05763       0.11463
Nuclear contribution   :     -0.11304      -0.76235      -1.31870
                        -----------------------------------------
Total Dipole Moment    :     -0.14696      -0.81998      -1.20407
                        -----------------------------------------
Magnitude (a.u.)       :      1.46415
Magnitude (Debye)      :      3.72158



--------------------
Rotational spectrum 
--------------------
 
Rotational constants in cm-1:     0.202423     0.035778     0.033293 
Rotational constants in MHz :  6068.487491  1072.603843   998.098376 

 Dipole components along the rotational axes: 
x,y,z [a.u.] :    -0.524225     1.113189     0.793560 
x,y,z [Debye]:    -1.332475     2.829503     2.017068 

 

Timings for individual modules:

Sum of individual times         ...       16.700 sec (=   0.278 min)
GTO integral calculation        ...        1.293 sec (=   0.022 min)   7.7 %
SCF iterations                  ...        5.138 sec (=   0.086 min)  30.8 %
MP2 module                      ...       10.269 sec (=   0.171 min)  61.5 %
                             ****ORCA TERMINATED NORMALLY****
TOTAL RUN TIME: 0 days 0 hours 0 minutes 17 seconds 625 msec
