48
Energy:   -672.62732871
O    4.16667422   1.61622368  -1.52485521
H    4.79574885   2.30333317  -1.74480407
H    3.68465408   1.46306783  -2.33752471
O   -1.93814220   1.55857099  -0.17338817
H   -1.29926356   1.63719967   0.53504917
H   -2.78562954   1.68838923   0.25222232
O    0.19610487   1.39367509  -2.03054121
H   -0.63978467   1.67427333  -1.65800241
H    0.82889814   1.52186714  -1.32387910
O    2.55944980   1.10438549  -3.60394688
H    2.55562069   0.14947266  -3.66996719
H    1.67134565   1.32933630  -3.32663841
O    2.53798669  -1.65506678  -3.45859532
H    3.14507990  -1.75342657  -2.72511387
H    2.79427668  -2.34034102  -4.07580396
O   -4.18859924   1.39628200   1.44379291
H   -4.29286132   0.44481507   1.45227558
H   -5.07916214   1.73446906   1.35020296
O   -0.37675318  -1.33926767   1.93260541
H   -0.94540379  -1.51092031   2.68320764
H   -0.96137438  -1.37486907   1.17551728
O   -4.11331873  -1.31439789   1.53810368
H   -3.63702508  -1.54132786   2.33677695
H   -3.47994934  -1.45187440   0.83370659
O   -2.41226122  -1.49784445   3.78099389
H   -2.42610704  -0.54221667   3.83405691
H   -2.57607561  -1.79038307   4.67755279
O    1.94181988   1.41731503   0.04741826
H    2.77695278   1.63387549  -0.36717364
H    1.97792134   0.46993949   0.17935808
O   -2.35660675   1.18374334   3.54580620
H   -1.54536422   1.47011728   3.12615472
H   -3.04081790   1.38368015   2.90696959
O   -1.98103841  -1.16396646  -0.26073902
H   -2.00706178  -0.20946085  -0.32762452
H   -1.40283891  -1.43873375  -0.97237103
O   -0.12768503   1.40035080   1.87042158
H   -0.13034156   0.44707264   1.95694066
H    0.67146561   1.59465044   1.38068926
O    4.17515702  -1.50204491  -1.25988287
H    3.45430303  -1.61090183  -0.63959943
H    4.38560222  -0.56903722  -1.22191822
O    1.79067777  -1.29480048   0.20595998
H    1.21504121  -1.47518368   0.94915329
H    1.23128475  -1.40437582  -0.56300332
O    0.19152152  -1.31133030  -2.00558745
H    0.85268196  -1.55762535  -2.65245488
H    0.10771005  -0.36224625  -2.09749465
