37
Energy:  -1647.07479514
O   -0.98196275   2.73385662  -3.13489247
H   -0.08664587   3.06595239  -3.06892329
H   -1.37642426   3.24584589  -3.84093704
O    0.96305862   1.14816679  -0.70286390
H    1.29500593   1.86762472  -1.23991429
H    1.74790071   0.73790393  -0.33962963
O    1.66838895   3.22334613  -2.40997575
H    2.32382324   3.08506314  -3.09372685
H    1.87020463   4.08936608  -2.05569941
O   -0.15892306  -1.64510268   3.19030995
H    0.79202023  -1.74857052   3.22542578
H   -0.44310273  -1.72780758   4.10060312
O   -2.63773856  -0.82478918  -0.20787206
H   -2.58530015  -1.63137432   0.30486811
H   -3.54577162  -0.79027708  -0.50873204
O    0.12981899  -1.57595682  -0.35313365
H    1.06588394  -1.62546001  -0.15932008
H   -0.24240614  -2.35483088   0.06043072
O   -1.87420596   2.01574942  -0.64358085
H   -2.56490710   2.50133633  -0.19261618
H   -1.72410408   2.50654938  -1.45155156
O   -1.64938453  -2.98917817   1.20896005
H   -1.25183445  -2.78192011   2.05467269
H   -1.99076397  -3.87707512   1.31540693
O   -1.02346072   0.02794961  -2.54426741
H   -1.03097146  -0.68541942  -3.18245239
H   -1.03880062   0.82461849  -3.07465898
O    2.65975260  -0.83021919   0.40874786
H    2.74756385  -1.08531611   1.32714135
H    3.51258374  -1.02853823   0.02199153
O    2.62493545  -1.74505810   3.04857302
H    3.00389071  -2.61754552   3.15529917
H    3.08381860  -1.20386900   3.69104673
O   -0.71149785   0.47269764   1.56193141
H   -0.71204254   1.26528495   2.09862212
H   -0.54612543  -0.23716232   2.18240110
Ca  -0.86970867   0.21195329  -0.49184205
