30
Energy:   -381.71480700
O   -0.10731575   3.36963752   0.75784874
H   -0.09998291   3.04563805  -0.14281903
H   -0.77987363   2.84753876   1.19523945
O    1.06077896  -2.09155219  -1.33924786
H    0.46517563  -1.67049369  -1.95908515
H    1.57070525  -1.37097749  -0.96914095
O    1.90549347   0.14688387   0.13209098
H    2.30173314   0.95507668   0.45774471
H    1.41791091  -0.19944212   0.87945529
O   -0.05908132   1.42222729  -1.26955958
H    0.71601783   1.01154814  -0.88642020
H   -0.36836541   0.79137189  -1.91963394
O    0.22271023  -0.84186575   2.07725765
H    0.41210662  -1.05288914   2.99149503
H   -0.05399505  -1.67302887   1.69146766
O   -0.55305023  -3.01066522   0.60166503
H   -0.58179610  -3.96742915   0.59878603
H    0.05294552  -2.78665046  -0.10460573
O   -0.97502030  -0.75672204  -2.68689163
H   -1.47406721  -0.86762760  -3.49614066
H   -1.59544430  -0.97294642  -1.99079327
O   -1.60208720   0.88117008   0.92028419
H   -1.11375542   1.09291919   0.12471757
H   -0.99596101   0.35395836   1.44075578
O    2.47659042   2.61315701   1.16760060
H    1.58416924   2.95580426   1.11851750
H    3.02982283   3.39206541   1.22648568
O   -2.46535789  -1.31468344  -0.51335100
H   -2.38558334  -0.54182711   0.04572051
H   -1.95281565  -1.98822400  -0.06627671
