30
Energy:   -381.00883533
O   -0.82864500  -0.86850194  -2.72641260
H   -1.50022366  -0.81626863  -2.04634964
H   -0.31129391  -1.63960470  -2.49407611
O    1.84496344   1.29329322   1.81654054
H    2.58285833   1.83397744   2.09832694
H    1.35253514   1.85325287   1.21638106
O   -1.91935367   1.49642555   1.01817910
H   -1.52762103   1.04894997   1.76820776
H   -2.21394637   0.78948628   0.44399806
O   -2.41258057  -0.79029543  -0.46934423
H   -1.71767628  -1.21317873   0.03514521
H   -3.17568397  -1.35502708  -0.34693833
O    0.35785732   2.64375059   0.05260661
H   -0.52275002   2.38713880   0.32630892
H    0.46601071   2.24623578  -0.81140535
O    1.83033361  -0.54541827  -0.27278113
H    2.02967791   0.02172100   0.47209923
H    1.59050450   0.05777508  -0.97625226
O   -0.32473542  -1.75860095   0.93535026
H   -0.39916831  -1.27658050   1.75896904
H    0.42944115  -1.36657326   0.49516412
O   -0.39529737   0.15659954   2.93566521
H   -0.42073043   0.27446267   3.88524053
H    0.42789842   0.56340001   2.66530632
O    0.78320369  -2.80515979  -1.61397781
H    1.43695240  -2.19043334  -1.28087743
H    0.33717896  -3.12864126  -0.83125593
O    0.87212757   1.14325202  -2.22398782
H    1.21792071   1.46930365  -3.05486043
H    0.21515492   0.49418342  -2.47563982
