30
Energy:   -383.37300929
O   -0.98441702   1.84792784  -1.38410622
H   -0.53154728   1.34169874  -2.05854890
H   -1.39257558   2.57101954  -1.86031714
O    0.64341401   2.32167326   3.08415081
H    0.80892096   2.03225556   2.18689015
H    0.55758102   3.27269003   3.01758009
O   -0.37850513  -1.00353106   1.41523675
H   -1.17752557  -0.85295971   0.91013631
H   -0.60648034  -0.74416935   2.30798008
O   -2.27161869  -0.43673779  -0.44812728
H   -1.98580924   0.42177443  -0.76037971
H   -1.99399617  -1.04565472  -1.13250857
O    0.34783293   0.22446341  -3.05381128
H   -0.13422958  -0.59843671  -2.97206180
H    1.16109392   0.07510616  -2.57159677
O   -1.00346865  -2.07178722  -2.30201773
H   -0.31295489  -2.31812923  -1.68660062
H   -1.27223758  -2.89770786  -2.70432384
O   -0.76708833   0.11568884   3.87427538
H   -0.30562514   0.93500097   3.69535863
H   -0.55524457  -0.08492346   4.78592706
O    0.96092587  -2.46942908  -0.51187617
H    0.54837612  -2.14211895   0.28743768
H    1.59253176  -1.79111687  -0.75103800
O    2.37432039  -0.17236938  -1.19070143
H    3.30616570   0.02873539  -1.10437050
H    1.94765599   0.38183564  -0.53721375
O    0.86278981   1.24199006   0.57185240
H    0.45611148   0.44478049   0.91141312
H    0.22345198   1.59200840  -0.04860400
