30
Energy:   -381.84985662
O    0.14755856  -0.34735555  -2.53664843
H    0.55771389  -1.07616970  -2.07099362
H   -0.76999224  -0.37525440  -2.26543998
O    1.53329294   0.33024940   2.15406790
H    2.12598221   0.46572840   2.89338970
H    2.11207585   0.21653396   1.40020386
O   -2.57217291   1.54437668   0.60559209
H   -1.65374858   1.80438643   0.67717099
H   -3.06224407   2.35640535   0.73471042
O   -2.36550516  -0.35444607  -1.46554187
H   -2.44876201  -1.01673815  -0.77948842
H   -2.49940417   0.47821839  -1.01280264
O    0.02947373   2.18756613   0.76805571
H    0.52706546   1.60975122   1.34664385
H    0.50656256   2.16533352  -0.06147658
O    2.93300022  -0.00578621  -0.11026620
H    2.56130349  -0.81917593  -0.45154400
H    2.56276516   0.67933850  -0.66682885
O    0.12674311  -1.94034404   1.43621413
H   -0.80189345  -1.70856864   1.42412466
H    0.55969614  -1.17685670   1.81814423
O   -2.50442010  -1.14129998   1.27716904
H   -2.56634947  -0.19292256   1.16325296
H   -3.24044692  -1.36307243   1.84753151
O    1.42490652  -2.18961981  -0.91117701
H    0.93003959  -2.17419955  -0.09196959
H    1.64771031  -3.11162138  -1.03964268
O    1.43974862   1.79708257  -1.58205782
H    0.95129735   1.07704550  -1.98104882
H    1.70281800   2.34671133  -2.32025467
