30
Energy:   -384.93625022
O   -1.50064923   0.75315107  -0.09500698
H   -0.58767908   0.90139739  -0.34146261
H   -1.97516718   1.49178183  -0.47643741
O    1.14050173   1.04568092  -0.75870362
H    1.49638154   0.93241101   0.12263136
H    1.25571405   0.19178226  -1.17561493
O    0.24372025   3.29737889  -2.08053567
H    0.91302352   3.97903026  -2.02039927
H    0.64533993   2.53007255  -1.67289064
O    1.82218766   0.40375278   1.83700296
H    2.26400642   0.83161452   2.57046214
H    0.91974766   0.28857380   2.13460622
O    1.88999102  -2.23003083   0.96487888
H    1.79695661  -2.09375959   0.02200742
H    2.03482848  -1.35339596   1.32091999
O   -0.64466047  -2.74760205   1.72160134
H   -0.70389771  -3.57224811   2.20397221
H    0.28359647  -2.66311418   1.50381083
O   -2.39377580   2.97200118  -1.42415168
H   -2.92024350   3.14771935  -2.20401496
H   -1.49792138   3.18352899  -1.68670204
O   -1.35923953  -1.89994188  -0.82393818
H   -1.27167134  -2.30263920   0.04000541
H   -1.61273331  -0.99496407  -0.64231246
O   -0.75272286  -0.06543625   2.43371968
H   -0.84739675  -1.01183238   2.32600218
H   -1.19424814   0.30826297   1.67106892
O    1.17902247  -1.56783389  -1.63482810
H    1.32417425  -1.99905981  -2.47697240
H    0.25792838  -1.73505071  -1.43518828
