30
Energy:   -384.71576203
O   -0.54486573  -0.50287708  -2.73019925
H   -0.01171120  -1.20562348  -2.35854673
H   -1.24898002  -0.37409379  -2.09469175
O    1.70267526   0.96539277   1.74690088
H    2.44655556   1.37157025   2.19175343
H    2.07949690   0.57140909   0.96012635
O   -2.37283115   1.28740892   2.01197455
H   -1.79935245   1.92002528   1.57936552
H   -2.75998157   0.78500604   1.29508003
O   -2.04434573  -0.08490608  -0.46676303
H   -1.69105778  -0.85798483  -0.02657133
H   -1.43525599   0.61849745  -0.24211886
O   -0.30729922   1.96705830   0.16000659
H    0.40314540   1.71944296   0.75177253
H    0.11361930   2.05994734  -0.69464602
O    2.50027413   0.00029557  -0.63593063
H    2.08200771  -0.83558073  -0.84231826
H    2.13280714   0.61564928  -1.27039077
O   -0.88805450  -2.24810416   0.79845044
H   -1.47823217  -2.91383518   1.15161381
H   -0.66796205  -1.69897135   1.55094251
O   -0.42060464  -0.49597721   2.76240394
H    0.36985337  -0.00059537   2.54791660
H   -1.13166967   0.13960523   2.68083594
O    0.98948693  -2.25031967  -1.20210598
H    0.37508341  -2.33004517  -0.47245949
H    1.30278524  -3.14252066  -1.35060987
O    0.98307437   1.65877995  -2.27487274
H    0.42820949   0.92781528  -2.54698938
H    1.11291406   2.17148659  -3.07268562
