30
Energy:   -380.66921530
O   -0.32177699   0.81185909   2.82216298
H   -0.50815799   1.15069962   3.69776624
H   -0.65318799   1.48564851   2.22852469
O   -1.57583058  -1.45609537  -2.70851202
H   -2.45222886  -1.66641769  -3.03088203
H   -1.71664852  -0.75885983  -2.06799288
O   -1.42763121  -1.26671119   1.36899778
H   -0.66050153  -1.80414013   1.17173136
H   -1.11474703  -0.62769046   2.00930071
O   -1.60238136   0.40558413  -0.74086875
H   -0.66575763   0.56893375  -0.85170526
H   -1.65391606  -0.20786192  -0.00788856
O   -1.26095987   2.54180182   0.98806040
H   -0.57096791   3.00653529   0.51459896
H   -1.62090518   1.92883300   0.34701403
O    0.87970106   3.38227548  -0.52594013
H    1.75187933   3.75819998  -0.40670222
H    1.04266589   2.49137614  -0.83573470
O    1.11525375   0.67051035  -1.01119421
H    1.47296704   0.47454026  -0.14524457
H    1.22218289  -0.14267966  -1.50467169
O    1.91589078  -0.06348660   1.45142339
H    1.68657612  -0.98321498   1.31820798
H    1.23520155   0.27144832   2.03512933
O    1.01545884  -1.90670188  -2.06919346
H    0.10341640  -1.82947898  -2.34927750
H    1.48486930  -2.18705110  -2.85487150
O    0.92743967  -2.52660039   0.62243831
H    0.98072967  -2.39728476  -0.32448803
H    1.15420742  -3.44747687   0.75203286
