30
Energy:   -383.56003324
O    0.09210479  -0.81570638  -1.61048343
H   -0.84554139  -0.85155762  -1.42136392
H    0.48478971  -1.43545488  -0.99571340
O    1.58346827   0.00276850   1.97541245
H    1.34934904   0.57901746   1.24784309
H    2.43857785   0.31928999   2.26667450
O   -1.02025688  -0.19962361   2.92988111
H   -0.07935218  -0.10824027   2.77961702
H   -1.41794723   0.47374494   2.37793091
O    1.99037681   2.73058583  -2.07125720
H    1.90242259   1.97898351  -2.65742259
H    2.07753896   3.48272190  -2.65685598
O    0.59633426   1.40484872  -0.14188452
H    1.09567666   1.98768211  -0.71389348
H    0.41983726   0.63342451  -0.68038738
O   -2.40465124  -0.79288751  -0.53384221
H   -2.25714088  -1.46200863   0.13455099
H   -2.41246747   0.03262697  -0.04938727
O   -1.90586161   1.52227752   0.93612704
H   -1.04212005   1.62635437   0.53693989
H   -2.30832402   2.38795775   0.86645926
O    1.53024251   0.48438722  -3.56044690
H    0.98925255  -0.03447373  -2.96517803
H    1.86113646  -0.14876955  -4.19751326
O    0.97829334  -2.27751164   0.49598768
H    0.12389083  -2.50634449   0.86186161
H    1.31495051  -1.59756830   1.07957216
O   -1.58585364  -2.43788198   1.55135661
H   -1.43367846  -1.69149754   2.13099860
H   -2.03542975  -3.08032808   2.10033399
