30
Energy:   -382.40193123
O   -0.86583519  -0.84198464   2.11075931
H   -0.31361377  -0.07403600   1.96400022
H   -1.00488910  -0.86016977   3.05763056
O    0.37123221  -2.63371843   0.40369352
H   -0.06301389  -2.11185509   1.07846817
H   -0.01784846  -2.33490370  -0.41822973
O   -0.50171793   2.78598668  -0.43031520
H   -1.43546492   2.57542034  -0.42711685
H   -0.46959138   3.73233781  -0.57038395
O   -2.63343387  -0.54978584   0.00245777
H   -2.12551979  -0.68137226   0.80304515
H   -2.08035510  -0.90442052  -0.69365282
O    0.68839122   1.29692964   1.58096227
H    1.48927367   1.02876712   1.13050915
H    0.25271050   1.88640404   0.96538605
O    3.02721320  -2.18863249   0.41750200
H    2.09401374  -2.40160617   0.42108325
H    3.46552224  -3.02825975   0.55586056
O    2.82272345   0.48027369   0.01361208
H    2.93947657  -0.45888289   0.15708849
H    3.71274428   0.83162021  -0.01189083
O   -0.74717765  -1.42794595  -1.82116355
H   -0.19784877  -0.64572605  -1.87216981
H   -0.83027504  -1.72240264  -2.72814863
O    0.79182300   0.78611869  -1.84670630
H    1.56235249   0.66786378  -1.29124980
H    0.32578798   1.52549881  -1.45637278
O   -3.11200435   2.06931078  -0.40229558
H   -4.06024020   2.19134107  -0.44908474
H   -2.99772834   1.12984575  -0.25884419
