30
Energy:   -381.08527934
O    0.27221656  -1.75718467  -2.50891572
H    0.63328359  -2.15466739  -1.71653328
H   -0.65072754  -1.60815164  -2.30350106
O    1.29194320   1.64572356   2.23137822
H    1.99653972   1.72918129   2.87388145
H    1.65773908   1.08751817   1.54520625
O   -1.16497329   1.45100468  -0.71149567
H   -0.39457480   1.27618154  -1.25200921
H   -0.97337419   2.28536024  -0.28327558
O   -2.14823248  -1.08573586  -1.44396742
H   -2.02742837  -1.52201489  -0.60058209
H   -2.02937019  -0.15551226  -1.25216631
O   -0.28314470   3.49157957   0.88000584
H    0.33248365   2.94656938   1.37010528
H   -0.77794418   3.95921364   1.55285329
O    2.16659908   0.00700224   0.27927650
H    1.88678814  -0.90818568   0.26007333
H    1.92057138   0.35124293  -0.57932735
O   -1.44962362  -2.21120565   1.00789808
H   -2.15296914  -2.60910787   1.52093877
H   -1.33961158  -1.33928078   1.38720827
O   -1.11487549   0.32499054   1.79316576
H   -0.31330615   0.71247562   2.14469634
H   -1.22189185   0.73303562   0.93393438
O    1.08874014  -2.55156355   0.02391545
H    0.21456123  -2.50929027   0.41154419
H    1.41094838  -3.42330314   0.25300884
O    1.08199483   0.76740742  -2.14685162
H    0.83121568  -0.12665679  -2.37921095
H    1.39804709   1.14858699  -2.96602495
