30
Energy:   -381.98461000
O   -0.05884117   0.09427629  -2.06520361
H    0.15149980  -0.58454412  -1.42396154
H   -0.77375259   0.58921397  -1.66499093
O    1.16587888   0.65708452   2.50937078
H    1.71822872   0.96900669   3.22620136
H    1.78242412   0.30816054   1.86566598
O   -1.91796103   1.56609664  -0.65737644
H   -1.21550325   1.95183626  -0.13393604
H   -2.48383612   2.30493085  -0.88129883
O   -1.55704388  -2.45527476  -1.89371078
H   -2.11141310  -2.04202634  -1.23179511
H   -1.32873799  -1.74477560  -2.49312651
O    0.26573140   2.48210896   0.62992301
H    0.53745002   1.93568677   1.36736700
H    0.95402275   2.36183117  -0.02430945
O    2.68750963  -0.29607379   0.51609371
H    2.15035043  -1.01318333   0.17927663
H    2.64386406   0.37629124  -0.16379759
O   -0.71249213  -1.30608121   2.09295938
H   -0.13160281  -0.58840127   2.34541721
H   -0.77232600  -1.85321485   2.87609189
O   -2.67280998  -0.97083937   0.13803879
H   -2.12337362  -1.09494478   0.91195699
H   -2.55052817  -0.05133030  -0.09814351
O    0.55945509  -1.90998950  -0.27538657
H    0.11123276  -1.79965434   0.56315665
H   -0.07049412  -2.37656090  -0.82466515
O    2.03208157   1.64240759  -1.35246281
H    1.32871344   1.12018437  -1.73819334
H    2.50612249   1.99878047  -2.10380523
