30
Energy:   -389.05625021
O   -1.28058373  -2.21195182  -0.67369789
H   -1.89304853  -1.48352587  -0.57115840
H   -0.86512904  -2.29876775   0.18426029
O    2.38536078   1.40354876   0.12949880
H    3.10455099   2.01878208   0.27262551
H    1.66535793   1.74907464   0.65717257
O   -2.79865180   0.01040025  -0.06673684
H   -3.73657028   0.02327720   0.12398532
H   -2.37845104   0.06298864   0.79169058
O    2.23760663  -1.35730357   0.16193980
H    1.89715034  -1.51265333  -0.71907542
H    2.39997374  -0.41450954   0.19369183
O    0.15196562   2.32545530   1.42193118
H   -0.06957906   3.13280135   1.88598091
H   -0.37743541   2.35373752   0.62495783
O   -1.29293021   2.20481151  -0.82424090
H   -1.89496643   1.46936398  -0.71065758
H   -0.63196961   1.88154077  -1.43649816
O    0.15583792  -2.08862310   1.69726211
H    0.94418409  -1.83751631   1.21592277
H    0.43978153  -2.80397589   2.26636514
O   -1.37305632   0.15372111   2.20961295
H   -0.78034886   0.88955275   2.05637617
H   -0.81338099  -0.62082485   2.15416986
O    0.83667729   1.15008054  -2.16296555
H    1.48271512   1.27821490  -1.46838039
H    0.82109255   0.20354249  -2.30458012
O    0.84051307  -1.61421571  -2.21707456
H    0.85589045  -2.20379377  -2.97099306
H    0.04239606  -1.85008486  -1.74420371
