30
Energy:   -380.49306090
O    0.74585557  -2.00456441  -2.17617902
H    1.05210619  -2.46071672  -2.95999498
H    1.32388464  -1.24551402  -2.09899900
O    2.76404398  -0.43984856   0.98104953
H    3.58360165  -0.73209347   1.37998560
H    2.24868970  -1.23984997   0.87790131
O   -3.30582725   0.48681297   0.77083596
H   -2.89023323   1.34424908   0.86203227
H   -3.21855843   0.27546393  -0.15865185
O   -1.44304367  -0.55890949  -1.28425571
H   -0.84308182  -1.12818272  -1.76613289
H   -1.35097746  -0.83120835  -0.37123381
O    0.53152734   1.12095274   1.47536349
H    1.38530040   0.69175372   1.53096576
H    0.43490597   1.34403263   0.54954952
O   -0.05089008   1.75256893  -1.09165003
H   -0.66620527   2.40748308  -0.76194332
H   -0.59345890   0.98676638  -1.27979196
O   -1.11841240  -1.06040715   1.37820851
H   -1.99931853  -0.69013327   1.43418613
H   -0.53616078  -0.32359273   1.56346343
O   -1.71514265   2.75106600   1.06442183
H   -0.97891172   2.33324914   1.51121588
H   -1.93575613   3.50175419   1.61580988
O    1.11721281  -2.52234473   0.53615595
H    0.27757518  -2.26548781   0.91729243
H    0.96135503  -2.52478134  -0.40826676
O    2.22046960   0.19738898  -1.68077609
H    2.55034162   0.07369943  -0.79076643
H    1.58792114   0.91180802  -1.60514720
