30
Energy:   -380.96049786
O   -1.93751990   1.20148037   0.85618377
H   -2.69608556   1.39749937   1.40608060
H   -2.27710087   0.61724077   0.17825996
O   -1.20066045  -2.64090463  -0.29719204
H   -0.32391734  -2.36847612  -0.56799838
H   -1.14606593  -2.71253947   0.65576112
O    3.33206548   0.35234358  -0.95240627
H    2.65819056  -0.32705693  -0.92918173
H    3.54052713   0.45193931  -1.88130685
O    0.39781747  -0.02008008   1.61667064
H    1.05275557   0.67425496   1.54465129
H   -0.43382786   0.41374740   1.42590481
O   -0.72892479  -2.41588971   2.40290692
H   -0.27688160  -1.58028967   2.28602506
H   -0.15575460  -2.92009825   2.98038551
O    1.11297734  -1.20856684  -0.75327796
H    0.65515238  -0.65308786  -1.38420684
H    0.88386718  -0.84126857   0.10043883
O   -0.09063092   2.62882955  -0.66335486
H   -0.78672766   2.31582916  -0.08567680
H    0.71046240   2.53112732  -0.14863589
O   -0.30907130   0.45903568  -2.30784917
H   -1.19245467   0.17412421  -2.07398785
H   -0.20956185   1.30890863  -1.87884369
O   -2.63930782  -0.53701713  -1.14292333
H   -2.19915097  -1.33479644  -0.84959424
H   -3.38116774  -0.84892998  -1.66117625
O    2.14961156   1.97640693   0.85799039
H    2.79968557   2.55586442   1.25531223
H    2.64454316   1.46196439   0.22032008
