30
Energy:   -385.06479981
O   -0.56870185   0.10219788  -3.86003611
H   -0.15387122  -0.27182413  -3.08269775
H   -0.72944131  -0.64892644  -4.43118139
O    2.56004928   0.12001680   0.02382947
H    2.07420310   0.84353732   0.41968725
H    3.42117032   0.48860211  -0.17326763
O   -0.36036643  -2.57075613   0.52926745
H    0.38182243  -2.33271213   1.08489557
H   -0.45016607  -3.51713407   0.64123466
O    1.67520186  -1.61711622   1.99877733
H    2.14597249  -1.07824936   1.36298699
H    1.25114119  -0.98639144   2.58066275
O   -2.07732441   2.11442978  -2.78264134
H   -1.95438539   2.89969961  -3.31599782
H   -1.59950688   1.42944707  -3.25031745
O   -1.13801502   1.16323121  -0.39545364
H   -1.57709422   1.60015801  -1.12520447
H   -0.61673942   0.47393965  -0.80701258
O    0.14060901   0.32175703   3.25804777
H   -0.63614470   0.03765384   2.77620661
H   -0.17973817   0.51007707   4.14017310
O    0.98047331   1.95403972   1.17974584
H    0.72719182   1.53746581   2.00348519
H    0.19984761   1.89169035   0.62932061
O    0.42323107  -0.81871937  -1.45322630
H    1.25377169  -0.53635067  -1.07020927
H    0.12684000  -1.53027190  -0.88570786
O   -1.85926291  -0.51984029   1.67002054
H   -1.82770955   0.12528256   0.96358389
H   -1.51068193  -1.32103423   1.27910952
