30
Energy:   -382.80350705
O    0.14953693  -0.25199121  -2.65087497
H    0.53955831  -1.05766911  -2.31176100
H   -0.75657698  -0.27604600  -2.34328629
O    1.43980523   1.41690161   2.64315441
H    0.75063082   0.82708694   2.94875077
H    1.95956101   0.88625069   2.03941988
O   -2.09662764   1.28814795   0.77381974
H   -1.37790071   1.91666599   0.70578648
H   -2.83663431   1.80360419   1.09464189
O   -2.22651240  -0.50663912  -1.33629914
H   -2.03341635  -1.30746580  -0.84883386
H   -2.27343286   0.17620537  -0.66715512
O    0.08504286   2.83806538   0.71344841
H    0.60953494   2.51506663   1.44612277
H    0.58213589   2.58902029  -0.06572224
O    1.85910781  -0.28490607   0.41587619
H    1.79324865  -1.07943581  -0.11385667
H    1.82990300   0.43032262  -0.21959753
O   -1.26112419  -2.61931769   0.21969005
H   -1.81796575  -3.25506195   0.66912143
H   -1.01317099  -1.99385205   0.90053056
O   -0.46305759  -0.63394185   1.85335910
H    0.34198946  -0.47492354   1.36056678
H   -1.06568755   0.04719289   1.55482193
O    1.09965327  -2.42846064  -1.18564604
H    0.27529499  -2.62198944  -0.73931446
H    1.41903192  -3.28135823  -1.48025566
O    1.47402263   1.73129974  -1.41155018
H    0.96455187   1.11249450  -1.93476282
H    2.01681767   2.19485970  -2.04929429
