30
Energy:   -381.50666392
O   -1.90658220   2.32157011  -0.01214785
H   -1.00024224   2.24747470  -0.31096149
H   -2.10939062   3.25381827  -0.08969759
O    0.99199663  -0.07640646  -2.55760623
H    0.27637689  -0.64168344  -2.26677609
H    1.02377198  -0.19843475  -3.50646411
O    0.69947288  -2.51950105   0.53981126
H    1.45238300  -2.08445845   0.13969109
H    1.00239674  -3.41038319   0.71530483
O   -2.96220648  -0.20478990  -0.42906890
H   -3.85924340  -0.13966509  -0.75665915
H   -2.65409267   0.70068733  -0.39153625
O   -1.91884232   0.47887503   2.12399365
H   -2.38768710  -0.09931430   1.52223496
H   -1.83852474   1.30579860   1.64862187
O    2.66452260  -1.07682099  -0.59680360
H    2.71844922  -0.32576432  -0.00584028
H    2.22368446  -0.73796058  -1.37594877
O    0.59657839  -0.52513866   2.45234067
H    0.55665205  -1.29850456   1.88971919
H   -0.29754287  -0.18341519   2.45436240
O    2.32691569   1.04944522   1.13930656
H    1.71855573   0.53651842   1.67131794
H    2.93056346   1.43802168   1.77243335
O    0.64281181   2.04637955  -0.81658943
H    0.77922482   1.39317700  -1.50284722
H    1.26269140   1.80456802  -0.12847002
O   -0.91565538  -1.67312186  -1.53910373
H   -1.66938724  -1.22067762  -1.16040287
H   -0.46724422  -2.06227060  -0.78828915
