30
Energy:   -382.50047354
O    1.56072939  -0.00360947  -1.82488839
H    1.53792617  -0.84355279  -1.36640493
H    0.70769847   0.05843700  -2.25467943
O   -0.35325061  -0.46406106   2.91507258
H   -0.32495069  -0.50888780   3.87080347
H    0.56586325  -0.45643909   2.64785831
O   -1.84063503   2.54891220  -1.44046659
H   -2.70555540   2.94124843  -1.32123201
H   -1.58630350   2.25794879  -0.56474539
O   -0.97254545   0.39404310  -2.86718165
H   -1.26490450   1.21339763  -2.46791209
H   -1.22554472   0.47166727  -3.78707170
O   -0.92731269   1.35211147   0.88623174
H   -0.88045569   0.83566019   1.69079022
H   -0.01518852   1.55251632   0.67623356
O    2.13062894  -0.42876641   1.88480633
H    2.14512234   0.38992407   1.38905671
H    2.08922038  -1.11310889   1.21682987
O   -0.80922069  -2.50566387   1.07320034
H   -0.75104235  -1.92419990   1.83132090
H   -1.36664385  -2.03601863   0.45276129
O   -2.04464358  -0.73071159  -0.57098413
H   -1.73509196   0.00334235  -0.04034824
H   -1.76108615  -0.52011588  -1.46063377
O    1.56243335  -2.22379846  -0.15188859
H    0.70560058  -2.38810665   0.24190357
H    1.92659181  -3.09540605  -0.30655167
O    1.70669273   1.73190351   0.20788348
H    1.70971977   1.16828011  -0.56577753
H    2.20911692   2.50305813  -0.05502777
