
                                 *****************
                                 * O   R   C   A *
                                 *****************

           --- An Ab Initio, DFT and Semiempirical electronic structure package ---

                  #######################################################
                  #                        -***-                        #
                  #          Department of theory and spectroscopy      #
                  #               Directorship: Frank Neese             #
                  #        Max Planck Institute fuer Kohlenforschung    #
                  #                Kaiser Wilhelm Platz 1               #
                  #                 D-45470 Muelheim/Ruhr               #
                  #                      Germany                        #
                  #                                                     #
                  #                  All rights reserved                #
                  #                        -***-                        #
                  #######################################################


                         Program Version 4.2.0 -  RELEASE  -


 With contributions from (in alphabetic order):
   Daniel Aravena         : Magnetic Suceptibility
   Michael Atanasov       : Ab Initio Ligand Field Theory (pilot matlab implementation)
   Alexander A. Auer      : GIAO ZORA, VPT2
   Ute Becker             : Parallelization
   Giovanni Bistoni       : ED, misc. LED, open-shell LED, HFLED
   Martin Brehm           : Molecular dynamics
   Dmytro Bykov           : SCF Hessian
   Vijay G. Chilkuri      : MRCI spin determinant printing, contributions to CSF-ICE
   Dipayan Datta          : RHF DLPNO-CCSD density
   Achintya Kumar Dutta   : EOM-CC, STEOM-CC
   Dmitry Ganyushin       : Spin-Orbit,Spin-Spin,Magnetic field MRCI
   Miquel Garcia          : C-PCM Hessian, Gaussian charge scheme
   Yang Guo               : DLPNO-NEVPT2, CIM, IAO-localization
   Andreas Hansen         : Spin unrestricted coupled pair/coupled cluster methods
   Benjamin Helmich-Paris : CASSCF linear response (MC-RPA)
   Lee Huntington         : MR-EOM, pCC
   Robert Izsak           : Overlap fitted RIJCOSX, COSX-SCS-MP3, EOM
   Christian Kollmar      : KDIIS, OOCD, Brueckner-CCSD(T), CCSD density
   Simone Kossmann        : Meta GGA functionals, TD-DFT gradient, OOMP2, MP2 Hessian
   Martin Krupicka        : AUTO-CI
   Lucas Lang             : DCDCAS
   Dagmar Lenk            : GEPOL surface, SMD
   Dimitrios Liakos       : Extrapolation schemes; Compound Job, initial MDCI parallelization
   Dimitrios Manganas     : Further ROCIS development; embedding schemes
   Dimitrios Pantazis     : SARC Basis sets
   Taras Petrenko         : DFT Hessian,TD-DFT gradient, ASA, ECA, R-Raman, ABS, FL, XAS/XES, NRVS
   Peter Pinski           : DLPNO-MP2, DLPNO-MP2 Gradient
   Christoph Reimann      : Effective Core Potentials
   Marius Retegan         : Local ZFS, SOC
   Christoph Riplinger    : Optimizer, TS searches, QM/MM, DLPNO-CCSD(T), (RO)-DLPNO pert. Triples
   Tobias Risthaus        : Range-separated hybrids, TD-DFT gradient, RPA, STAB
   Michael Roemelt        : Original ROCIS implementation
   Masaaki Saitow         : Open-shell DLPNO-CCSD energy and density
   Barbara Sandhoefer     : DKH picture change effects
   Avijit Sen             : IP-ROCIS
   Kantharuban Sivalingam : CASSCF convergence, NEVPT2, FIC-MRCI
   Bernardo de Souza      : ESD, SOC TD-DFT
   Georgi Stoychev        : AutoAux, RI-MP2 NMR
   Willem Van den Heuvel  : Paramagnetic NMR
   Boris Wezisla          : Elementary symmetry handling
   Frank Wennmohs         : Technical directorship


 We gratefully acknowledge several colleagues who have allowed us to
 interface, adapt or use parts of their codes:
   Stefan Grimme, W. Hujo, H. Kruse,             : VdW corrections, initial TS optimization,
                  C. Bannwarth                     DFT functionals, gCP, sTDA/sTD-DF
   Ed Valeev, F. Pavosevic, A. Kumar             : LibInt (2-el integral package), F12 methods
   Garnet Chan, S. Sharma, J. Yang, R. Olivares  : DMRG
   Ulf Ekstrom                                   : XCFun DFT Library
   Mihaly Kallay                                 : mrcc  (arbitrary order and MRCC methods)
   Andreas Klamt, Michael Diedenhofen            : otool_cosmo (COSMO solvation model)
   Jiri Pittner, Ondrej Demel                    : Mk-CCSD
   Frank Weinhold                                : gennbo (NPA and NBO analysis)
   Christopher J. Cramer and Donald G. Truhlar   : smd solvation model
   Lars Goerigk                                  : TD-DFT with DH, B97 family of functionals
   V. Asgeirsson, H. Jonsson                     : NEB implementation
   FAccTs GmbH                                   : IRC, NEB, NEB-TS, Multilevel, MM, QM/MM, CI optimization
   S Lehtola, MJT Oliveira, MAL Marques          : LibXC Library


 Your calculation uses the libint2 library for the computation of 2-el integrals
 For citations please refer to: http://libint.valeyev.net

 Your ORCA version has been built with support for libXC version: 4.2.3
 For citations please refer to: https://tddft.org/programs/libxc/

 This ORCA versions uses:
   CBLAS   interface :  Fast vector & matrix operations
   LAPACKE interface :  Fast linear algebra routines
   SCALAPACK package :  Parallel linear algebra routines


----- Orbital basis set information -----
Your calculation utilizes the basis: def2-TZVP
   F. Weigend and R. Ahlrichs, Phys. Chem. Chem. Phys. 7, 3297 (2005).

================================================================================
                                        WARNINGS
                       Please study these warnings very carefully!
================================================================================


WARNING: The frozen-core approximation for MP2-gradient calculations is turned on by default.

INFO   : the flag for use of LIBINT has been found!

================================================================================
                                       INPUT FILE
================================================================================
NAME = 12h2o.su.etal.mol1,4,6,7,9,11-orca.engrad-mp2.def2tzvp.frozencore.inp
|  1> # 12h2o.su.etal.mol1,4,6,7,9,11
|  2> ! MP2 def2-TZVP EnGrad TightSCF
|  3> 
|  4> %pal
|  5>     nprocs 6
|  6> end
|  7> 
|  8> %maxcore 8000
|  9> 
| 10> %scf
| 11>     ConvForced true
| 12> end
| 13> 
| 14> *xyz 0 1
| 15> O  -1.794470000  -0.923410000   2.768350000
| 16> H  -2.338250000  -1.359750000   3.430940000
| 17> H  -0.879480000  -1.303000000   2.865760000
| 18> O  -0.885520000   1.737840000   0.052730000
| 19> H  -1.032320000   2.090180000  -0.841890000
| 20> H  -1.284090000   0.839590000   0.017130000
| 21> O   1.737840000   0.885520000  -0.052730000
| 22> H   2.090180000   1.032320000   0.841890000
| 23> H   0.839590000   1.284090000  -0.017130000
| 24> O  -1.737840000  -0.885520000  -0.052730000
| 25> H  -2.090180000  -1.032320000   0.841890000
| 26> H  -0.839590000  -1.284090000  -0.017130000
| 27> O   0.741530000  -1.752130000   2.896280000
| 28> H   0.920500000  -2.036450000   1.984040000
| 29> H   1.242140000  -0.921210000   2.984230000
| 30> O  -0.741530000   1.752130000   2.896280000
| 31> H  -0.920500000   2.036450000   1.984040000
| 32> H  -1.242140000   0.921210000   2.984230000
| 33> *
| 34> 
| 35>                          ****END OF INPUT****
================================================================================

                     *******************************
                     * Energy+Gradient Calculation *
                     *******************************

---------------------------------
CARTESIAN COORDINATES (ANGSTROEM)
---------------------------------
  O     -1.794470   -0.923410    2.768350
  H     -2.338250   -1.359750    3.430940
  H     -0.879480   -1.303000    2.865760
  O     -0.885520    1.737840    0.052730
  H     -1.032320    2.090180   -0.841890
  H     -1.284090    0.839590    0.017130
  O      1.737840    0.885520   -0.052730
  H      2.090180    1.032320    0.841890
  H      0.839590    1.284090   -0.017130
  O     -1.737840   -0.885520   -0.052730
  H     -2.090180   -1.032320    0.841890
  H     -0.839590   -1.284090   -0.017130
  O      0.741530   -1.752130    2.896280
  H      0.920500   -2.036450    1.984040
  H      1.242140   -0.921210    2.984230
  O     -0.741530    1.752130    2.896280
  H     -0.920500    2.036450    1.984040
  H     -1.242140    0.921210    2.984230

----------------------------
CARTESIAN COORDINATES (A.U.)
----------------------------
  NO LB      ZA    FRAG     MASS         X           Y           Z
   0 O     8.0000    0    15.999   -3.391057   -1.744992    5.231423
   1 H     1.0000    0     1.008   -4.418652   -2.569555    6.483537
   2 H     1.0000    0     1.008   -1.661976   -2.462313    5.415502
   3 O     8.0000    0    15.999   -1.673390    3.284042    0.099645
   4 H     1.0000    0     1.008   -1.950802    3.949868   -1.590942
   5 H     1.0000    0     1.008   -2.426578    1.586595    0.032371
   6 O     8.0000    0    15.999    3.284042    1.673390   -0.099645
   7 H     1.0000    0     1.008    3.949868    1.950802    1.590942
   8 H     1.0000    0     1.008    1.586595    2.426578   -0.032371
   9 O     8.0000    0    15.999   -3.284042   -1.673390   -0.099645
  10 H     1.0000    0     1.008   -3.949868   -1.950802    1.590942
  11 H     1.0000    0     1.008   -1.586595   -2.426578   -0.032371
  12 O     8.0000    0    15.999    1.401289   -3.311046    5.473176
  13 H     1.0000    0     1.008    1.739493   -3.848333    3.749292
  14 H     1.0000    0     1.008    2.347304   -1.740835    5.639377
  15 O     8.0000    0    15.999   -1.401289    3.311046    5.473176
  16 H     1.0000    0     1.008   -1.739493    3.848333    3.749292
  17 H     1.0000    0     1.008   -2.347304    1.740835    5.639377

--------------------------------
INTERNAL COORDINATES (ANGSTROEM)
--------------------------------
 O      0   0   0     0.000000000000     0.00000000     0.00000000
 H      1   0   0     0.961828878803     0.00000000     0.00000000
 H      1   2   0     0.995381322057   106.21731035     0.00000000
 O      1   2   3     3.909352075396   156.75189195   192.19368952
 H      4   1   2     0.972645187106   148.25827701   289.33301105
 H      4   1   2     0.983350632989    46.29716176   266.74328444
 O      4   1   2     2.760360281485    92.13838953   170.70547830
 H      7   4   1     0.972645187106   105.22009255   298.61152741
 H      7   4   1     0.983350632989     5.92595386   222.96568013
 O      6   4   1     1.785153773264   170.81379649   273.82543867
 H     10   6   4     0.972645187106   101.65007623   109.44492584
 H     10   6   4     0.983350632989    99.09581498     3.33484705
 O      3   1   2     1.682356278379   171.61043709   195.73896161
 H     13   3   1     0.972136791249   103.79460456   289.35412162
 H     13   3   1     0.974050112161   105.61118924    38.30604821
 O      4   1   2     2.847229166523    47.26764468    83.33509555
 H     16   4   1     0.972136791249    19.08819947   225.99629915
 H     16   4   1     0.974050112161    93.43428486   350.09257904

---------------------------
INTERNAL COORDINATES (A.U.)
---------------------------
 O      0   0   0     0.000000000000     0.00000000     0.00000000
 H      1   0   0     1.817593168635     0.00000000     0.00000000
 H      1   2   0     1.880998097508   106.21731035     0.00000000
 O      1   2   3     7.387604783574   156.75189195   192.19368952
 H      4   1   2     1.838033029106   148.25827701   289.33301105
 H      4   1   2     1.858263389967    46.29716176   266.74328444
 O      4   1   2     5.216324962960    92.13838953   170.70547830
 H      7   4   1     1.838033029106   105.22009255   298.61152741
 H      7   4   1     1.858263389967     5.92595386   222.96568013
 O      6   4   1     3.373451738406   170.81379649   273.82543867
 H     10   6   4     1.838033029106   101.65007623   109.44492584
 H     10   6   4     1.858263389967    99.09581498     3.33484705
 O      3   1   2     3.179192625819   171.61043709   195.73896161
 H     13   3   1     1.837072300170   103.79460456   289.35412162
 H     13   3   1     1.840687952699   105.61118924    38.30604821
 O      4   1   2     5.380483365242    47.26764468    83.33509555
 H     16   4   1     1.837072300170    19.08819947   225.99629915
 H     16   4   1     1.840687952699    93.43428486   350.09257904

---------------------
BASIS SET INFORMATION
---------------------
There are 2 groups of distinct atoms

 Group   1 Type O   : 11s6p2d1f contracted to 5s3p2d1f pattern {62111/411/11/1}
 Group   2 Type H   : 5s1p contracted to 3s1p pattern {311/1}

Atom   0O    basis set group =>   1
Atom   1H    basis set group =>   2
Atom   2H    basis set group =>   2
Atom   3O    basis set group =>   1
Atom   4H    basis set group =>   2
Atom   5H    basis set group =>   2
Atom   6O    basis set group =>   1
Atom   7H    basis set group =>   2
Atom   8H    basis set group =>   2
Atom   9O    basis set group =>   1
Atom  10H    basis set group =>   2
Atom  11H    basis set group =>   2
Atom  12O    basis set group =>   1
Atom  13H    basis set group =>   2
Atom  14H    basis set group =>   2
Atom  15O    basis set group =>   1
Atom  16H    basis set group =>   2
Atom  17H    basis set group =>   2


           ************************************************************
           *        Program running with 6 parallel MPI-processes     *
           *              working on a common directory               *
           ************************************************************
------------------------------------------------------------------------------
                           ORCA GTO INTEGRAL CALCULATION
------------------------------------------------------------------------------

                         BASIS SET STATISTICS AND STARTUP INFO

 # of primitive gaussian shells          ...  192
 # of primitive gaussian functions       ...  372
 # of contracted shells                  ...  114
 # of contracted basis functions         ...  258
 Highest angular momentum                ...    3
 Maximum contraction depth               ...    6
 Integral package used                   ... LIBINT
 Integral threshhold            Thresh   ...  2.500e-11
 Primitive cut-off              TCut     ...  2.500e-12


------------------------------ INTEGRAL EVALUATION ----------------------------


 * One electron integrals 
 Pre-screening matrix                    ... done
 Shell pair data                         ... done (   0.001 sec)



           ************************************************************
           *        Program running with 6 parallel MPI-processes     *
           *              working on a common directory               *
           ************************************************************
-------------------------------------------------------------------------------
                                 ORCA SCF
-------------------------------------------------------------------------------

------------
SCF SETTINGS
------------
Hamiltonian:
 Ab initio Hamiltonian  Method          .... Hartree-Fock(GTOs)


General Settings:
 Integral files         IntName         .... 12h2o.su.etal.mol1,4,6,7,9,11-orca.engrad-mp2.def2tzvp.frozencore
 Hartree-Fock type      HFTyp           .... RHF
 Total Charge           Charge          ....    0
 Multiplicity           Mult            ....    1
 Number of Electrons    NEL             ....   60
 Basis Dimension        Dim             ....  258
 Nuclear Repulsion      ENuc            ....    286.8082557647 Eh

Convergence Acceleration:
 DIIS                   CNVDIIS         .... on
   Start iteration      DIISMaxIt       ....    12
   Startup error        DIISStart       ....  0.200000
   # of expansion vecs  DIISMaxEq       ....     5
   Bias factor          DIISBfac        ....   1.050
   Max. coefficient     DIISMaxC        ....  10.000
 Newton-Raphson         CNVNR           .... off
 SOSCF                  CNVSOSCF        .... on
   Start iteration      SOSCFMaxIt      ....   150
   Startup grad/error   SOSCFStart      ....  0.003300
 Level Shifting         CNVShift        .... on
   Level shift para.    LevelShift      ....    0.2500
   Turn off err/grad.   ShiftErr        ....    0.0010
 Zerner damping         CNVZerner       .... off
 Static damping         CNVDamp         .... on
   Fraction old density DampFac         ....    0.7000
   Max. Damping (<1)    DampMax         ....    0.9800
   Min. Damping (>=0)   DampMin         ....    0.0000
   Turn off err/grad.   DampErr         ....    0.1000
 Fernandez-Rico         CNVRico         .... off

SCF Procedure:
 Maximum # iterations   MaxIter         ....   125
 SCF integral mode      SCFMode         .... Direct
   Integral package                     .... LIBINT
 Reset frequency        DirectResetFreq ....    20
 Integral Threshold     Thresh          ....  2.500e-11 Eh
 Primitive CutOff       TCut            ....  2.500e-12 Eh

Convergence Tolerance:
 Convergence Check Mode ConvCheckMode   .... Total+1el-Energy
 Convergence forced     ConvForced      .... 1
 Energy Change          TolE            ....  1.000e-08 Eh
 1-El. energy change                    ....  1.000e-05 Eh
 Orbital Gradient       TolG            ....  1.000e-05
 Orbital Rotation angle TolX            ....  1.000e-05
 DIIS Error             TolErr          ....  5.000e-07


Diagonalization of the overlap matrix:
Smallest eigenvalue                        ... 3.595e-03
Time for diagonalization                   ...    0.014 sec
Threshold for overlap eigenvalues          ... 1.000e-08
Number of eigenvalues below threshold      ... 0
Time for construction of square roots      ...    0.009 sec
Total time needed                          ...    0.023 sec

-------------------
DFT GRID GENERATION
-------------------

General Integration Accuracy     IntAcc      ...  4.340
Radial Grid Type                 RadialGrid  ... Gauss-Chebyshev
Angular Grid (max. acc.)         AngularGrid ... Lebedev-110
Angular grid pruning method      GridPruning ... 3 (G Style)
Weight generation scheme         WeightScheme... Becke
Basis function cutoff            BFCut       ...    1.0000e-11
Integration weight cutoff        WCut        ...    1.0000e-14
Grids for H and He will be reduced by one unit

# of grid points (after initial pruning)     ...  19824 (   0.0 sec)
# of grid points (after weights+screening)   ...  18581 (   0.0 sec)
nearest neighbour list constructed           ...    0.0 sec
Grid point re-assignment to atoms done       ...    0.0 sec
Grid point division into batches done        ...    0.0 sec
Reduced shell lists constructed in    0.0 sec

Total number of grid points                  ...    18581
Total number of batches                      ...      300
Average number of points per batch           ...       61
Average number of grid points per atom       ...     1032
Average number of shells per batch           ...    65.76 (57.69%)
Average number of basis functions per batch  ...   136.94 (53.08%)
Average number of large shells per batch     ...    48.57 (73.85%)
Average number of large basis fcns per batch ...    97.08 (70.89%)
Maximum spatial batch extension              ...  12.83, 16.09, 11.77 au
Average spatial batch extension              ...   0.49,  0.55,  0.47 au

Time for grid setup =    0.055 sec

------------------------------
INITIAL GUESS: MODEL POTENTIAL
------------------------------
Loading Hartree-Fock densities                     ... done
Calculating cut-offs                               ... done
Setting up the integral package                    ... done
Initializing the effective Hamiltonian             ... done
Starting the Coulomb interaction                   ... done (   0.0 sec)
Reading the grid                                   ... done
Mapping shells                                     ... done
Starting the XC term evaluation                    ... done (   0.0 sec)
Transforming the Hamiltonian                       ... done (   0.0 sec)
Diagonalizing the Hamiltonian                      ... done (   0.0 sec)
Back transforming the eigenvectors                 ... done (   0.0 sec)
Now organizing SCF variables                       ... done
                      ------------------
                      INITIAL GUESS DONE (   0.2 sec)
                      ------------------
--------------
SCF ITERATIONS
--------------
ITER       Energy         Delta-E        Max-DP      RMS-DP      [F,P]     Damp
               ***  Starting incremental Fock matrix formation  ***
  0   -455.8591585450   0.000000000000 0.04386527  0.00096280  0.3505718 0.7000
  1   -456.0630194082  -0.203860863252 0.02910411  0.00066780  0.2166426 0.7000
                               ***Turning on DIIS***
  2   -456.1712525947  -0.108233186479 0.01662609  0.00037432  0.1635594 0.7000
  3   -457.1457914407  -0.974538845959 0.00752402  0.00017274  0.1218107 0.7000
  4   -456.9486657183   0.197125722400 0.01674421  0.00040048  0.0861503 0.0000
  5   -456.4183644231   0.530301295162 0.00220509  0.00006463  0.0055787 0.0000
                      *** Initiating the SOSCF procedure ***
                           *** Shutting down DIIS ***
                      *** Re-Reading the Fockian *** 
                      *** Removing any level shift *** 
ITER      Energy       Delta-E        Grad      Rot      Max-DP    RMS-DP
  6   -456.38856596   0.0297984606  0.000919  0.000919  0.001380  0.000040
               *** Restarting incremental Fock matrix formation ***
  7   -456.38059402   0.0079719394  0.000248  0.000387  0.000661  0.000017
  8   -456.38060306  -0.0000090409  0.000137  0.000335  0.000538  0.000015
  9   -456.38060527  -0.0000022079  0.000062  0.000051  0.000103  0.000003
 10   -456.38060546  -0.0000001924  0.000010  0.000008  0.000022  0.000000
 11   -456.38060547  -0.0000000047  0.000003  0.000003  0.000006  0.000000
                  ***Gradient check signals convergence***
              ***Rediagonalizing the Fockian in SOSCF/NRSCF***

               *****************************************************
               *                     SUCCESS                       *
               *           SCF CONVERGED AFTER  12 CYCLES          *
               *****************************************************


----------------
TOTAL SCF ENERGY
----------------

Total Energy       :         -456.38060547 Eh          -12418.74763 eV

Components:
Nuclear Repulsion  :          286.80825576 Eh            7804.44941 eV
Electronic Energy  :         -743.18886123 Eh          -20223.19704 eV
One Electron Energy:        -1201.29756608 Eh          -32688.96865 eV
Two Electron Energy:          458.10870485 Eh           12465.77161 eV

Virial components:
Potential Energy   :         -912.17978581 Eh          -24821.67388 eV
Kinetic Energy     :          455.79918035 Eh           12402.92625 eV
Virial Ratio       :            2.00127562


---------------
SCF CONVERGENCE
---------------

  Last Energy change         ...    1.0630e-10  Tolerance :   1.0000e-08
  Last MAX-Density change    ...    1.3115e-06  Tolerance :   1.0000e-07
  Last RMS-Density change    ...    4.1201e-08  Tolerance :   5.0000e-09
  Last Orbital Gradient      ...    1.0392e-06  Tolerance :   1.0000e-05
  Last Orbital Rotation      ...    9.4851e-07  Tolerance :   1.0000e-05

             **** THE GBW FILE WAS UPDATED (12h2o.su.etal.mol1,4,6,7,9,11-orca.engrad-mp2.def2tzvp.frozencore.gbw) ****
             **** DENSITY FILE WAS UPDATED (12h2o.su.etal.mol1,4,6,7,9,11-orca.engrad-mp2.def2tzvp.frozencore.scfp) ****
             **** ENERGY FILE WAS UPDATED (12h2o.su.etal.mol1,4,6,7,9,11-orca.engrad-mp2.def2tzvp.frozencore.en.tmp) ****
             **** THE GBW FILE WAS UPDATED (12h2o.su.etal.mol1,4,6,7,9,11-orca.engrad-mp2.def2tzvp.frozencore.gbw) ****
             **** DENSITY FILE WAS UPDATED (12h2o.su.etal.mol1,4,6,7,9,11-orca.engrad-mp2.def2tzvp.frozencore.scfp) ****
----------------
ORBITAL ENERGIES
----------------

  NO   OCC          E(Eh)            E(eV) 
   0   2.0000     -20.618578      -561.0600 
   1   2.0000     -20.583494      -560.1053 
   2   2.0000     -20.581638      -560.0549 
   3   2.0000     -20.574366      -559.8570 
   4   2.0000     -20.537997      -558.8673 
   5   2.0000     -20.517914      -558.3208 
   6   2.0000      -1.405125       -38.2354 
   7   2.0000      -1.375634       -37.4329 
   8   2.0000      -1.365339       -37.1528 
   9   2.0000      -1.356049       -36.9000 
  10   2.0000      -1.318317       -35.8732 
  11   2.0000      -1.302914       -35.4541 
  12   2.0000      -0.760776       -20.7018 
  13   2.0000      -0.749610       -20.3979 
  14   2.0000      -0.730425       -19.8759 
  15   2.0000      -0.728413       -19.8211 
  16   2.0000      -0.693314       -18.8660 
  17   2.0000      -0.681613       -18.5476 
  18   2.0000      -0.650896       -17.7118 
  19   2.0000      -0.624058       -16.9815 
  20   2.0000      -0.606007       -16.4903 
  21   2.0000      -0.597687       -16.2639 
  22   2.0000      -0.570553       -15.5255 
  23   2.0000      -0.555395       -15.1131 
  24   2.0000      -0.542128       -14.7520 
  25   2.0000      -0.524357       -14.2685 
  26   2.0000      -0.521356       -14.1868 
  27   2.0000      -0.512216       -13.9381 
  28   2.0000      -0.486110       -13.2277 
  29   2.0000      -0.467748       -12.7281 
  30   0.0000       0.079567         2.1651 
  31   0.0000       0.136939         3.7263 
  32   0.0000       0.141713         3.8562 
  33   0.0000       0.143567         3.9067 
  34   0.0000       0.196726         5.3532 
  35   0.0000       0.219899         5.9838 
  36   0.0000       0.242451         6.5974 
  37   0.0000       0.259815         7.0699 
  38   0.0000       0.310321         8.4443 
  39   0.0000       0.315775         8.5927 
  40   0.0000       0.327576         8.9138 
  41   0.0000       0.329564         8.9679 
  42   0.0000       0.415796        11.3144 
  43   0.0000       0.464717        12.6456 
  44   0.0000       0.483146        13.1471 
  45   0.0000       0.502700        13.6792 
  46   0.0000       0.504694        13.7334 
  47   0.0000       0.528133        14.3712 
  48   0.0000       0.535459        14.5706 
  49   0.0000       0.550225        14.9724 
  50   0.0000       0.562119        15.2960 
  51   0.0000       0.562591        15.3089 
  52   0.0000       0.575609        15.6631 
  53   0.0000       0.590280        16.0623 
  54   0.0000       0.614082        16.7100 
  55   0.0000       0.624640        16.9973 
  56   0.0000       0.630814        17.1653 
  57   0.0000       0.661992        18.0137 
  58   0.0000       0.670952        18.2575 
  59   0.0000       0.707125        19.2419 
  60   0.0000       0.714162        19.4333 
  61   0.0000       0.727365        19.7926 
  62   0.0000       0.741877        20.1875 
  63   0.0000       0.759158        20.6577 
  64   0.0000       0.769507        20.9394 
  65   0.0000       0.777098        21.1459 
  66   0.0000       0.794807        21.6278 
  67   0.0000       0.804620        21.8948 
  68   0.0000       0.821750        22.3609 
  69   0.0000       0.852695        23.2030 
  70   0.0000       0.881479        23.9863 
  71   0.0000       0.898082        24.4381 
  72   0.0000       0.932315        25.3696 
  73   0.0000       0.972021        26.4500 
  74   0.0000       0.989094        26.9146 
  75   0.0000       1.049922        28.5698 
  76   0.0000       1.100339        29.9418 
  77   0.0000       1.122472        30.5440 
  78   0.0000       1.336830        36.3770 
  79   0.0000       1.355770        36.8924 
  80   0.0000       1.365105        37.1464 
  81   0.0000       1.394267        37.9399 
  82   0.0000       1.414138        38.4807 
  83   0.0000       1.421894        38.6917 
  84   0.0000       1.436869        39.0992 
  85   0.0000       1.449530        39.4437 
  86   0.0000       1.450615        39.4732 
  87   0.0000       1.499246        40.7965 
  88   0.0000       1.505909        40.9779 
  89   0.0000       1.534935        41.7677 
  90   0.0000       1.561675        42.4953 
  91   0.0000       1.570205        42.7275 
  92   0.0000       1.582720        43.0680 
  93   0.0000       1.598462        43.4964 
  94   0.0000       1.614242        43.9258 
  95   0.0000       1.654678        45.0261 
  96   0.0000       1.768276        48.1172 
  97   0.0000       1.797057        48.9004 
  98   0.0000       1.816595        49.4321 
  99   0.0000       1.853621        50.4396 
 100   0.0000       1.867355        50.8133 
 101   0.0000       1.898837        51.6700 
 102   0.0000       1.906017        51.8654 
 103   0.0000       1.940403        52.8011 
 104   0.0000       1.973447        53.7002 
 105   0.0000       1.984107        53.9903 
 106   0.0000       1.997965        54.3674 
 107   0.0000       2.050218        55.7893 
 108   0.0000       2.061211        56.0884 
 109   0.0000       2.082981        56.6808 
 110   0.0000       2.100118        57.1471 
 111   0.0000       2.134460        58.0816 
 112   0.0000       2.154399        58.6242 
 113   0.0000       2.199881        59.8618 
 114   0.0000       2.226893        60.5968 
 115   0.0000       2.260658        61.5156 
 116   0.0000       2.277165        61.9648 
 117   0.0000       2.305426        62.7338 
 118   0.0000       2.325803        63.2883 
 119   0.0000       2.334853        63.5346 
 120   0.0000       2.352468        64.0139 
 121   0.0000       2.358123        64.1678 
 122   0.0000       2.378115        64.7118 
 123   0.0000       2.385256        64.9061 
 124   0.0000       2.432930        66.2034 
 125   0.0000       2.453388        66.7601 
 126   0.0000       2.454600        66.7931 
 127   0.0000       2.478541        67.4445 
 128   0.0000       2.495755        67.9130 
 129   0.0000       2.518199        68.5237 
 130   0.0000       2.535041        68.9820 
 131   0.0000       2.573613        70.0316 
 132   0.0000       2.592430        70.5436 
 133   0.0000       2.604943        70.8841 
 134   0.0000       2.610775        71.0428 
 135   0.0000       2.627120        71.4876 
 136   0.0000       2.645000        71.9741 
 137   0.0000       2.653955        72.2178 
 138   0.0000       2.672015        72.7092 
 139   0.0000       2.695584        73.3506 
 140   0.0000       2.732037        74.3425 
 141   0.0000       2.743452        74.6531 
 142   0.0000       2.749271        74.8115 
 143   0.0000       2.813047        76.5469 
 144   0.0000       2.881741        78.4162 
 145   0.0000       2.907125        79.1069 
 146   0.0000       2.923673        79.5572 
 147   0.0000       2.933786        79.8324 
 148   0.0000       2.950987        80.3004 
 149   0.0000       2.976973        81.0075 
 150   0.0000       2.979287        81.0705 
 151   0.0000       3.006486        81.8106 
 152   0.0000       3.015680        82.0608 
 153   0.0000       3.060159        83.2712 
 154   0.0000       3.064827        83.3982 
 155   0.0000       3.114574        84.7519 
 156   0.0000       3.125677        85.0540 
 157   0.0000       3.160939        86.0135 
 158   0.0000       3.185988        86.6951 
 159   0.0000       3.209247        87.3281 
 160   0.0000       3.226539        87.7986 
 161   0.0000       3.252767        88.5123 
 162   0.0000       3.317618        90.2770 
 163   0.0000       3.324303        90.4589 
 164   0.0000       3.355101        91.2969 
 165   0.0000       3.420552        93.0780 
 166   0.0000       3.477779        94.6352 
 167   0.0000       3.494863        95.1000 
 168   0.0000       3.990261       108.5805 
 169   0.0000       4.042513       110.0024 
 170   0.0000       4.083646       111.1216 
 171   0.0000       4.092038       111.3500 
 172   0.0000       4.109763       111.8323 
 173   0.0000       4.137004       112.5736 
 174   0.0000       4.256013       115.8120 
 175   0.0000       4.292965       116.8175 
 176   0.0000       4.336542       118.0033 
 177   0.0000       4.343681       118.1976 
 178   0.0000       4.362045       118.6973 
 179   0.0000       4.376397       119.0878 
 180   0.0000       5.489493       149.3767 
 181   0.0000       5.520249       150.2136 
 182   0.0000       5.524353       150.3253 
 183   0.0000       5.528089       150.4270 
 184   0.0000       5.567659       151.5037 
 185   0.0000       5.585767       151.9964 
 186   0.0000       5.615984       152.8187 
 187   0.0000       5.636666       153.3815 
 188   0.0000       5.654327       153.8621 
 189   0.0000       5.656802       153.9294 
 190   0.0000       5.675093       154.4271 
 191   0.0000       5.693131       154.9180 
 192   0.0000       5.770058       157.0113 
 193   0.0000       5.779334       157.2637 
 194   0.0000       5.790716       157.5734 
 195   0.0000       5.811451       158.1376 
 196   0.0000       5.816126       158.2648 
 197   0.0000       5.825677       158.5247 
 198   0.0000       5.834978       158.7778 
 199   0.0000       5.837698       158.8518 
 200   0.0000       5.844016       159.0238 
 201   0.0000       5.848781       159.1534 
 202   0.0000       5.872366       159.7952 
 203   0.0000       5.876513       159.9080 
 204   0.0000       5.880829       160.0255 
 205   0.0000       5.884259       160.1188 
 206   0.0000       5.903983       160.6555 
 207   0.0000       5.916753       161.0030 
 208   0.0000       5.924212       161.2060 
 209   0.0000       5.945012       161.7720 
 210   0.0000       6.431678       175.0149 
 211   0.0000       6.445418       175.3887 
 212   0.0000       6.448168       175.4636 
 213   0.0000       6.462951       175.8658 
 214   0.0000       6.493223       176.6896 
 215   0.0000       6.531204       177.7231 
 216   0.0000       6.646211       180.8526 
 217   0.0000       6.661578       181.2707 
 218   0.0000       6.700345       182.3257 
 219   0.0000       6.717946       182.8046 
 220   0.0000       6.736868       183.3195 
 221   0.0000       6.772045       184.2767 
 222   0.0000       6.812755       185.3845 
 223   0.0000       6.835088       185.9922 
 224   0.0000       6.854276       186.5143 
 225   0.0000       6.866739       186.8535 
 226   0.0000       6.871903       186.9940 
 227   0.0000       6.877364       187.1426 
 228   0.0000       6.884918       187.3482 
 229   0.0000       6.899959       187.7574 
 230   0.0000       6.910193       188.0359 
 231   0.0000       6.922266       188.3644 
 232   0.0000       6.936365       188.7481 
 233   0.0000       6.943924       188.9538 
 234   0.0000       6.977854       189.8771 
 235   0.0000       6.982878       190.0138 
 236   0.0000       7.001656       190.5247 
 237   0.0000       7.027795       191.2360 
 238   0.0000       7.039722       191.5606 
 239   0.0000       7.074609       192.5099 
 240   0.0000       7.348395       199.9600 
 241   0.0000       7.372821       200.6247 
 242   0.0000       7.413384       201.7284 
 243   0.0000       7.424903       202.0419 
 244   0.0000       7.455252       202.8677 
 245   0.0000       7.464102       203.1085 
 246   0.0000       7.493560       203.9101 
 247   0.0000       7.534903       205.0351 
 248   0.0000       7.546548       205.3520 
 249   0.0000       7.574233       206.1054 
 250   0.0000       7.583407       206.3550 
 251   0.0000       7.626603       207.5304 
 252   0.0000      44.911480      1222.1035 
 253   0.0000      44.961437      1223.4629 
 254   0.0000      44.979024      1223.9415 
 255   0.0000      45.007758      1224.7233 
 256   0.0000      45.023417      1225.1495 
 257   0.0000      45.095380      1227.1077 

                    ********************************
                    * MULLIKEN POPULATION ANALYSIS *
                    ********************************

-----------------------
MULLIKEN ATOMIC CHARGES
-----------------------
   0 O :   -0.789684
   1 H :    0.365411
   2 H :    0.408628
   3 O :   -0.772470
   4 H :    0.366765
   5 H :    0.401038
   6 O :   -0.747032
   7 H :    0.333369
   8 H :    0.386590
   9 O :   -0.731227
  10 H :    0.403535
  11 H :    0.347953
  12 O :   -0.713390
  13 H :    0.366256
  14 H :    0.384425
  15 O :   -0.761390
  16 H :    0.383926
  17 H :    0.367298
Sum of atomic charges:   -0.0000000

--------------------------------
MULLIKEN REDUCED ORBITAL CHARGES
--------------------------------
  0 O s       :     3.807170  s :     3.807170
      pz      :     1.724948  p :     4.959012
      px      :     1.434561
      py      :     1.799503
      dz2     :     0.003536  d :     0.022109
      dxz     :     0.004250
      dyz     :     0.005095
      dx2y2   :     0.002268
      dxy     :     0.006960
      f0      :     0.000080  f :     0.001393
      f+1     :     0.000314
      f-1     :     0.000170
      f+2     :     0.000062
      f-2     :     0.000346
      f+3     :     0.000083
      f-3     :     0.000336
  1 H s       :     0.589318  s :     0.589318
      pz      :     0.016809  p :     0.045271
      px      :     0.013742
      py      :     0.014721
  2 H s       :     0.535841  s :     0.535841
      pz      :     0.010098  p :     0.055531
      px      :     0.032257
      py      :     0.013176
  3 O s       :     3.803208  s :     3.803208
      pz      :     1.560852  p :     4.944609
      px      :     1.852880
      py      :     1.530878
      dz2     :     0.010844  d :     0.023288
      dxz     :     0.002036
      dyz     :     0.002633
      dx2y2   :     0.003167
      dxy     :     0.004608
      f0      :     0.000189  f :     0.001366
      f+1     :     0.000113
      f-1     :     0.000446
      f+2     :     0.000069
      f-2     :     0.000038
      f+3     :     0.000414
      f-3     :     0.000097
  4 H s       :     0.589313  s :     0.589313
      pz      :     0.018888  p :     0.043922
      px      :     0.013278
      py      :     0.011756
  5 H s       :     0.546530  s :     0.546530
      pz      :     0.008655  p :     0.052432
      px      :     0.014397
      py      :     0.029380
  6 O s       :     3.811980  s :     3.811980
      pz      :     1.523513  p :     4.908614
      px      :     1.510864
      py      :     1.874237
      dz2     :     0.011596  d :     0.025000
      dxz     :     0.002965
      dyz     :     0.002540
      dx2y2   :     0.003015
      dxy     :     0.004884
      f0      :     0.000185  f :     0.001438
      f+1     :     0.000454
      f-1     :     0.000123
      f+2     :     0.000076
      f-2     :     0.000041
      f+3     :     0.000115
      f-3     :     0.000444
  7 H s       :     0.621739  s :     0.621739
      pz      :     0.018276  p :     0.044892
      px      :     0.012211
      py      :     0.014406
  8 H s       :     0.559428  s :     0.559428
      pz      :     0.009471  p :     0.053982
      px      :     0.029052
      py      :     0.015459
  9 O s       :     3.803367  s :     3.803367
      pz      :     1.607221  p :     4.901327
      px      :     1.456093
      py      :     1.838014
      dz2     :     0.011514  d :     0.025163
      dxz     :     0.002856
      dyz     :     0.002237
      dx2y2   :     0.003595
      dxy     :     0.004961
      f0      :     0.000145  f :     0.001370
      f+1     :     0.000456
      f-1     :     0.000111
      f+2     :     0.000067
      f-2     :     0.000039
      f+3     :     0.000105
      f-3     :     0.000447
 10 H s       :     0.548060  s :     0.548060
      pz      :     0.025373  p :     0.048405
      px      :     0.010716
      py      :     0.012316
 11 H s       :     0.609102  s :     0.609102
      pz      :     0.010193  p :     0.042945
      px      :     0.018507
      py      :     0.014245
 12 O s       :     3.799696  s :     3.799696
      pz      :     1.526248  p :     4.886442
      px      :     1.789834
      py      :     1.570360
      dz2     :     0.012638  d :     0.025814
      dxz     :     0.002416
      dyz     :     0.001267
      dx2y2   :     0.002457
      dxy     :     0.007036
      f0      :     0.000248  f :     0.001439
      f+1     :     0.000161
      f-1     :     0.000393
      f+2     :     0.000051
      f-2     :     0.000057
      f+3     :     0.000478
      f-3     :     0.000051
 13 H s       :     0.589941  s :     0.589941
      pz      :     0.019456  p :     0.043803
      px      :     0.012662
      py      :     0.011686
 14 H s       :     0.572614  s :     0.572614
      pz      :     0.009931  p :     0.042961
      px      :     0.014331
      py      :     0.018698
 15 O s       :     3.806865  s :     3.806865
      pz      :     1.549735  p :     4.928420
      px      :     1.817210
      py      :     1.561475
      dz2     :     0.011485  d :     0.024670
      dxz     :     0.002826
      dyz     :     0.001229
      dx2y2   :     0.002073
      dxy     :     0.007057
      f0      :     0.000252  f :     0.001435
      f+1     :     0.000159
      f-1     :     0.000370
      f+2     :     0.000055
      f-2     :     0.000054
      f+3     :     0.000481
      f-3     :     0.000063
 16 H s       :     0.567537  s :     0.567537
      pz      :     0.023934  p :     0.048538
      px      :     0.013007
      py      :     0.011597
 17 H s       :     0.582146  s :     0.582146
      pz      :     0.010300  p :     0.050556
      px      :     0.016630
      py      :     0.023627


                     *******************************
                     * LOEWDIN POPULATION ANALYSIS *
                     *******************************

----------------------
LOEWDIN ATOMIC CHARGES
----------------------
   0 O :   -0.324350
   1 H :    0.161313
   2 H :    0.155931
   3 O :   -0.307551
   4 H :    0.170549
   5 H :    0.157132
   6 O :   -0.363998
   7 H :    0.154713
   8 H :    0.150654
   9 O :   -0.305173
  10 H :    0.160946
  11 H :    0.169046
  12 O :   -0.275116
  13 H :    0.172649
  14 H :    0.182058
  15 O :   -0.359291
  16 H :    0.153823
  17 H :    0.146665

-------------------------------
LOEWDIN REDUCED ORBITAL CHARGES
-------------------------------
  0 O s       :     3.455034  s :     3.455034
      pz      :     1.682692  p :     4.838705
      px      :     1.402834
      py      :     1.753179
      dz2     :     0.004684  d :     0.028654
      dxz     :     0.006462
      dyz     :     0.005139
      dx2y2   :     0.003649
      dxy     :     0.008720
      f0      :     0.000083  f :     0.001956
      f+1     :     0.000428
      f-1     :     0.000261
      f+2     :     0.000031
      f-2     :     0.000602
      f+3     :     0.000083
      f-3     :     0.000468
  1 H s       :     0.673165  s :     0.673165
      pz      :     0.066113  p :     0.165522
      px      :     0.046160
      py      :     0.053249
  2 H s       :     0.647569  s :     0.647569
      pz      :     0.033393  p :     0.196500
      px      :     0.115467
      py      :     0.047640
  3 O s       :     3.456730  s :     3.456730
      pz      :     1.533744  p :     4.818532
      px      :     1.791892
      py      :     1.492897
      dz2     :     0.014915  d :     0.030302
      dxz     :     0.001316
      dyz     :     0.004023
      dx2y2   :     0.004538
      dxy     :     0.005509
      f0      :     0.000380  f :     0.001987
      f+1     :     0.000197
      f-1     :     0.000733
      f+2     :     0.000039
      f-2     :     0.000047
      f+3     :     0.000526
      f-3     :     0.000065
  4 H s       :     0.669607  s :     0.669607
      pz      :     0.079673  p :     0.159844
      px      :     0.043084
      py      :     0.037087
  5 H s       :     0.655137  s :     0.655137
      pz      :     0.029010  p :     0.187731
      px      :     0.052617
      py      :     0.106103
  6 O s       :     3.471471  s :     3.471471
      pz      :     1.535741  p :     4.859629
      px      :     1.486008
      py      :     1.837880
      dz2     :     0.015092  d :     0.030849
      dxz     :     0.004410
      dyz     :     0.001696
      dx2y2   :     0.003823
      dxy     :     0.005829
      f0      :     0.000397  f :     0.002048
      f+1     :     0.000757
      f-1     :     0.000191
      f+2     :     0.000048
      f-2     :     0.000045
      f+3     :     0.000065
      f-3     :     0.000544
  7 H s       :     0.686522  s :     0.686522
      pz      :     0.078271  p :     0.158766
      px      :     0.036833
      py      :     0.043661
  8 H s       :     0.663976  s :     0.663976
      pz      :     0.028988  p :     0.185370
      px      :     0.103758
      py      :     0.052624
  9 O s       :     3.462571  s :     3.462571
      pz      :     1.579873  p :     4.809055
      px      :     1.450002
      py      :     1.779180
      dz2     :     0.014291  d :     0.031529
      dxz     :     0.003666
      dyz     :     0.001316
      dx2y2   :     0.005584
      dxy     :     0.006673
      f0      :     0.000316  f :     0.002018
      f+1     :     0.000713
      f-1     :     0.000204
      f+2     :     0.000037
      f-2     :     0.000042
      f+3     :     0.000074
      f-3     :     0.000632
 10 H s       :     0.665209  s :     0.665209
      pz      :     0.095716  p :     0.173846
      px      :     0.035890
      py      :     0.042240
 11 H s       :     0.676969  s :     0.676969
      pz      :     0.030787  p :     0.153986
      px      :     0.073938
      py      :     0.049261
 12 O s       :     3.456454  s :     3.456454
      pz      :     1.517504  p :     4.783440
      px      :     1.727558
      py      :     1.538378
      dz2     :     0.016759  d :     0.033053
      dxz     :     0.001921
      dyz     :     0.002016
      dx2y2   :     0.003581
      dxy     :     0.008776
      f0      :     0.000459  f :     0.002169
      f+1     :     0.000340
      f-1     :     0.000586
      f+2     :     0.000022
      f-2     :     0.000049
      f+3     :     0.000688
      f-3     :     0.000026
 13 H s       :     0.668558  s :     0.668558
      pz      :     0.081355  p :     0.158793
      px      :     0.041680
      py      :     0.035758
 14 H s       :     0.659853  s :     0.659853
      pz      :     0.029485  p :     0.158090
      px      :     0.054811
      py      :     0.073794
 15 O s       :     3.460370  s :     3.460370
      pz      :     1.532832  p :     4.866843
      px      :     1.790922
      py      :     1.543089
      dz2     :     0.014917  d :     0.030053
      dxz     :     0.002188
      dyz     :     0.001891
      dx2y2   :     0.002161
      dxy     :     0.008896
      f0      :     0.000447  f :     0.002025
      f+1     :     0.000303
      f-1     :     0.000543
      f+2     :     0.000023
      f-2     :     0.000047
      f+3     :     0.000659
      f-3     :     0.000002
 16 H s       :     0.675433  s :     0.675433
      pz      :     0.091674  p :     0.170744
      px      :     0.042176
      py      :     0.036894
 17 H s       :     0.679496  s :     0.679496
      pz      :     0.031315  p :     0.173838
      px      :     0.057941
      py      :     0.084582


                      *****************************
                      * MAYER POPULATION ANALYSIS *
                      *****************************

  NA   - Mulliken gross atomic population
  ZA   - Total nuclear charge
  QA   - Mulliken gross atomic charge
  VA   - Mayer's total valence
  BVA  - Mayer's bonded valence
  FA   - Mayer's free valence

  ATOM       NA         ZA         QA         VA         BVA        FA
  0 O      8.7897     8.0000    -0.7897     1.6834     1.6834     0.0000
  1 H      0.6346     1.0000     0.3654     0.8841     0.8841     0.0000
  2 H      0.5914     1.0000     0.4086     0.8674     0.8674     0.0000
  3 O      8.7725     8.0000    -0.7725     1.7012     1.7012    -0.0000
  4 H      0.6332     1.0000     0.3668     0.8814     0.8814     0.0000
  5 H      0.5990     1.0000     0.4010     0.8787     0.8787    -0.0000
  6 O      8.7470     8.0000    -0.7470     1.7182     1.7182    -0.0000
  7 H      0.6666     1.0000     0.3334     0.9049     0.9049    -0.0000
  8 H      0.6134     1.0000     0.3866     0.8915     0.8915     0.0000
  9 O      8.7312     8.0000    -0.7312     1.7564     1.7564    -0.0000
 10 H      0.5965     1.0000     0.4035     0.8673     0.8673    -0.0000
 11 H      0.6520     1.0000     0.3480     0.8983     0.8983    -0.0000
 12 O      8.7134     8.0000    -0.7134     1.7756     1.7756    -0.0000
 13 H      0.6337     1.0000     0.3663     0.8823     0.8823     0.0000
 14 H      0.6156     1.0000     0.3844     0.8720     0.8720     0.0000
 15 O      8.7614     8.0000    -0.7614     1.7292     1.7292    -0.0000
 16 H      0.6161     1.0000     0.3839     0.8772     0.8772     0.0000
 17 H      0.6327     1.0000     0.3673     0.8960     0.8960    -0.0000

  Mayer bond orders larger than 0.100000
B(  0-O ,  1-H ) :   0.8739 B(  0-O ,  2-H ) :   0.7863 B(  3-O ,  4-H ) :   0.8729 
B(  3-O ,  5-H ) :   0.7965 B(  6-O ,  7-H ) :   0.8980 B(  6-O ,  8-H ) :   0.8250 
B(  9-O , 10-H ) :   0.8257 B(  9-O , 11-H ) :   0.8831 B( 12-O , 13-H ) :   0.8724 
B( 12-O , 14-H ) :   0.8564 B( 15-O , 16-H ) :   0.8565 B( 15-O , 17-H ) :   0.8617 


-------
TIMINGS
-------

Total SCF time: 0 days 0 hours 0 min 19 sec 

Total time                  ....      19.664 sec
Sum of individual times     ....      19.343 sec  ( 98.4%)

Fock matrix formation       ....      18.351 sec  ( 93.3%)
Diagonalization             ....       0.299 sec  (  1.5%)
Density matrix formation    ....       0.109 sec  (  0.6%)
Population analysis         ....       0.049 sec  (  0.3%)
Initial guess               ....       0.129 sec  (  0.7%)
Orbital Transformation      ....       0.000 sec  (  0.0%)
Orbital Orthonormalization  ....       0.000 sec  (  0.0%)
DIIS solution               ....       0.124 sec  (  0.6%)
SOSCF solution              ....       0.228 sec  (  1.2%)


           ************************************************************
           *        Program running with 6 parallel MPI-processes     *
           *              working on a common directory               *
           ************************************************************

------------------------------------------------------------------------------
                                ORCA  MP2 
------------------------------------------------------------------------------

Freezing NCore=12 chemical core electrons
MP2 will be done in the AO integral direct mode
The Q1-step will be done using symmetric double matrices
Dimension of the basis                    ...  258
Memory devoted for MP2                    ... 8000 MB   
Memory needed for all in one shot         ...  264 MB
Number of MOs that can be treated together...  120      
MP2 density construction                  ... relaxed
The MP2 gradient is requested => amplitudes will be stored on disk
Total number of MOs              ...   24
Number of MOs treated per batch  ...    4 
Number of batches necessary      ...    1 
OPERATORS   0/  0 PASS   0
-----------------------------------------------
 MP2 CORRELATION ENERGY   :     -1.553650685 Eh
-----------------------------------------------


---------------------
MP2 DENSITY FORMATION
---------------------

Completing the external part of the density      ... done
Storing the unrelaxed density                    ... done

Calculating G(D)                                 ... done
Completing the Lagrangian                        ... done
Solving the Z-vector equations                   ... 

------------------------------------------------------------------------------
                           ORCA CP-SCF CALCULATION
------------------------------------------------------------------------------

Input orbitals are from        ... 12h2o.su.etal.mol1,4,6,7,9,11-orca.engrad-mp2.def2tzvp.frozencore.gbw
Input Perturbation             ... 12h2o.su.etal.mol1,4,6,7,9,11-orca.engrad-mp2.def2tzvp.frozencore.pin.tmp
Wavefunction output            ... 12h2o.su.etal.mol1,4,6,7,9,11-orca.engrad-mp2.def2tzvp.frozencore.pout.tmp
Perturbation mode              ... Real perturbation (singlet)
Solver                         ... POPLE
Max. number of iterations      ... 128
Convergence tolerance          ... 1.000e-08
Integral handling              ... Direct
Number of perturbations        ... 1
Number of operators            ... 1
Orbital ranges used for CP-SCF:
 Operator 0:  Orbitals   0... 29  to  30...257
Variables per vector in CP-SCF ... 6840
Number of vectors sought       ... 1
     CP-SCF ITERATION   0: 
     CP-SCF ITERATION   1:      0.000801722319
     CP-SCF ITERATION   2:      0.000021421797
     CP-SCF ITERATION   3:      0.000001157827
     CP-SCF ITERATION   4:      0.000000108360
     CP-SCF ITERATION   5:      0.000000010018
     CP-SCF ITERATION   6:      0.000000000568
                                                 ... done
Finalizing the relaxed density                   ... done
Transforming P to the AO basis                   ... done
Storing the relaxed density                      ... done

------------------------------------
ENERGY WEIGHTED DENSITY FINALIZATION
------------------------------------

Gathering the parts of the W-matrix              ...                                                      done
Forming the Z-density                            ... done
Transforming Z to the AO basis                   ... done
Calculating G(Z)                                 ... done
Finalizing the W-matrix                          ...                                                      done
Transforming W to the AO basis and storing       ... done

                *********************************************
                * UNRELAXED MP2 DENSITY POPULATION ANALYSIS *
                *********************************************

------------------------------------------------------------------------------
                           ORCA POPULATION ANALYSIS
------------------------------------------------------------------------------
Input electron density              ... 12h2o.su.etal.mol1,4,6,7,9,11-orca.engrad-mp2.def2tzvp.frozencore.pmp2ur
BaseName (.gbw .S,...)              ... 12h2o.su.etal.mol1,4,6,7,9,11-orca.engrad-mp2.def2tzvp.frozencore

                    ********************************
                    * MULLIKEN POPULATION ANALYSIS *
                    ********************************

-----------------------
MULLIKEN ATOMIC CHARGES
-----------------------
   0 O :   -0.783139
   1 H :    0.363082
   2 H :    0.403881
   3 O :   -0.765618
   4 H :    0.364350
   5 H :    0.396453
   6 O :   -0.741170
   7 H :    0.330848
   8 H :    0.382164
   9 O :   -0.724414
  10 H :    0.400361
  11 H :    0.345115
  12 O :   -0.706946
  13 H :    0.363767
  14 H :    0.381781
  15 O :   -0.755402
  16 H :    0.380981
  17 H :    0.363905
Sum of atomic charges:   -0.0000000

--------------------------------
MULLIKEN REDUCED ORBITAL CHARGES
--------------------------------
  0 O s       :     3.802242  s :     3.802242
      pz      :     1.713776  p :     4.926868
      px      :     1.425635
      py      :     1.787457
      dz2     :     0.009223  d :     0.050039
      dxz     :     0.009781
      dyz     :     0.010651
      dx2y2   :     0.007936
      dxy     :     0.012448
      f0      :     0.000454  f :     0.003990
      f+1     :     0.000682
      f-1     :     0.000538
      f+2     :     0.000435
      f-2     :     0.000714
      f+3     :     0.000461
      f-3     :     0.000706
  1 H s       :     0.590064  s :     0.590064
      pz      :     0.017264  p :     0.046854
      px      :     0.014171
      py      :     0.015419
  2 H s       :     0.538957  s :     0.538957
      pz      :     0.010905  p :     0.057162
      px      :     0.032368
      py      :     0.013889
  3 O s       :     3.797940  s :     3.797940
      pz      :     1.551352  p :     4.912541
      px      :     1.839886
      py      :     1.521303
      dz2     :     0.016229  d :     0.051168
      dxz     :     0.007748
      dyz     :     0.008116
      dx2y2   :     0.008875
      dxy     :     0.010199
      f0      :     0.000574  f :     0.003969
      f+1     :     0.000489
      f-1     :     0.000816
      f+2     :     0.000436
      f-2     :     0.000407
      f+3     :     0.000778
      f-3     :     0.000471
  4 H s       :     0.590134  s :     0.590134
      pz      :     0.019036  p :     0.045516
      px      :     0.014116
      py      :     0.012363
  5 H s       :     0.549531  s :     0.549531
      pz      :     0.009426  p :     0.054016
      px      :     0.015060
      py      :     0.029530
  6 O s       :     3.806966  s :     3.806966
      pz      :     1.514382  p :     4.878353
      px      :     1.501717
      py      :     1.862255
      dz2     :     0.016649  d :     0.051849
      dxz     :     0.008320
      dyz     :     0.008039
      dx2y2   :     0.008524
      dxy     :     0.010316
      f0      :     0.000563  f :     0.004002
      f+1     :     0.000820
      f-1     :     0.000491
      f+2     :     0.000438
      f-2     :     0.000406
      f+3     :     0.000482
      f-3     :     0.000802
  7 H s       :     0.622526  s :     0.622526
      pz      :     0.018436  p :     0.046626
      px      :     0.012889
      py      :     0.015302
  8 H s       :     0.562181  s :     0.562181
      pz      :     0.010286  p :     0.055655
      px      :     0.029199
      py      :     0.016169
  9 O s       :     3.798236  s :     3.798236
      pz      :     1.597141  p :     4.869810
      px      :     1.447434
      py      :     1.825235
      dz2     :     0.016745  d :     0.052413
      dxz     :     0.008224
      dyz     :     0.007877
      dx2y2   :     0.009131
      dxy     :     0.010437
      f0      :     0.000533  f :     0.003956
      f+1     :     0.000824
      f-1     :     0.000488
      f+2     :     0.000432
      f-2     :     0.000405
      f+3     :     0.000473
      f-3     :     0.000801
 10 H s       :     0.549780  s :     0.549780
      pz      :     0.025464  p :     0.049859
      px      :     0.011277
      py      :     0.013118
 11 H s       :     0.610293  s :     0.610293
      pz      :     0.011047  p :     0.044592
      px      :     0.018555
      py      :     0.014990
 12 O s       :     3.794508  s :     3.794508
      pz      :     1.517088  p :     4.855547
      px      :     1.777431
      py      :     1.561029
      dz2     :     0.017704  d :     0.052869
      dxz     :     0.007977
      dyz     :     0.006653
      dx2y2   :     0.008081
      dxy     :     0.012453
      f0      :     0.000627  f :     0.004023
      f+1     :     0.000537
      f-1     :     0.000759
      f+2     :     0.000413
      f-2     :     0.000423
      f+3     :     0.000839
      f-3     :     0.000426
 13 H s       :     0.590881  s :     0.590881
      pz      :     0.019525  p :     0.045351
      px      :     0.013473
      py      :     0.012354
 14 H s       :     0.573789  s :     0.573789
      pz      :     0.010671  p :     0.044430
      px      :     0.014927
      py      :     0.018832
 15 O s       :     3.802085  s :     3.802085
      pz      :     1.540215  p :     4.897609
      px      :     1.805494
      py      :     1.551900
      dz2     :     0.016659  d :     0.051696
      dxz     :     0.008338
      dyz     :     0.006698
      dx2y2   :     0.007644
      dxy     :     0.012357
      f0      :     0.000632  f :     0.004011
      f+1     :     0.000533
      f-1     :     0.000740
      f+2     :     0.000416
      f-2     :     0.000421
      f+3     :     0.000837
      f-3     :     0.000433
 16 H s       :     0.568899  s :     0.568899
      pz      :     0.023997  p :     0.050120
      px      :     0.013848
      py      :     0.012275
 17 H s       :     0.583893  s :     0.583893
      pz      :     0.011113  p :     0.052202
      px      :     0.017257
      py      :     0.023831


                     *******************************
                     * LOEWDIN POPULATION ANALYSIS *
                     *******************************

----------------------
LOEWDIN ATOMIC CHARGES
----------------------
   0 O :   -0.320224
   1 H :    0.160023
   2 H :    0.153257
   3 O :   -0.303199
   4 H :    0.169071
   5 H :    0.154474
   6 O :   -0.361168
   7 H :    0.153106
   8 H :    0.148068
   9 O :   -0.300632
  10 H :    0.158898
  11 H :    0.167176
  12 O :   -0.270709
  13 H :    0.171173
  14 H :    0.180563
  15 O :   -0.356213
  16 H :    0.151903
  17 H :    0.144433

-------------------------------
LOEWDIN REDUCED ORBITAL CHARGES
-------------------------------
  0 O s       :     3.451392  s :     3.451392
      pz      :     1.671070  p :     4.806366
      px      :     1.394252
      py      :     1.741044
      dz2     :     0.010496  d :     0.057714
      dxz     :     0.012208
      dyz     :     0.011028
      dx2y2   :     0.009411
      dxy     :     0.014570
      f0      :     0.000469  f :     0.004752
      f+1     :     0.000845
      f-1     :     0.000649
      f+2     :     0.000411
      f-2     :     0.001014
      f+3     :     0.000475
      f-3     :     0.000890
  1 H s       :     0.671390  s :     0.671390
      pz      :     0.067296  p :     0.168587
      px      :     0.047062
      py      :     0.054228
  2 H s       :     0.647838  s :     0.647838
      pz      :     0.034221  p :     0.198904
      px      :     0.116173
      py      :     0.048510
  3 O s       :     3.452976  s :     3.452976
      pz      :     1.523510  p :     4.786171
      px      :     1.779057
      py      :     1.483605
      dz2     :     0.020930  d :     0.059261
      dxz     :     0.006960
      dyz     :     0.009544
      dx2y2   :     0.010402
      dxy     :     0.011425
      f0      :     0.000798  f :     0.004790
      f+1     :     0.000589
      f-1     :     0.001173
      f+2     :     0.000414
      f-2     :     0.000422
      f+3     :     0.000945
      f-3     :     0.000450
  4 H s       :     0.667960  s :     0.667960
      pz      :     0.081215  p :     0.162969
      px      :     0.043865
      py      :     0.037890
  5 H s       :     0.655169  s :     0.655169
      pz      :     0.029817  p :     0.190356
      px      :     0.053438
      py      :     0.107102
  6 O s       :     3.467762  s :     3.467762
      pz      :     1.526228  p :     4.829756
      px      :     1.477050
      py      :     1.826478
      dz2     :     0.020820  d :     0.058843
      dxz     :     0.009778
      dyz     :     0.007128
      dx2y2   :     0.009523
      dxy     :     0.011593
      f0      :     0.000807  f :     0.004807
      f+1     :     0.001192
      f-1     :     0.000575
      f+2     :     0.000418
      f-2     :     0.000416
      f+3     :     0.000443
      f-3     :     0.000956
  7 H s       :     0.684732  s :     0.684732
      pz      :     0.080022  p :     0.162161
      px      :     0.037675
      py      :     0.044465
  8 H s       :     0.663825  s :     0.663825
      pz      :     0.029797  p :     0.188107
      px      :     0.104842
      py      :     0.053468
  9 O s       :     3.458745  s :     3.458745
      pz      :     1.569896  p :     4.777231
      px      :     1.440983
      py      :     1.766352
      dz2     :     0.020135  d :     0.059855
      dxz     :     0.009075
      dyz     :     0.006878
      dx2y2   :     0.011315
      dxy     :     0.012453
      f0      :     0.000734  f :     0.004801
      f+1     :     0.001150
      f-1     :     0.000596
      f+2     :     0.000410
      f-2     :     0.000414
      f+3     :     0.000453
      f-3     :     0.001044
 10 H s       :     0.664556  s :     0.664556
      pz      :     0.096953  p :     0.176546
      px      :     0.036603
      py      :     0.042991
 11 H s       :     0.675556  s :     0.675556
      pz      :     0.031629  p :     0.157268
      px      :     0.075413
      py      :     0.050226
 12 O s       :     3.452587  s :     3.452587
      pz      :     1.508059  p :     4.752054
      px      :     1.715088
      py      :     1.528907
      dz2     :     0.022531  d :     0.061120
      dxz     :     0.007409
      dyz     :     0.007342
      dx2y2   :     0.009178
      dxy     :     0.014660
      f0      :     0.000880  f :     0.004948
      f+1     :     0.000738
      f-1     :     0.001005
      f+2     :     0.000389
      f-2     :     0.000422
      f+3     :     0.001108
      f-3     :     0.000407
 13 H s       :     0.667005  s :     0.667005
      pz      :     0.082852  p :     0.161822
      px      :     0.042477
      py      :     0.036493
 14 H s       :     0.658516  s :     0.658516
      pz      :     0.030193  p :     0.160921
      px      :     0.055758
      py      :     0.074969
 15 O s       :     3.456731  s :     3.456731
      pz      :     1.523237  p :     4.836446
      px      :     1.779677
      py      :     1.533532
      dz2     :     0.020789  d :     0.058239
      dxz     :     0.007648
      dyz     :     0.007318
      dx2y2   :     0.007718
      dxy     :     0.014767
      f0      :     0.000869  f :     0.004797
      f+1     :     0.000700
      f-1     :     0.000967
      f+2     :     0.000388
      f-2     :     0.000421
      f+3     :     0.001075
      f-3     :     0.000376
 16 H s       :     0.674394  s :     0.674394
      pz      :     0.093049  p :     0.173703
      px      :     0.042985
      py      :     0.037669
 17 H s       :     0.678685  s :     0.678685
      pz      :     0.032110  p :     0.176883
      px      :     0.058917
      py      :     0.085855


                      *****************************
                      * MAYER POPULATION ANALYSIS *
                      *****************************

  NA   - Mulliken gross atomic population
  ZA   - Total nuclear charge
  QA   - Mulliken gross atomic charge
  VA   - Mayer's total valence
  BVA  - Mayer's bonded valence
  FA   - Mayer's free valence

  ATOM       NA         ZA         QA         VA         BVA        FA
  0 O      8.7831     8.0000    -0.7831     2.0027     1.6064     0.3964
  1 H      0.6369     1.0000     0.3631     0.8897     0.8440     0.0457
  2 H      0.5961     1.0000     0.4039     0.8751     0.8293     0.0457
  3 O      8.7656     8.0000    -0.7656     2.0174     1.6234     0.3940
  4 H      0.6357     1.0000     0.3643     0.8871     0.8407     0.0463
  5 H      0.6035     1.0000     0.3965     0.8864     0.8405     0.0459
  6 O      8.7412     8.0000    -0.7412     2.0299     1.6380     0.3919
  7 H      0.6692     1.0000     0.3308     0.9112     0.8620     0.0493
  8 H      0.6178     1.0000     0.3822     0.8993     0.8528     0.0465
  9 O      8.7244     8.0000    -0.7244     2.0670     1.6760     0.3911
 10 H      0.5996     1.0000     0.4004     0.8734     0.8302     0.0433
 11 H      0.6549     1.0000     0.3451     0.9049     0.8557     0.0492
 12 O      8.7069     8.0000    -0.7069     2.0825     1.6959     0.3866
 13 H      0.6362     1.0000     0.3638     0.8882     0.8421     0.0461
 14 H      0.6182     1.0000     0.3818     0.8779     0.8331     0.0449
 15 O      8.7554     8.0000    -0.7554     2.0423     1.6505     0.3918
 16 H      0.6190     1.0000     0.3810     0.8833     0.8385     0.0448
 17 H      0.6361     1.0000     0.3639     0.9029     0.8562     0.0467

  Mayer bond orders larger than 0.100000
B(  0-O ,  1-H ) :   0.8345 B(  0-O ,  2-H ) :   0.7505 B(  3-O ,  4-H ) :   0.8329 
B(  3-O ,  5-H ) :   0.7608 B(  6-O ,  7-H ) :   0.8556 B(  6-O ,  8-H ) :   0.7882 
B(  9-O , 10-H ) :   0.7898 B(  9-O , 11-H ) :   0.8412 B( 12-O , 13-H ) :   0.8327 
B( 12-O , 14-H ) :   0.8182 B( 15-O , 16-H ) :   0.8183 B( 15-O , 17-H ) :   0.8228 



                *******************************************
                * RELAXED MP2 DENSITY POPULATION ANALYSIS *
                *******************************************

------------------------------------------------------------------------------
                           ORCA POPULATION ANALYSIS
------------------------------------------------------------------------------
Input electron density              ... 12h2o.su.etal.mol1,4,6,7,9,11-orca.engrad-mp2.def2tzvp.frozencore.pmp2re
BaseName (.gbw .S,...)              ... 12h2o.su.etal.mol1,4,6,7,9,11-orca.engrad-mp2.def2tzvp.frozencore

                    ********************************
                    * MULLIKEN POPULATION ANALYSIS *
                    ********************************

-----------------------
MULLIKEN ATOMIC CHARGES
-----------------------
   0 O :   -0.753326
   1 H :    0.355737
   2 H :    0.381659
   3 O :   -0.735211
   4 H :    0.356958
   5 H :    0.372997
   6 O :   -0.721358
   7 H :    0.324427
   8 H :    0.359234
   9 O :   -0.695062
  10 H :    0.384021
  11 H :    0.337702
  12 O :   -0.682591
  13 H :    0.357426
  14 H :    0.373299
  15 O :   -0.731805
  16 H :    0.368561
  17 H :    0.347332
Sum of atomic charges:   -0.0000000

--------------------------------
MULLIKEN REDUCED ORBITAL CHARGES
--------------------------------
  0 O s       :     3.804708  s :     3.804708
      pz      :     1.703026  p :     4.896431
      px      :     1.418923
      py      :     1.774482
      dz2     :     0.009080  d :     0.048265
      dxz     :     0.009218
      dyz     :     0.010359
      dx2y2   :     0.007829
      dxy     :     0.011780
      f0      :     0.000452  f :     0.003921
      f+1     :     0.000664
      f-1     :     0.000530
      f+2     :     0.000434
      f-2     :     0.000695
      f+3     :     0.000459
      f-3     :     0.000688
  1 H s       :     0.596661  s :     0.596661
      pz      :     0.017343  p :     0.047602
      px      :     0.014190
      py      :     0.016068
  2 H s       :     0.560989  s :     0.560989
      pz      :     0.011595  p :     0.057353
      px      :     0.031379
      py      :     0.014379
  3 O s       :     3.799654  s :     3.799654
      pz      :     1.543087  p :     4.882330
      px      :     1.822273
      py      :     1.516969
      dz2     :     0.015117  d :     0.049326
      dxz     :     0.007792
      dyz     :     0.007848
      dx2y2   :     0.008710
      dxy     :     0.009858
      f0      :     0.000561  f :     0.003901
      f+1     :     0.000483
      f-1     :     0.000788
      f+2     :     0.000435
      f-2     :     0.000405
      f+3     :     0.000759
      f-3     :     0.000469
  4 H s       :     0.596860  s :     0.596860
      pz      :     0.018319  p :     0.046183
      px      :     0.015070
      py      :     0.012794
  5 H s       :     0.572693  s :     0.572693
      pz      :     0.010075  p :     0.054311
      px      :     0.015525
      py      :     0.028710
  6 O s       :     3.806867  s :     3.806867
      pz      :     1.507744  p :     4.860730
      px      :     1.498332
      py      :     1.854654
      dz2     :     0.015432  d :     0.049826
      dxz     :     0.008072
      dyz     :     0.008084
      dx2y2   :     0.008317
      dxy     :     0.009921
      f0      :     0.000550  f :     0.003933
      f+1     :     0.000792
      f-1     :     0.000486
      f+2     :     0.000437
      f-2     :     0.000405
      f+3     :     0.000480
      f-3     :     0.000784
  7 H s       :     0.628136  s :     0.628136
      pz      :     0.017774  p :     0.047436
      px      :     0.013349
      py      :     0.016314
  8 H s       :     0.584782  s :     0.584782
      pz      :     0.010954  p :     0.055984
      px      :     0.028311
      py      :     0.016719
  9 O s       :     3.798108  s :     3.798108
      pz      :     1.593129  p :     4.842675
      px      :     1.441265
      py      :     1.808281
      dz2     :     0.015696  d :     0.050398
      dxz     :     0.008004
      dyz     :     0.007932
      dx2y2   :     0.008802
      dxy     :     0.009962
      f0      :     0.000520  f :     0.003882
      f+1     :     0.000796
      f-1     :     0.000482
      f+2     :     0.000432
      f-2     :     0.000404
      f+3     :     0.000471
      f-3     :     0.000779
 10 H s       :     0.565620  s :     0.565620
      pz      :     0.024834  p :     0.050359
      px      :     0.011591
      py      :     0.013933
 11 H s       :     0.616985  s :     0.616985
      pz      :     0.011836  p :     0.045313
      px      :     0.017712
      py      :     0.015766
 12 O s       :     3.795855  s :     3.795855
      pz      :     1.512653  p :     4.832041
      px      :     1.761617
      py      :     1.557771
      dz2     :     0.016351  d :     0.050750
      dxz     :     0.007966
      dyz     :     0.006600
      dx2y2   :     0.008023
      dxy     :     0.011810
      f0      :     0.000608  f :     0.003945
      f+1     :     0.000527
      f-1     :     0.000736
      f+2     :     0.000413
      f-2     :     0.000421
      f+3     :     0.000813
      f-3     :     0.000426
 13 H s       :     0.596624  s :     0.596624
      pz      :     0.018776  p :     0.045950
      px      :     0.014298
      py      :     0.012876
 14 H s       :     0.581771  s :     0.581771
      pz      :     0.011291  p :     0.044930
      px      :     0.015347
      py      :     0.018291
 15 O s       :     3.799992  s :     3.799992
      pz      :     1.535578  p :     4.878143
      px      :     1.796793
      py      :     1.545772
      dz2     :     0.015455  d :     0.049730
      dxz     :     0.008309
      dyz     :     0.006669
      dx2y2   :     0.007587
      dxy     :     0.011710
      f0      :     0.000616  f :     0.003941
      f+1     :     0.000523
      f-1     :     0.000719
      f+2     :     0.000416
      f-2     :     0.000420
      f+3     :     0.000814
      f-3     :     0.000433
 16 H s       :     0.580838  s :     0.580838
      pz      :     0.023128  p :     0.050602
      px      :     0.014707
      py      :     0.012767
 17 H s       :     0.599839  s :     0.599839
      pz      :     0.011825  p :     0.052829
      px      :     0.017751
      py      :     0.023252


                     *******************************
                     * LOEWDIN POPULATION ANALYSIS *
                     *******************************

----------------------
LOEWDIN ATOMIC CHARGES
----------------------
   0 O :   -0.313176
   1 H :    0.161780
   2 H :    0.145792
   3 O :   -0.295898
   4 H :    0.170511
   5 H :    0.147119
   6 O :   -0.362556
   7 H :    0.154405
   8 H :    0.140826
   9 O :   -0.293851
  10 H :    0.154126
  11 H :    0.168127
  12 O :   -0.264791
  13 H :    0.172411
  14 H :    0.180956
  15 O :   -0.355002
  16 H :    0.149020
  17 H :    0.140200

-------------------------------
LOEWDIN REDUCED ORBITAL CHARGES
-------------------------------
  0 O s       :     3.452930  s :     3.452930
      pz      :     1.665657  p :     4.798160
      px      :     1.398106
      py      :     1.734397
      dz2     :     0.010576  d :     0.057295
      dxz     :     0.011889
      dyz     :     0.010997
      dx2y2   :     0.009460
      dxy     :     0.014373
      f0      :     0.000472  f :     0.004791
      f+1     :     0.000855
      f-1     :     0.000651
      f+2     :     0.000412
      f-2     :     0.001016
      f+3     :     0.000480
      f-3     :     0.000905
  1 H s       :     0.669749  s :     0.669749
      pz      :     0.067149  p :     0.168470
      px      :     0.046628
      py      :     0.054694
  2 H s       :     0.655020  s :     0.655020
      pz      :     0.034762  p :     0.199188
      px      :     0.115440
      py      :     0.048985
  3 O s       :     3.454490  s :     3.454490
      pz      :     1.522858  p :     4.777782
      px      :     1.768636
      py      :     1.486287
      dz2     :     0.020548  d :     0.058800
      dxz     :     0.007040
      dyz     :     0.009345
      dx2y2   :     0.010456
      dxy     :     0.011411
      f0      :     0.000799  f :     0.004826
      f+1     :     0.000592
      f-1     :     0.001186
      f+2     :     0.000416
      f-2     :     0.000421
      f+3     :     0.000960
      f-3     :     0.000453
  4 H s       :     0.666480  s :     0.666480
      pz      :     0.080450  p :     0.163009
      px      :     0.044587
      py      :     0.037972
  5 H s       :     0.661925  s :     0.661925
      pz      :     0.030158  p :     0.190956
      px      :     0.053958
      py      :     0.106841
  6 O s       :     3.469390  s :     3.469390
      pz      :     1.527602  p :     4.830452
      px      :     1.479971
      py      :     1.822878
      dz2     :     0.020187  d :     0.057878
      dxz     :     0.009540
      dyz     :     0.007194
      dx2y2   :     0.009461
      dxy     :     0.011497
      f0      :     0.000804  f :     0.004836
      f+1     :     0.001205
      f-1     :     0.000575
      f+2     :     0.000420
      f-2     :     0.000415
      f+3     :     0.000445
      f-3     :     0.000971
  7 H s       :     0.683010  s :     0.683010
      pz      :     0.079468  p :     0.162585
      px      :     0.037774
      py      :     0.045343
  8 H s       :     0.670449  s :     0.670449
      pz      :     0.030207  p :     0.188725
      px      :     0.104386
      py      :     0.054132
  9 O s       :     3.459756  s :     3.459756
      pz      :     1.570967  p :     4.770368
      px      :     1.444155
      py      :     1.755246
      dz2     :     0.019680  d :     0.058909
      dxz     :     0.008895
      dyz     :     0.006955
      dx2y2   :     0.011154
      dxy     :     0.012224
      f0      :     0.000735  f :     0.004818
      f+1     :     0.001157
      f-1     :     0.000597
      f+2     :     0.000412
      f-2     :     0.000413
      f+3     :     0.000455
      f-3     :     0.001049
 10 H s       :     0.669129  s :     0.669129
      pz      :     0.096473  p :     0.176746
      px      :     0.036631
      py      :     0.043642
 11 H s       :     0.674301  s :     0.674301
      pz      :     0.032276  p :     0.157572
      px      :     0.074508
      py      :     0.050788
 12 O s       :     3.453717  s :     3.453717
      pz      :     1.510315  p :     4.746052
      px      :     1.704884
      py      :     1.530853
      dz2     :     0.021799  d :     0.060060
      dxz     :     0.007446
      dyz     :     0.007205
      dx2y2   :     0.009225
      dxy     :     0.014384
      f0      :     0.000878  f :     0.004962
      f+1     :     0.000738
      f-1     :     0.001011
      f+2     :     0.000390
      f-2     :     0.000422
      f+3     :     0.001115
      f-3     :     0.000408
 13 H s       :     0.665787  s :     0.665787
      pz      :     0.082007  p :     0.161802
      px      :     0.043126
      py      :     0.036669
 14 H s       :     0.658441  s :     0.658441
      pz      :     0.030477  p :     0.160603
      px      :     0.056024
      py      :     0.074102
 15 O s       :     3.457491  s :     3.457491
      pz      :     1.524241  p :     4.835403
      px      :     1.776583
      py      :     1.534579
      dz2     :     0.020224  d :     0.057289
      dxz     :     0.007676
      dyz     :     0.007206
      dx2y2   :     0.007678
      dxy     :     0.014505
      f0      :     0.000873  f :     0.004820
      f+1     :     0.000699
      f-1     :     0.000975
      f+2     :     0.000390
      f-2     :     0.000421
      f+3     :     0.001085
      f-3     :     0.000376
 16 H s       :     0.676989  s :     0.676989
      pz      :     0.092166  p :     0.173992
      px      :     0.043744
      py      :     0.038082
 17 H s       :     0.682186  s :     0.682186
      pz      :     0.032638  p :     0.177614
      px      :     0.059491
      py      :     0.085485


                      *****************************
                      * MAYER POPULATION ANALYSIS *
                      *****************************

  NA   - Mulliken gross atomic population
  ZA   - Total nuclear charge
  QA   - Mulliken gross atomic charge
  VA   - Mayer's total valence
  BVA  - Mayer's bonded valence
  FA   - Mayer's free valence

  ATOM       NA         ZA         QA         VA         BVA        FA
  0 O      8.7533     8.0000    -0.7533     2.0443     1.6544     0.3899
  1 H      0.6443     1.0000     0.3557     0.8952     0.8495     0.0457
  2 H      0.6183     1.0000     0.3817     0.9014     0.8565     0.0449
  3 O      8.7352     8.0000    -0.7352     2.0591     1.6714     0.3877
  4 H      0.6430     1.0000     0.3570     0.8921     0.8457     0.0464
  5 H      0.6270     1.0000     0.3730     0.9172     0.8724     0.0447
  6 O      8.7214     8.0000    -0.7214     2.0393     1.6527     0.3865
  7 H      0.6756     1.0000     0.3244     0.9161     0.8668     0.0493
  8 H      0.6408     1.0000     0.3592     0.9316     0.8862     0.0454
  9 O      8.6951     8.0000    -0.6951     2.1050     1.7201     0.3848
 10 H      0.6160     1.0000     0.3840     0.8963     0.8535     0.0428
 11 H      0.6623     1.0000     0.3377     0.9134     0.8645     0.0489
 12 O      8.6826     8.0000    -0.6826     2.1131     1.7324     0.3807
 13 H      0.6426     1.0000     0.3574     0.8942     0.8482     0.0460
 14 H      0.6267     1.0000     0.3733     0.8878     0.8433     0.0445
 15 O      8.7318     8.0000    -0.7318     2.0642     1.6779     0.3863
 16 H      0.6314     1.0000     0.3686     0.9000     0.8554     0.0446
 17 H      0.6527     1.0000     0.3473     0.9261     0.8799     0.0462

  Mayer bond orders larger than 0.100000
B(  0-O ,  1-H ) :   0.8375 B(  0-O ,  2-H ) :   0.7487 B(  3-O ,  4-H ) :   0.8357 
B(  3-O ,  5-H ) :   0.7583 B(  6-O ,  7-H ) :   0.8588 B(  6-O ,  8-H ) :   0.7899 
B(  9-O , 10-H ) :   0.7937 B(  9-O , 11-H ) :   0.8435 B( 12-O , 13-H ) :   0.8358 
B( 12-O , 14-H ) :   0.8218 B( 15-O , 16-H ) :   0.8234 B( 15-O , 17-H ) :   0.8261 



----------------------------------
MP2 DERIVATIVE INTEGRAL GENERATION
----------------------------------


Input Wavefunction Amplitudes       ... 12h2o.su.etal.mol1,4,6,7,9,11-orca.engrad-mp2.def2tzvp.frozencore.mp2tsaa.tmp
Input Correlated Electron Density   ... 12h2o.su.etal.mol1,4,6,7,9,11-orca.engrad-mp2.def2tzvp.frozencore.pmp2re
Input Energy Weighted Density       ... 12h2o.su.etal.mol1,4,6,7,9,11-orca.engrad-mp2.def2tzvp.frozencore.wmp2.tmp
Input SCF Electron Density          ... 12h2o.su.etal.mol1,4,6,7,9,11-orca.engrad-mp2.def2tzvp.frozencore.scfp

One-Electron Terms    ...
                        ... One-Electron Terms done
Prescreening matrices              ... done

Batch handling in the gradient evaluation:
Memory available                      ... 8000.0 MB
Memory per occupied orbital in Q2     ...   12.2 MB
Memory per occupied orbital in Q3     ...    0.1 MB
Total memory requirement per |i>      ...   12.3 MB
Max. Number of orbitals possible      ...    651
Number of orbitals treated per batch  ...     24
Number of batches to be done          ...      1
Batch   0: i=    6 ...    29

---------------------------------------
MP2 TOTAL ENERGY:     -457.934256154 Eh
---------------------------------------

The final MP2 gradient
  0:  -0.00530326   0.00484999   0.00238021
  1:   0.00060341   0.00058720  -0.00145991
  2:   0.01048792  -0.00360835  -0.00325293
  3:   0.00286009  -0.00122707   0.01274573
  4:   0.00064256  -0.00019436  -0.00861633
  5:   0.00120672   0.00029433   0.00115035
  6:   0.00177398   0.00134910  -0.01159547
  7:   0.00310963  -0.00152094   0.01008836
  8:  -0.00722471   0.00205782  -0.00150876
  9:  -0.01732583   0.00524709   0.00008830
 10:  -0.00126819  -0.00010185  -0.00332781
 11:   0.01726924  -0.00644681   0.00293536
 12:  -0.00587563  -0.00519176   0.00978784
 13:  -0.00286878  -0.00045172  -0.00695919
 14:   0.00384742   0.00535770  -0.00082377
 15:   0.00061147   0.00453643   0.00240368
 16:  -0.00135848   0.00065769  -0.00504360
 17:  -0.00118754  -0.00619449   0.00100793

-----------------------------------
NORM OF THE MP2 GRADIENT:  0.042400
-----------------------------------

-------------------------   --------------------
FINAL SINGLE POINT ENERGY      -457.934256153921
-------------------------   --------------------


                            ***************************************
                            *     ORCA property calculations      *
                            ***************************************

                                    ---------------------
                                    Active property flags
                                    ---------------------
   (+) Dipole Moment


------------------------------------------------------------------------------
                       ORCA ELECTRIC PROPERTIES CALCULATION
------------------------------------------------------------------------------

Dipole Moment Calculation                       ... on
Quadrupole Moment Calculation                   ... off
Polarizability Calculation                      ... off
GBWName                                         ... 12h2o.su.etal.mol1,4,6,7,9,11-orca.engrad-mp2.def2tzvp.frozencore.gbw
Electron density file                           ... 12h2o.su.etal.mol1,4,6,7,9,11-orca.engrad-mp2.def2tzvp.frozencore.scfp
The origin for moment calculation is the CENTER OF MASS  = (-0.847144,  0.232509  2.680422)

-------------
DIPOLE MOMENT
-------------
                                X             Y             Z
Electronic contribution:     -0.10522      -0.20770       0.06103
Nuclear contribution   :     -0.14496      -1.13354       0.03466
                        -----------------------------------------
Total Dipole Moment    :     -0.25018      -1.34124       0.09569
                        -----------------------------------------
Magnitude (a.u.)       :      1.36773
Magnitude (Debye)      :      3.47648



--------------------
Rotational spectrum 
--------------------
 
Rotational constants in cm-1:     0.052696     0.038628     0.036293 
Rotational constants in MHz :  1579.797629  1158.044280  1088.034299 

 Dipole components along the rotational axes: 
x,y,z [a.u.] :     0.999196    -0.042127     0.933009 
x,y,z [Debye]:     2.539755    -0.107078     2.371519 

 

                         *** MP2 UNRELAXED DENSITY ***

------------------------------------------------------------------------------
                       ORCA ELECTRIC PROPERTIES CALCULATION
------------------------------------------------------------------------------

Dipole Moment Calculation                       ... on
Quadrupole Moment Calculation                   ... off
Polarizability Calculation                      ... off
GBWName                                         ... 12h2o.su.etal.mol1,4,6,7,9,11-orca.engrad-mp2.def2tzvp.frozencore.gbw
Electron density file                           ... 12h2o.su.etal.mol1,4,6,7,9,11-orca.engrad-mp2.def2tzvp.frozencore.pmp2ur
The origin for moment calculation is the CENTER OF MASS  = (-0.847144,  0.232509  2.680422)

-------------
DIPOLE MOMENT
-------------
                                X             Y             Z
Electronic contribution:     -0.10552      -0.19963       0.06237
Nuclear contribution   :     -0.14496      -1.13354       0.03466
                        -----------------------------------------
Total Dipole Moment    :     -0.25048      -1.33318       0.09703
                        -----------------------------------------
Magnitude (a.u.)       :      1.35997
Magnitude (Debye)      :      3.45677



--------------------
Rotational spectrum 
--------------------
 
Rotational constants in cm-1:     0.052696     0.038628     0.036293 
Rotational constants in MHz :  1579.797629  1158.044280  1088.034299 

 Dipole components along the rotational axes: 
x,y,z [a.u.] :     0.995002    -0.040392     0.926205 
x,y,z [Debye]:     2.529093    -0.102669     2.354226 

 

                           *** MP2 RELAXED DENSITY ***

------------------------------------------------------------------------------
                       ORCA ELECTRIC PROPERTIES CALCULATION
------------------------------------------------------------------------------

Dipole Moment Calculation                       ... on
Quadrupole Moment Calculation                   ... off
Polarizability Calculation                      ... off
GBWName                                         ... 12h2o.su.etal.mol1,4,6,7,9,11-orca.engrad-mp2.def2tzvp.frozencore.gbw
Electron density file                           ... 12h2o.su.etal.mol1,4,6,7,9,11-orca.engrad-mp2.def2tzvp.frozencore.pmp2re
The origin for moment calculation is the CENTER OF MASS  = (-0.847144,  0.232509  2.680422)

-------------
DIPOLE MOMENT
-------------
                                X             Y             Z
Electronic contribution:     -0.10308      -0.20637       0.07087
Nuclear contribution   :     -0.14496      -1.13354       0.03466
                        -----------------------------------------
Total Dipole Moment    :     -0.24805      -1.33991       0.10553
                        -----------------------------------------
Magnitude (a.u.)       :      1.36676
Magnitude (Debye)      :      3.47403



--------------------
Rotational spectrum 
--------------------
 
Rotational constants in cm-1:     0.052696     0.038628     0.036293 
Rotational constants in MHz :  1579.797629  1158.044280  1088.034299 

 Dipole components along the rotational axes: 
x,y,z [a.u.] :     1.004925    -0.045314     0.925259 
x,y,z [Debye]:     2.554316    -0.115180     2.351821 

 

Timings for individual modules:

Sum of individual times         ...       81.251 sec (=   1.354 min)
GTO integral calculation        ...        0.941 sec (=   0.016 min)   1.2 %
SCF iterations                  ...       20.476 sec (=   0.341 min)  25.2 %
MP2 module                      ...       59.834 sec (=   0.997 min)  73.6 %
                             ****ORCA TERMINATED NORMALLY****
TOTAL RUN TIME: 0 days 0 hours 1 minutes 22 seconds 244 msec
