
                                 *****************
                                 * O   R   C   A *
                                 *****************

           --- An Ab Initio, DFT and Semiempirical electronic structure package ---

                  #######################################################
                  #                        -***-                        #
                  #          Department of theory and spectroscopy      #
                  #               Directorship: Frank Neese             #
                  #        Max Planck Institute fuer Kohlenforschung    #
                  #                Kaiser Wilhelm Platz 1               #
                  #                 D-45470 Muelheim/Ruhr               #
                  #                      Germany                        #
                  #                                                     #
                  #                  All rights reserved                #
                  #                        -***-                        #
                  #######################################################


                         Program Version 4.2.0 -  RELEASE  -


 With contributions from (in alphabetic order):
   Daniel Aravena         : Magnetic Suceptibility
   Michael Atanasov       : Ab Initio Ligand Field Theory (pilot matlab implementation)
   Alexander A. Auer      : GIAO ZORA, VPT2
   Ute Becker             : Parallelization
   Giovanni Bistoni       : ED, misc. LED, open-shell LED, HFLED
   Martin Brehm           : Molecular dynamics
   Dmytro Bykov           : SCF Hessian
   Vijay G. Chilkuri      : MRCI spin determinant printing, contributions to CSF-ICE
   Dipayan Datta          : RHF DLPNO-CCSD density
   Achintya Kumar Dutta   : EOM-CC, STEOM-CC
   Dmitry Ganyushin       : Spin-Orbit,Spin-Spin,Magnetic field MRCI
   Miquel Garcia          : C-PCM Hessian, Gaussian charge scheme
   Yang Guo               : DLPNO-NEVPT2, CIM, IAO-localization
   Andreas Hansen         : Spin unrestricted coupled pair/coupled cluster methods
   Benjamin Helmich-Paris : CASSCF linear response (MC-RPA)
   Lee Huntington         : MR-EOM, pCC
   Robert Izsak           : Overlap fitted RIJCOSX, COSX-SCS-MP3, EOM
   Christian Kollmar      : KDIIS, OOCD, Brueckner-CCSD(T), CCSD density
   Simone Kossmann        : Meta GGA functionals, TD-DFT gradient, OOMP2, MP2 Hessian
   Martin Krupicka        : AUTO-CI
   Lucas Lang             : DCDCAS
   Dagmar Lenk            : GEPOL surface, SMD
   Dimitrios Liakos       : Extrapolation schemes; Compound Job, initial MDCI parallelization
   Dimitrios Manganas     : Further ROCIS development; embedding schemes
   Dimitrios Pantazis     : SARC Basis sets
   Taras Petrenko         : DFT Hessian,TD-DFT gradient, ASA, ECA, R-Raman, ABS, FL, XAS/XES, NRVS
   Peter Pinski           : DLPNO-MP2, DLPNO-MP2 Gradient
   Christoph Reimann      : Effective Core Potentials
   Marius Retegan         : Local ZFS, SOC
   Christoph Riplinger    : Optimizer, TS searches, QM/MM, DLPNO-CCSD(T), (RO)-DLPNO pert. Triples
   Tobias Risthaus        : Range-separated hybrids, TD-DFT gradient, RPA, STAB
   Michael Roemelt        : Original ROCIS implementation
   Masaaki Saitow         : Open-shell DLPNO-CCSD energy and density
   Barbara Sandhoefer     : DKH picture change effects
   Avijit Sen             : IP-ROCIS
   Kantharuban Sivalingam : CASSCF convergence, NEVPT2, FIC-MRCI
   Bernardo de Souza      : ESD, SOC TD-DFT
   Georgi Stoychev        : AutoAux, RI-MP2 NMR
   Willem Van den Heuvel  : Paramagnetic NMR
   Boris Wezisla          : Elementary symmetry handling
   Frank Wennmohs         : Technical directorship


 We gratefully acknowledge several colleagues who have allowed us to
 interface, adapt or use parts of their codes:
   Stefan Grimme, W. Hujo, H. Kruse,             : VdW corrections, initial TS optimization,
                  C. Bannwarth                     DFT functionals, gCP, sTDA/sTD-DF
   Ed Valeev, F. Pavosevic, A. Kumar             : LibInt (2-el integral package), F12 methods
   Garnet Chan, S. Sharma, J. Yang, R. Olivares  : DMRG
   Ulf Ekstrom                                   : XCFun DFT Library
   Mihaly Kallay                                 : mrcc  (arbitrary order and MRCC methods)
   Andreas Klamt, Michael Diedenhofen            : otool_cosmo (COSMO solvation model)
   Jiri Pittner, Ondrej Demel                    : Mk-CCSD
   Frank Weinhold                                : gennbo (NPA and NBO analysis)
   Christopher J. Cramer and Donald G. Truhlar   : smd solvation model
   Lars Goerigk                                  : TD-DFT with DH, B97 family of functionals
   V. Asgeirsson, H. Jonsson                     : NEB implementation
   FAccTs GmbH                                   : IRC, NEB, NEB-TS, Multilevel, MM, QM/MM, CI optimization
   S Lehtola, MJT Oliveira, MAL Marques          : LibXC Library


 Your calculation uses the libint2 library for the computation of 2-el integrals
 For citations please refer to: http://libint.valeyev.net

 Your ORCA version has been built with support for libXC version: 4.2.3
 For citations please refer to: https://tddft.org/programs/libxc/

 This ORCA versions uses:
   CBLAS   interface :  Fast vector & matrix operations
   LAPACKE interface :  Fast linear algebra routines
   SCALAPACK package :  Parallel linear algebra routines


----- Orbital basis set information -----
Your calculation utilizes the basis: def2-TZVP
   F. Weigend and R. Ahlrichs, Phys. Chem. Chem. Phys. 7, 3297 (2005).

================================================================================
                                        WARNINGS
                       Please study these warnings very carefully!
================================================================================


WARNING: The frozen-core approximation for MP2-gradient calculations is turned on by default.

INFO   : the flag for use of LIBINT has been found!

================================================================================
                                       INPUT FILE
================================================================================
NAME = 12h2o.su.etal.mol0,1,3,6,7,8-orca.engrad-mp2.def2tzvp.frozencore.inp
|  1> # 12h2o.su.etal.mol0,1,3,6,7,8
|  2> ! MP2 def2-TZVP EnGrad TightSCF
|  3> 
|  4> %pal
|  5>     nprocs 6
|  6> end
|  7> 
|  8> %maxcore 8000
|  9> 
| 10> %scf
| 11>     ConvForced true
| 12> end
| 13> 
| 14> *xyz 0 1
| 15> O   1.794470000   0.923410000   2.768350000
| 16> H   2.338250000   1.359750000   3.430940000
| 17> H   0.879480000   1.303000000   2.865760000
| 18> O  -1.794470000  -0.923410000   2.768350000
| 19> H  -2.338250000  -1.359750000   3.430940000
| 20> H  -0.879480000  -1.303000000   2.865760000
| 21> O  -1.752130000  -0.741530000  -2.896280000
| 22> H  -2.036450000  -0.920500000  -1.984040000
| 23> H  -0.921210000  -1.242140000  -2.984230000
| 24> O   1.737840000   0.885520000  -0.052730000
| 25> H   2.090180000   1.032320000   0.841890000
| 26> H   0.839590000   1.284090000  -0.017130000
| 27> O  -1.737840000  -0.885520000  -0.052730000
| 28> H  -2.090180000  -1.032320000   0.841890000
| 29> H  -0.839590000  -1.284090000  -0.017130000
| 30> O   1.752130000   0.741530000  -2.896280000
| 31> H   2.036450000   0.920500000  -1.984040000
| 32> H   0.921210000   1.242140000  -2.984230000
| 33> *
| 34> 
| 35>                          ****END OF INPUT****
================================================================================

                     *******************************
                     * Energy+Gradient Calculation *
                     *******************************

---------------------------------
CARTESIAN COORDINATES (ANGSTROEM)
---------------------------------
  O      1.794470    0.923410    2.768350
  H      2.338250    1.359750    3.430940
  H      0.879480    1.303000    2.865760
  O     -1.794470   -0.923410    2.768350
  H     -2.338250   -1.359750    3.430940
  H     -0.879480   -1.303000    2.865760
  O     -1.752130   -0.741530   -2.896280
  H     -2.036450   -0.920500   -1.984040
  H     -0.921210   -1.242140   -2.984230
  O      1.737840    0.885520   -0.052730
  H      2.090180    1.032320    0.841890
  H      0.839590    1.284090   -0.017130
  O     -1.737840   -0.885520   -0.052730
  H     -2.090180   -1.032320    0.841890
  H     -0.839590   -1.284090   -0.017130
  O      1.752130    0.741530   -2.896280
  H      2.036450    0.920500   -1.984040
  H      0.921210    1.242140   -2.984230

----------------------------
CARTESIAN COORDINATES (A.U.)
----------------------------
  NO LB      ZA    FRAG     MASS         X           Y           Z
   0 O     8.0000    0    15.999    3.391057    1.744992    5.231423
   1 H     1.0000    0     1.008    4.418652    2.569555    6.483537
   2 H     1.0000    0     1.008    1.661976    2.462313    5.415502
   3 O     8.0000    0    15.999   -3.391057   -1.744992    5.231423
   4 H     1.0000    0     1.008   -4.418652   -2.569555    6.483537
   5 H     1.0000    0     1.008   -1.661976   -2.462313    5.415502
   6 O     8.0000    0    15.999   -3.311046   -1.401289   -5.473176
   7 H     1.0000    0     1.008   -3.848333   -1.739493   -3.749292
   8 H     1.0000    0     1.008   -1.740835   -2.347304   -5.639377
   9 O     8.0000    0    15.999    3.284042    1.673390   -0.099645
  10 H     1.0000    0     1.008    3.949868    1.950802    1.590942
  11 H     1.0000    0     1.008    1.586595    2.426578   -0.032371
  12 O     8.0000    0    15.999   -3.284042   -1.673390   -0.099645
  13 H     1.0000    0     1.008   -3.949868   -1.950802    1.590942
  14 H     1.0000    0     1.008   -1.586595   -2.426578   -0.032371
  15 O     8.0000    0    15.999    3.311046    1.401289   -5.473176
  16 H     1.0000    0     1.008    3.848333    1.739493   -3.749292
  17 H     1.0000    0     1.008    1.740835    2.347304   -5.639377

--------------------------------
INTERNAL COORDINATES (ANGSTROEM)
--------------------------------
 O      0   0   0     0.000000000000     0.00000000     0.00000000
 H      1   0   0     0.961828878803     0.00000000     0.00000000
 H      1   2   0     0.995381322057   106.21731035     0.00000000
 O      3   1   2     3.480861789658   117.35405144   223.81249033
 H      4   3   1     0.961828878803   134.84484566    98.22461471
 H      4   3   1     0.995381322057    62.29205096    12.66575463
 O      4   3   1     5.667707300743    90.09768939   276.02472436
 H      7   4   3     0.972136791249    18.92045113   191.47242104
 H      7   4   3     0.974050112161    94.59568686    71.02022155
 O      1   2   3     2.821902722526   134.92023192   114.47749497
 H     10   1   2     0.972645187106    21.75017499    16.91177088
 H     10   1   2     0.983350632989    88.66470709   242.75499327
 O      8   7   4     1.954571525578   151.55104644   356.10627670
 H     13   8   7     0.972645187106   148.29772527   173.62852352
 H     13   8   7     0.983350632989    99.67573411   310.71905253
 O     10   1   2     2.847229166523   177.43098014    94.85867930
 H     16  10  11     0.972136791249    19.08819947   351.20495187
 H     16  10  11     0.974050112161    93.43428486   227.10867198

---------------------------
INTERNAL COORDINATES (A.U.)
---------------------------
 O      0   0   0     0.000000000000     0.00000000     0.00000000
 H      1   0   0     1.817593168635     0.00000000     0.00000000
 H      1   2   0     1.880998097508   106.21731035     0.00000000
 O      3   1   2     6.577875492484   117.35405144   223.81249033
 H      4   3   1     1.817593168635   134.84484566    98.22461471
 H      4   3   1     1.880998097508    62.29205096    12.66575463
 O      4   3   1    10.710414605631    90.09768939   276.02472436
 H      7   4   3     1.837072300170    18.92045113   191.47242104
 H      7   4   3     1.840687952699    94.59568686    71.02022155
 O      1   2   3     5.332623322141   134.92023192   114.47749497
 H     10   1   2     1.838033029106    21.75017499    16.91177088
 H     10   1   2     1.858263389967    88.66470709   242.75499327
 O      8   7   4     3.693604892503   151.55104644   356.10627670
 H     13   8   7     1.838033029106   148.29772527   173.62852352
 H     13   8   7     1.858263389967    99.67573411   310.71905253
 O     10   1   2     5.380483365242   177.43098014    94.85867930
 H     16  10  11     1.837072300170    19.08819947   351.20495187
 H     16  10  11     1.840687952699    93.43428486   227.10867198

---------------------
BASIS SET INFORMATION
---------------------
There are 2 groups of distinct atoms

 Group   1 Type O   : 11s6p2d1f contracted to 5s3p2d1f pattern {62111/411/11/1}
 Group   2 Type H   : 5s1p contracted to 3s1p pattern {311/1}

Atom   0O    basis set group =>   1
Atom   1H    basis set group =>   2
Atom   2H    basis set group =>   2
Atom   3O    basis set group =>   1
Atom   4H    basis set group =>   2
Atom   5H    basis set group =>   2
Atom   6O    basis set group =>   1
Atom   7H    basis set group =>   2
Atom   8H    basis set group =>   2
Atom   9O    basis set group =>   1
Atom  10H    basis set group =>   2
Atom  11H    basis set group =>   2
Atom  12O    basis set group =>   1
Atom  13H    basis set group =>   2
Atom  14H    basis set group =>   2
Atom  15O    basis set group =>   1
Atom  16H    basis set group =>   2
Atom  17H    basis set group =>   2


           ************************************************************
           *        Program running with 6 parallel MPI-processes     *
           *              working on a common directory               *
           ************************************************************
------------------------------------------------------------------------------
                           ORCA GTO INTEGRAL CALCULATION
------------------------------------------------------------------------------

                         BASIS SET STATISTICS AND STARTUP INFO

 # of primitive gaussian shells          ...  192
 # of primitive gaussian functions       ...  372
 # of contracted shells                  ...  114
 # of contracted basis functions         ...  258
 Highest angular momentum                ...    3
 Maximum contraction depth               ...    6
 Integral package used                   ... LIBINT
 Integral threshhold            Thresh   ...  2.500e-11
 Primitive cut-off              TCut     ...  2.500e-12


------------------------------ INTEGRAL EVALUATION ----------------------------


 * One electron integrals 
 Pre-screening matrix                    ... done
 Shell pair data                         ... done (   0.001 sec)



           ************************************************************
           *        Program running with 6 parallel MPI-processes     *
           *              working on a common directory               *
           ************************************************************
-------------------------------------------------------------------------------
                                 ORCA SCF
-------------------------------------------------------------------------------

------------
SCF SETTINGS
------------
Hamiltonian:
 Ab initio Hamiltonian  Method          .... Hartree-Fock(GTOs)


General Settings:
 Integral files         IntName         .... 12h2o.su.etal.mol0,1,3,6,7,8-orca.engrad-mp2.def2tzvp.frozencore
 Hartree-Fock type      HFTyp           .... RHF
 Total Charge           Charge          ....    0
 Multiplicity           Mult            ....    1
 Number of Electrons    NEL             ....   60
 Basis Dimension        Dim             ....  258
 Nuclear Repulsion      ENuc            ....    248.1966252926 Eh

Convergence Acceleration:
 DIIS                   CNVDIIS         .... on
   Start iteration      DIISMaxIt       ....    12
   Startup error        DIISStart       ....  0.200000
   # of expansion vecs  DIISMaxEq       ....     5
   Bias factor          DIISBfac        ....   1.050
   Max. coefficient     DIISMaxC        ....  10.000
 Newton-Raphson         CNVNR           .... off
 SOSCF                  CNVSOSCF        .... on
   Start iteration      SOSCFMaxIt      ....   150
   Startup grad/error   SOSCFStart      ....  0.003300
 Level Shifting         CNVShift        .... on
   Level shift para.    LevelShift      ....    0.2500
   Turn off err/grad.   ShiftErr        ....    0.0010
 Zerner damping         CNVZerner       .... off
 Static damping         CNVDamp         .... on
   Fraction old density DampFac         ....    0.7000
   Max. Damping (<1)    DampMax         ....    0.9800
   Min. Damping (>=0)   DampMin         ....    0.0000
   Turn off err/grad.   DampErr         ....    0.1000
 Fernandez-Rico         CNVRico         .... off

SCF Procedure:
 Maximum # iterations   MaxIter         ....   125
 SCF integral mode      SCFMode         .... Direct
   Integral package                     .... LIBINT
 Reset frequency        DirectResetFreq ....    20
 Integral Threshold     Thresh          ....  2.500e-11 Eh
 Primitive CutOff       TCut            ....  2.500e-12 Eh

Convergence Tolerance:
 Convergence Check Mode ConvCheckMode   .... Total+1el-Energy
 Convergence forced     ConvForced      .... 1
 Energy Change          TolE            ....  1.000e-08 Eh
 1-El. energy change                    ....  1.000e-05 Eh
 Orbital Gradient       TolG            ....  1.000e-05
 Orbital Rotation angle TolX            ....  1.000e-05
 DIIS Error             TolErr          ....  5.000e-07


Diagonalization of the overlap matrix:
Smallest eigenvalue                        ... 7.622e-03
Time for diagonalization                   ...    0.010 sec
Threshold for overlap eigenvalues          ... 1.000e-08
Number of eigenvalues below threshold      ... 0
Time for construction of square roots      ...    0.005 sec
Total time needed                          ...    0.016 sec

-------------------
DFT GRID GENERATION
-------------------

General Integration Accuracy     IntAcc      ...  4.340
Radial Grid Type                 RadialGrid  ... Gauss-Chebyshev
Angular Grid (max. acc.)         AngularGrid ... Lebedev-110
Angular grid pruning method      GridPruning ... 3 (G Style)
Weight generation scheme         WeightScheme... Becke
Basis function cutoff            BFCut       ...    1.0000e-11
Integration weight cutoff        WCut        ...    1.0000e-14
Grids for H and He will be reduced by one unit

# of grid points (after initial pruning)     ...  19824 (   0.0 sec)
# of grid points (after weights+screening)   ...  18888 (   0.0 sec)
nearest neighbour list constructed           ...    0.0 sec
Grid point re-assignment to atoms done       ...    0.0 sec
Grid point division into batches done        ...    0.0 sec
Reduced shell lists constructed in    0.0 sec

Total number of grid points                  ...    18888
Total number of batches                      ...      302
Average number of points per batch           ...       62
Average number of grid points per atom       ...     1049
Average number of shells per batch           ...    49.15 (43.12%)
Average number of basis functions per batch  ...    95.81 (37.13%)
Average number of large shells per batch     ...    33.71 (68.58%)
Average number of large basis fcns per batch ...    66.40 (69.31%)
Maximum spatial batch extension              ...  14.53, 20.10, 13.04 au
Average spatial batch extension              ...   0.66,  0.79,  0.63 au

Time for grid setup =    0.056 sec

------------------------------
INITIAL GUESS: MODEL POTENTIAL
------------------------------
Loading Hartree-Fock densities                     ... done
Calculating cut-offs                               ... done
Setting up the integral package                    ... done
Initializing the effective Hamiltonian             ... done
Starting the Coulomb interaction                   ... done (   0.0 sec)
Reading the grid                                   ... done
Mapping shells                                     ... done
Starting the XC term evaluation                    ... done (   0.0 sec)
Transforming the Hamiltonian                       ... done (   0.0 sec)
Diagonalizing the Hamiltonian                      ... done (   0.0 sec)
Back transforming the eigenvectors                 ... done (   0.0 sec)
Now organizing SCF variables                       ... done
                      ------------------
                      INITIAL GUESS DONE (   0.2 sec)
                      ------------------
--------------
SCF ITERATIONS
--------------
ITER       Energy         Delta-E        Max-DP      RMS-DP      [F,P]     Damp
               ***  Starting incremental Fock matrix formation  ***
  0   -455.8084777196   0.000000000000 0.04347530  0.00097510  0.3424726 0.7000
  1   -456.0279889318  -0.219511212157 0.02874446  0.00067047  0.2162616 0.7000
                               ***Turning on DIIS***
  2   -456.1432438073  -0.115254875508 0.01624036  0.00036899  0.1635861 0.7000
  3   -457.1576587665  -1.014414959190 0.00755613  0.00016282  0.1217763 0.7000
  4   -456.9477945019   0.209864264571 0.01692581  0.00037604  0.0861584 0.0000
  5   -456.4085415011   0.539253000779 0.00189965  0.00006202  0.0053667 0.0000
                      *** Initiating the SOSCF procedure ***
                           *** Shutting down DIIS ***
                      *** Re-Reading the Fockian *** 
                      *** Removing any level shift *** 
ITER      Energy       Delta-E        Grad      Rot      Max-DP    RMS-DP
  6   -456.37490307   0.0336384326  0.000999  0.000999  0.000874  0.000038
               *** Restarting incremental Fock matrix formation ***
  7   -456.36472925   0.0101738137  0.000367  0.000523  0.000435  0.000016
  8   -456.36473810  -0.0000088468  0.000132  0.000393  0.000337  0.000013
  9   -456.36474013  -0.0000020271  0.000050  0.000036  0.000069  0.000002
 10   -456.36474030  -0.0000001677  0.000011  0.000010  0.000013  0.000000
                  ***Gradient check signals convergence***
              ***Rediagonalizing the Fockian in SOSCF/NRSCF***

               *****************************************************
               *                     SUCCESS                       *
               *           SCF CONVERGED AFTER  11 CYCLES          *
               *****************************************************


----------------
TOTAL SCF ENERGY
----------------

Total Energy       :         -456.36474030 Eh          -12418.31592 eV

Components:
Nuclear Repulsion  :          248.19662529 Eh            6753.77353 eV
Electronic Energy  :         -704.56136559 Eh          -19172.08945 eV
One Electron Energy:        -1124.66596708 Eh          -30603.71683 eV
Two Electron Energy:          420.10460148 Eh           11431.62738 eV

Virial components:
Potential Energy   :         -912.02915182 Eh          -24817.57492 eV
Kinetic Energy     :          455.66441152 Eh           12399.25900 eV
Virial Ratio       :            2.00153694


---------------
SCF CONVERGENCE
---------------

  Last Energy change         ...   -4.8792e-09  Tolerance :   1.0000e-08
  Last MAX-Density change    ...    3.6921e-06  Tolerance :   1.0000e-07
  Last RMS-Density change    ...    1.2478e-07  Tolerance :   5.0000e-09
  Last Orbital Gradient      ...    2.0034e-06  Tolerance :   1.0000e-05
  Last Orbital Rotation      ...    2.2253e-06  Tolerance :   1.0000e-05

             **** THE GBW FILE WAS UPDATED (12h2o.su.etal.mol0,1,3,6,7,8-orca.engrad-mp2.def2tzvp.frozencore.gbw) ****
             **** DENSITY FILE WAS UPDATED (12h2o.su.etal.mol0,1,3,6,7,8-orca.engrad-mp2.def2tzvp.frozencore.scfp) ****
             **** ENERGY FILE WAS UPDATED (12h2o.su.etal.mol0,1,3,6,7,8-orca.engrad-mp2.def2tzvp.frozencore.en.tmp) ****
             **** THE GBW FILE WAS UPDATED (12h2o.su.etal.mol0,1,3,6,7,8-orca.engrad-mp2.def2tzvp.frozencore.gbw) ****
             **** DENSITY FILE WAS UPDATED (12h2o.su.etal.mol0,1,3,6,7,8-orca.engrad-mp2.def2tzvp.frozencore.scfp) ****
----------------
ORBITAL ENERGIES
----------------

  NO   OCC          E(Eh)            E(eV) 
   0   2.0000     -20.609410      -560.8106 
   1   2.0000     -20.609410      -560.8106 
   2   2.0000     -20.561265      -559.5005 
   3   2.0000     -20.561264      -559.5004 
   4   2.0000     -20.516354      -558.2784 
   5   2.0000     -20.516353      -558.2784 
   6   2.0000      -1.387543       -37.7570 
   7   2.0000      -1.387146       -37.7462 
   8   2.0000      -1.342826       -36.5401 
   9   2.0000      -1.342199       -36.5231 
  10   2.0000      -1.298494       -35.3338 
  11   2.0000      -1.297732       -35.3131 
  12   2.0000      -0.755565       -20.5600 
  13   2.0000      -0.752686       -20.4816 
  14   2.0000      -0.712943       -19.4002 
  15   2.0000      -0.710669       -19.3383 
  16   2.0000      -0.667952       -18.1759 
  17   2.0000      -0.665498       -18.1091 
  18   2.0000      -0.626159       -17.0387 
  19   2.0000      -0.626035       -17.0353 
  20   2.0000      -0.588293       -16.0083 
  21   2.0000      -0.588253       -16.0072 
  22   2.0000      -0.552002       -15.0207 
  23   2.0000      -0.550451       -14.9785 
  24   2.0000      -0.532201       -14.4819 
  25   2.0000      -0.531773       -14.4703 
  26   2.0000      -0.508128       -13.8269 
  27   2.0000      -0.503813       -13.7094 
  28   2.0000      -0.466027       -12.6812 
  29   2.0000      -0.460002       -12.5173 
  30   0.0000       0.074683         2.0322 
  31   0.0000       0.110544         3.0081 
  32   0.0000       0.135639         3.6909 
  33   0.0000       0.160412         4.3650 
  34   0.0000       0.169611         4.6154 
  35   0.0000       0.189811         5.1650 
  36   0.0000       0.204429         5.5628 
  37   0.0000       0.229980         6.2581 
  38   0.0000       0.243456         6.6248 
  39   0.0000       0.258626         7.0376 
  40   0.0000       0.294903         8.0247 
  41   0.0000       0.310394         8.4462 
  42   0.0000       0.458283        12.4705 
  43   0.0000       0.478657        13.0249 
  44   0.0000       0.483828        13.1656 
  45   0.0000       0.506558        13.7841 
  46   0.0000       0.513060        13.9611 
  47   0.0000       0.515210        14.0196 
  48   0.0000       0.541162        14.7258 
  49   0.0000       0.550473        14.9791 
  50   0.0000       0.567974        15.4554 
  51   0.0000       0.578365        15.7381 
  52   0.0000       0.578401        15.7391 
  53   0.0000       0.604917        16.4606 
  54   0.0000       0.609032        16.5726 
  55   0.0000       0.612871        16.6771 
  56   0.0000       0.621935        16.9237 
  57   0.0000       0.643877        17.5208 
  58   0.0000       0.651843        17.7376 
  59   0.0000       0.665677        18.1140 
  60   0.0000       0.673659        18.3312 
  61   0.0000       0.698127        18.9970 
  62   0.0000       0.700901        19.0725 
  63   0.0000       0.710563        19.3354 
  64   0.0000       0.735659        20.0183 
  65   0.0000       0.754813        20.5395 
  66   0.0000       0.771247        20.9867 
  67   0.0000       0.789674        21.4881 
  68   0.0000       0.799686        21.7606 
  69   0.0000       0.820506        22.3271 
  70   0.0000       0.845053        22.9951 
  71   0.0000       0.845111        22.9966 
  72   0.0000       0.889428        24.2026 
  73   0.0000       0.890624        24.2351 
  74   0.0000       0.948050        25.7977 
  75   0.0000       0.958195        26.0738 
  76   0.0000       0.977808        26.6075 
  77   0.0000       1.006635        27.3919 
  78   0.0000       1.363675        37.1075 
  79   0.0000       1.364632        37.1335 
  80   0.0000       1.392212        37.8840 
  81   0.0000       1.393640        37.9229 
  82   0.0000       1.406164        38.2637 
  83   0.0000       1.411202        38.4008 
  84   0.0000       1.446100        39.3504 
  85   0.0000       1.447490        39.3882 
  86   0.0000       1.453706        39.5573 
  87   0.0000       1.459027        39.7021 
  88   0.0000       1.512416        41.1549 
  89   0.0000       1.523369        41.4530 
  90   0.0000       1.527571        41.5673 
  91   0.0000       1.533360        41.7248 
  92   0.0000       1.583769        43.0966 
  93   0.0000       1.590307        43.2744 
  94   0.0000       1.629953        44.3533 
  95   0.0000       1.639182        44.6044 
  96   0.0000       1.778299        48.3900 
  97   0.0000       1.827548        49.7301 
  98   0.0000       1.847319        50.2681 
  99   0.0000       1.849678        50.3323 
 100   0.0000       1.873669        50.9851 
 101   0.0000       1.884147        51.2702 
 102   0.0000       1.904629        51.8276 
 103   0.0000       1.913803        52.0772 
 104   0.0000       1.949460        53.0475 
 105   0.0000       1.951954        53.1154 
 106   0.0000       1.983400        53.9711 
 107   0.0000       2.006319        54.5947 
 108   0.0000       2.014693        54.8226 
 109   0.0000       2.020549        54.9819 
 110   0.0000       2.062461        56.1224 
 111   0.0000       2.067885        56.2700 
 112   0.0000       2.146161        58.4000 
 113   0.0000       2.152442        58.5709 
 114   0.0000       2.259168        61.4751 
 115   0.0000       2.260689        61.5165 
 116   0.0000       2.298132        62.5353 
 117   0.0000       2.308337        62.8130 
 118   0.0000       2.310822        62.8807 
 119   0.0000       2.323387        63.2226 
 120   0.0000       2.336475        63.5787 
 121   0.0000       2.338209        63.6259 
 122   0.0000       2.352621        64.0181 
 123   0.0000       2.360084        64.2212 
 124   0.0000       2.368162        64.4410 
 125   0.0000       2.370289        64.4988 
 126   0.0000       2.395243        65.1779 
 127   0.0000       2.402571        65.3773 
 128   0.0000       2.433275        66.2128 
 129   0.0000       2.436367        66.2969 
 130   0.0000       2.498278        67.9816 
 131   0.0000       2.505947        68.1903 
 132   0.0000       2.559478        69.6469 
 133   0.0000       2.562522        69.7298 
 134   0.0000       2.618666        71.2575 
 135   0.0000       2.621477        71.3340 
 136   0.0000       2.640699        71.8571 
 137   0.0000       2.646311        72.0098 
 138   0.0000       2.665525        72.5326 
 139   0.0000       2.675746        72.8108 
 140   0.0000       2.722143        74.0733 
 141   0.0000       2.742344        74.6230 
 142   0.0000       2.744781        74.6893 
 143   0.0000       2.760729        75.1232 
 144   0.0000       2.858011        77.7704 
 145   0.0000       2.888146        78.5905 
 146   0.0000       2.930881        79.7533 
 147   0.0000       2.939326        79.9831 
 148   0.0000       2.969316        80.7992 
 149   0.0000       2.978547        81.0504 
 150   0.0000       2.991943        81.4149 
 151   0.0000       3.003701        81.7349 
 152   0.0000       3.011760        81.9542 
 153   0.0000       3.017077        82.0988 
 154   0.0000       3.034581        82.5751 
 155   0.0000       3.045004        82.8588 
 156   0.0000       3.060002        83.2669 
 157   0.0000       3.082755        83.8860 
 158   0.0000       3.089503        84.0697 
 159   0.0000       3.129931        85.1698 
 160   0.0000       3.152440        85.7823 
 161   0.0000       3.206222        87.2457 
 162   0.0000       3.216750        87.5322 
 163   0.0000       3.223829        87.7249 
 164   0.0000       3.245314        88.3095 
 165   0.0000       3.261393        88.7470 
 166   0.0000       3.338354        90.8412 
 167   0.0000       3.345381        91.0324 
 168   0.0000       3.952768       107.5603 
 169   0.0000       3.957226       107.6816 
 170   0.0000       4.035767       109.8188 
 171   0.0000       4.044704       110.0620 
 172   0.0000       4.081159       111.0540 
 173   0.0000       4.096589       111.4739 
 174   0.0000       4.265570       116.0721 
 175   0.0000       4.268387       116.1487 
 176   0.0000       4.307020       117.2000 
 177   0.0000       4.313787       117.3841 
 178   0.0000       4.354744       118.4986 
 179   0.0000       4.360003       118.6417 
 180   0.0000       5.507218       149.8590 
 181   0.0000       5.507379       149.8634 
 182   0.0000       5.548930       150.9941 
 183   0.0000       5.549312       151.0045 
 184   0.0000       5.590480       152.1247 
 185   0.0000       5.590527       152.1260 
 186   0.0000       5.592981       152.1927 
 187   0.0000       5.593087       152.1956 
 188   0.0000       5.658059       153.9636 
 189   0.0000       5.659247       153.9959 
 190   0.0000       5.695676       154.9872 
 191   0.0000       5.696507       155.0098 
 192   0.0000       5.767336       156.9372 
 193   0.0000       5.768626       156.9723 
 194   0.0000       5.805524       157.9763 
 195   0.0000       5.806261       157.9964 
 196   0.0000       5.819209       158.3487 
 197   0.0000       5.820879       158.3942 
 198   0.0000       5.857977       159.4037 
 199   0.0000       5.858708       159.4235 
 200   0.0000       5.868737       159.6964 
 201   0.0000       5.869774       159.7247 
 202   0.0000       5.875636       159.8842 
 203   0.0000       5.876783       159.9154 
 204   0.0000       5.892018       160.3300 
 205   0.0000       5.893304       160.3650 
 206   0.0000       5.914015       160.9285 
 207   0.0000       5.915309       160.9637 
 208   0.0000       5.943953       161.7432 
 209   0.0000       5.944742       161.7647 
 210   0.0000       6.383530       173.7047 
 211   0.0000       6.388376       173.8366 
 212   0.0000       6.466016       175.9492 
 213   0.0000       6.469730       176.0503 
 214   0.0000       6.531409       177.7287 
 215   0.0000       6.535541       177.8411 
 216   0.0000       6.644492       180.8058 
 217   0.0000       6.648155       180.9055 
 218   0.0000       6.683455       181.8661 
 219   0.0000       6.687439       181.9745 
 220   0.0000       6.725246       183.0032 
 221   0.0000       6.731604       183.1763 
 222   0.0000       6.838657       186.0893 
 223   0.0000       6.838866       186.0950 
 224   0.0000       6.852360       186.4622 
 225   0.0000       6.853355       186.4893 
 226   0.0000       6.867379       186.8709 
 227   0.0000       6.867661       186.8785 
 228   0.0000       6.874704       187.0702 
 229   0.0000       6.878021       187.1605 
 230   0.0000       6.878312       187.1684 
 231   0.0000       6.882017       187.2692 
 232   0.0000       6.917537       188.2358 
 233   0.0000       6.917632       188.2383 
 234   0.0000       6.928846       188.5435 
 235   0.0000       6.929759       188.5683 
 236   0.0000       6.993466       190.3019 
 237   0.0000       6.993756       190.3098 
 238   0.0000       7.007114       190.6733 
 239   0.0000       7.009117       190.7278 
 240   0.0000       7.325844       199.3463 
 241   0.0000       7.334548       199.5832 
 242   0.0000       7.372760       200.6230 
 243   0.0000       7.379298       200.8009 
 244   0.0000       7.410871       201.6601 
 245   0.0000       7.418763       201.8748 
 246   0.0000       7.447024       202.6438 
 247   0.0000       7.461998       203.0513 
 248   0.0000       7.568704       205.9549 
 249   0.0000       7.580775       206.2834 
 250   0.0000       7.600176       206.8113 
 251   0.0000       7.607351       207.0066 
 252   0.0000      44.805388      1219.2166 
 253   0.0000      44.848642      1220.3936 
 254   0.0000      44.911208      1222.0961 
 255   0.0000      44.946246      1223.0495 
 256   0.0000      44.953968      1223.2597 
 257   0.0000      44.961344      1223.4604 

                    ********************************
                    * MULLIKEN POPULATION ANALYSIS *
                    ********************************

-----------------------
MULLIKEN ATOMIC CHARGES
-----------------------
   0 O :   -0.724880
   1 H :    0.366129
   2 H :    0.368000
   3 O :   -0.724880
   4 H :    0.366129
   5 H :    0.368000
   6 O :   -0.728643
   7 H :    0.384785
   8 H :    0.337965
   9 O :   -0.740048
  10 H :    0.391653
  11 H :    0.345039
  12 O :   -0.740048
  13 H :    0.391653
  14 H :    0.345039
  15 O :   -0.728643
  16 H :    0.384785
  17 H :    0.337965
Sum of atomic charges:   -0.0000000

--------------------------------
MULLIKEN REDUCED ORBITAL CHARGES
--------------------------------
  0 O s       :     3.811247  s :     3.811247
      pz      :     1.721553  p :     4.887493
      px      :     1.363078
      py      :     1.802862
      dz2     :     0.004018  d :     0.024627
      dxz     :     0.004342
      dyz     :     0.005741
      dx2y2   :     0.002528
      dxy     :     0.007998
      f0      :     0.000083  f :     0.001513
      f+1     :     0.000330
      f-1     :     0.000185
      f+2     :     0.000070
      f-2     :     0.000350
      f+3     :     0.000099
      f-3     :     0.000395
  1 H s       :     0.588564  s :     0.588564
      pz      :     0.017022  p :     0.045307
      px      :     0.013485
      py      :     0.014800
  2 H s       :     0.590381  s :     0.590381
      pz      :     0.010733  p :     0.041620
      px      :     0.017789
      py      :     0.013098
  3 O s       :     3.811247  s :     3.811247
      pz      :     1.721553  p :     4.887493
      px      :     1.363078
      py      :     1.802862
      dz2     :     0.004018  d :     0.024627
      dxz     :     0.004342
      dyz     :     0.005741
      dx2y2   :     0.002528
      dxy     :     0.007998
      f0      :     0.000083  f :     0.001513
      f+1     :     0.000330
      f-1     :     0.000185
      f+2     :     0.000070
      f-2     :     0.000350
      f+3     :     0.000099
      f-3     :     0.000395
  4 H s       :     0.588564  s :     0.588564
      pz      :     0.017022  p :     0.045307
      px      :     0.013485
      py      :     0.014800
  5 H s       :     0.590381  s :     0.590381
      pz      :     0.010733  p :     0.041620
      px      :     0.017789
      py      :     0.013098
  6 O s       :     3.810845  s :     3.810845
      pz      :     1.554010  p :     4.890875
      px      :     1.521008
      py      :     1.815857
      dz2     :     0.011543  d :     0.025431
      dxz     :     0.001207
      dyz     :     0.002991
      dx2y2   :     0.002085
      dxy     :     0.007605
      f0      :     0.000248  f :     0.001490
      f+1     :     0.000376
      f-1     :     0.000166
      f+2     :     0.000056
      f-2     :     0.000055
      f+3     :     0.000069
      f-3     :     0.000519
  7 H s       :     0.566548  s :     0.566548
      pz      :     0.024398  p :     0.048667
      px      :     0.011482
      py      :     0.012787
  8 H s       :     0.617198  s :     0.617198
      pz      :     0.010939  p :     0.044837
      px      :     0.017999
      py      :     0.015899
  9 O s       :     3.809788  s :     3.809788
      pz      :     1.588796  p :     4.904809
      px      :     1.441562
      py      :     1.874452
      dz2     :     0.010231  d :     0.023980
      dxz     :     0.002532
      dyz     :     0.002480
      dx2y2   :     0.003149
      dxy     :     0.005587
      f0      :     0.000182  f :     0.001470
      f+1     :     0.000432
      f-1     :     0.000123
      f+2     :     0.000079
      f-2     :     0.000037
      f+3     :     0.000129
      f-3     :     0.000490
 10 H s       :     0.559214  s :     0.559214
      pz      :     0.024589  p :     0.049133
      px      :     0.011296
      py      :     0.013248
 11 H s       :     0.611610  s :     0.611610
      pz      :     0.009852  p :     0.043351
      px      :     0.018211
      py      :     0.015288
 12 O s       :     3.809788  s :     3.809788
      pz      :     1.588796  p :     4.904809
      px      :     1.441562
      py      :     1.874452
      dz2     :     0.010231  d :     0.023980
      dxz     :     0.002532
      dyz     :     0.002480
      dx2y2   :     0.003149
      dxy     :     0.005587
      f0      :     0.000182  f :     0.001470
      f+1     :     0.000432
      f-1     :     0.000123
      f+2     :     0.000079
      f-2     :     0.000037
      f+3     :     0.000129
      f-3     :     0.000490
 13 H s       :     0.559214  s :     0.559214
      pz      :     0.024589  p :     0.049133
      px      :     0.011296
      py      :     0.013248
 14 H s       :     0.611610  s :     0.611610
      pz      :     0.009852  p :     0.043351
      px      :     0.018211
      py      :     0.015288
 15 O s       :     3.810845  s :     3.810845
      pz      :     1.554010  p :     4.890875
      px      :     1.521008
      py      :     1.815857
      dz2     :     0.011543  d :     0.025431
      dxz     :     0.001207
      dyz     :     0.002991
      dx2y2   :     0.002085
      dxy     :     0.007605
      f0      :     0.000248  f :     0.001490
      f+1     :     0.000376
      f-1     :     0.000166
      f+2     :     0.000056
      f-2     :     0.000055
      f+3     :     0.000069
      f-3     :     0.000519
 16 H s       :     0.566548  s :     0.566548
      pz      :     0.024398  p :     0.048667
      px      :     0.011482
      py      :     0.012787
 17 H s       :     0.617198  s :     0.617198
      pz      :     0.010939  p :     0.044837
      px      :     0.017999
      py      :     0.015899


                     *******************************
                     * LOEWDIN POPULATION ANALYSIS *
                     *******************************

----------------------
LOEWDIN ATOMIC CHARGES
----------------------
   0 O :   -0.317504
   1 H :    0.165391
   2 H :    0.186486
   3 O :   -0.317504
   4 H :    0.165391
   5 H :    0.186486
   6 O :   -0.345387
   7 H :    0.156272
   8 H :    0.159768
   9 O :   -0.331622
  10 H :    0.158318
  11 H :    0.168278
  12 O :   -0.331622
  13 H :    0.158318
  14 H :    0.168278
  15 O :   -0.345387
  16 H :    0.156272
  17 H :    0.159768

-------------------------------
LOEWDIN REDUCED ORBITAL CHARGES
-------------------------------
  0 O s       :     3.468179  s :     3.468179
      pz      :     1.683463  p :     4.815289
      px      :     1.356313
      py      :     1.775513
      dz2     :     0.005357  d :     0.031941
      dxz     :     0.006711
      dyz     :     0.005697
      dx2y2   :     0.003901
      dxy     :     0.010275
      f0      :     0.000089  f :     0.002094
      f+1     :     0.000448
      f-1     :     0.000270
      f+2     :     0.000035
      f-2     :     0.000604
      f+3     :     0.000093
      f-3     :     0.000556
  1 H s       :     0.671148  s :     0.671148
      pz      :     0.066485  p :     0.163461
      px      :     0.044288
      py      :     0.052687
  2 H s       :     0.665137  s :     0.665137
      pz      :     0.033428  p :     0.148376
      px      :     0.071262
      py      :     0.043686
  3 O s       :     3.468179  s :     3.468179
      pz      :     1.683463  p :     4.815289
      px      :     1.356313
      py      :     1.775513
      dz2     :     0.005357  d :     0.031941
      dxz     :     0.006711
      dyz     :     0.005697
      dx2y2   :     0.003901
      dxy     :     0.010275
      f0      :     0.000089  f :     0.002094
      f+1     :     0.000448
      f-1     :     0.000270
      f+2     :     0.000035
      f-2     :     0.000604
      f+3     :     0.000093
      f-3     :     0.000556
  4 H s       :     0.671148  s :     0.671148
      pz      :     0.066485  p :     0.163461
      px      :     0.044288
      py      :     0.052687
  5 H s       :     0.665137  s :     0.665137
      pz      :     0.033428  p :     0.148376
      px      :     0.071262
      py      :     0.043686
  6 O s       :     3.467260  s :     3.467260
      pz      :     1.536871  p :     4.844171
      px      :     1.521438
      py      :     1.785863
      dz2     :     0.015215  d :     0.031830
      dxz     :     0.001878
      dyz     :     0.002324
      dx2y2   :     0.002327
      dxy     :     0.010086
      f0      :     0.000434  f :     0.002126
      f+1     :     0.000564
      f-1     :     0.000319
      f+2     :     0.000024
      f-2     :     0.000045
      f+3     :     0.000003
      f-3     :     0.000736
  7 H s       :     0.673197  s :     0.673197
      pz      :     0.093037  p :     0.170531
      px      :     0.035701
      py      :     0.041793
  8 H s       :     0.682716  s :     0.682716
      pz      :     0.031269  p :     0.157516
      px      :     0.071360
      py      :     0.054888
  9 O s       :     3.465166  s :     3.465166
      pz      :     1.555113  p :     4.833037
      px      :     1.444561
      py      :     1.833362
      dz2     :     0.014363  d :     0.031357
      dxz     :     0.003746
      dyz     :     0.001633
      dx2y2   :     0.004428
      dxy     :     0.007187
      f0      :     0.000353  f :     0.002062
      f+1     :     0.000708
      f-1     :     0.000194
      f+2     :     0.000043
      f-2     :     0.000041
      f+3     :     0.000074
      f-3     :     0.000649
 10 H s       :     0.670213  s :     0.670213
      pz      :     0.093467  p :     0.171469
      px      :     0.035439
      py      :     0.042563
 11 H s       :     0.677832  s :     0.677832
      pz      :     0.030622  p :     0.153890
      px      :     0.073927
      py      :     0.049341
 12 O s       :     3.465166  s :     3.465166
      pz      :     1.555113  p :     4.833037
      px      :     1.444561
      py      :     1.833362
      dz2     :     0.014363  d :     0.031357
      dxz     :     0.003746
      dyz     :     0.001633
      dx2y2   :     0.004428
      dxy     :     0.007187
      f0      :     0.000353  f :     0.002062
      f+1     :     0.000708
      f-1     :     0.000194
      f+2     :     0.000043
      f-2     :     0.000041
      f+3     :     0.000074
      f-3     :     0.000649
 13 H s       :     0.670213  s :     0.670213
      pz      :     0.093467  p :     0.171469
      px      :     0.035439
      py      :     0.042563
 14 H s       :     0.677832  s :     0.677832
      pz      :     0.030622  p :     0.153890
      px      :     0.073927
      py      :     0.049341
 15 O s       :     3.467260  s :     3.467260
      pz      :     1.536871  p :     4.844171
      px      :     1.521438
      py      :     1.785863
      dz2     :     0.015215  d :     0.031830
      dxz     :     0.001878
      dyz     :     0.002324
      dx2y2   :     0.002327
      dxy     :     0.010086
      f0      :     0.000434  f :     0.002126
      f+1     :     0.000564
      f-1     :     0.000319
      f+2     :     0.000024
      f-2     :     0.000045
      f+3     :     0.000003
      f-3     :     0.000736
 16 H s       :     0.673197  s :     0.673197
      pz      :     0.093037  p :     0.170531
      px      :     0.035701
      py      :     0.041793
 17 H s       :     0.682716  s :     0.682716
      pz      :     0.031269  p :     0.157516
      px      :     0.071360
      py      :     0.054888


                      *****************************
                      * MAYER POPULATION ANALYSIS *
                      *****************************

  NA   - Mulliken gross atomic population
  ZA   - Total nuclear charge
  QA   - Mulliken gross atomic charge
  VA   - Mayer's total valence
  BVA  - Mayer's bonded valence
  FA   - Mayer's free valence

  ATOM       NA         ZA         QA         VA         BVA        FA
  0 O      8.7249     8.0000    -0.7249     1.7641     1.7641    -0.0000
  1 H      0.6339     1.0000     0.3661     0.8812     0.8812    -0.0000
  2 H      0.6320     1.0000     0.3680     0.8796     0.8796    -0.0000
  3 O      8.7249     8.0000    -0.7249     1.7641     1.7641    -0.0000
  4 H      0.6339     1.0000     0.3661     0.8812     0.8812     0.0000
  5 H      0.6320     1.0000     0.3680     0.8796     0.8796    -0.0000
  6 O      8.7286     8.0000    -0.7286     1.7509     1.7509     0.0000
  7 H      0.6152     1.0000     0.3848     0.8776     0.8776     0.0000
  8 H      0.6620     1.0000     0.3380     0.9030     0.9030     0.0000
  9 O      8.7400     8.0000    -0.7400     1.7434     1.7434     0.0000
 10 H      0.6083     1.0000     0.3917     0.8746     0.8746     0.0000
 11 H      0.6550     1.0000     0.3450     0.9000     0.9000     0.0000
 12 O      8.7400     8.0000    -0.7400     1.7434     1.7434    -0.0000
 13 H      0.6083     1.0000     0.3917     0.8746     0.8746    -0.0000
 14 H      0.6550     1.0000     0.3450     0.9000     0.9000    -0.0000
 15 O      8.7286     8.0000    -0.7286     1.7509     1.7509     0.0000
 16 H      0.6152     1.0000     0.3848     0.8776     0.8776    -0.0000
 17 H      0.6620     1.0000     0.3380     0.9030     0.9030     0.0000

  Mayer bond orders larger than 0.100000
B(  0-O ,  1-H ) :   0.8737 B(  0-O ,  2-H ) :   0.8680 B(  3-O ,  4-H ) :   0.8737 
B(  3-O ,  5-H ) :   0.8680 B(  6-O ,  7-H ) :   0.8518 B(  6-O ,  8-H ) :   0.8933 
B(  9-O , 10-H ) :   0.8417 B(  9-O , 11-H ) :   0.8840 B( 12-O , 13-H ) :   0.8417 
B( 12-O , 14-H ) :   0.8840 B( 15-O , 16-H ) :   0.8518 B( 15-O , 17-H ) :   0.8933 


-------
TIMINGS
-------

Total SCF time: 0 days 0 hours 0 min 9 sec 

Total time                  ....       9.902 sec
Sum of individual times     ....       9.645 sec  ( 97.4%)

Fock matrix formation       ....       9.297 sec  ( 93.9%)
Diagonalization             ....       0.077 sec  (  0.8%)
Density matrix formation    ....       0.010 sec  (  0.1%)
Population analysis         ....       0.007 sec  (  0.1%)
Initial guess               ....       0.140 sec  (  1.4%)
Orbital Transformation      ....       0.000 sec  (  0.0%)
Orbital Orthonormalization  ....       0.000 sec  (  0.0%)
DIIS solution               ....       0.028 sec  (  0.3%)
SOSCF solution              ....       0.031 sec  (  0.3%)


           ************************************************************
           *        Program running with 6 parallel MPI-processes     *
           *              working on a common directory               *
           ************************************************************

------------------------------------------------------------------------------
                                ORCA  MP2 
------------------------------------------------------------------------------

Freezing NCore=12 chemical core electrons
MP2 will be done in the AO integral direct mode
The Q1-step will be done using symmetric double matrices
Dimension of the basis                    ...  258
Memory devoted for MP2                    ... 8000 MB   
Memory needed for all in one shot         ...  264 MB
Number of MOs that can be treated together...  120      
MP2 density construction                  ... relaxed
The MP2 gradient is requested => amplitudes will be stored on disk
Total number of MOs              ...   24
Number of MOs treated per batch  ...    4 
Number of batches necessary      ...    1 
OPERATORS   0/  0 PASS   0
-----------------------------------------------
 MP2 CORRELATION ENERGY   :     -1.544323790 Eh
-----------------------------------------------


---------------------
MP2 DENSITY FORMATION
---------------------

Completing the external part of the density      ... done
Storing the unrelaxed density                    ... done

Calculating G(D)                                 ... done
Completing the Lagrangian                        ... done
Solving the Z-vector equations                   ... 

------------------------------------------------------------------------------
                           ORCA CP-SCF CALCULATION
------------------------------------------------------------------------------

Input orbitals are from        ... 12h2o.su.etal.mol0,1,3,6,7,8-orca.engrad-mp2.def2tzvp.frozencore.gbw
Input Perturbation             ... 12h2o.su.etal.mol0,1,3,6,7,8-orca.engrad-mp2.def2tzvp.frozencore.pin.tmp
Wavefunction output            ... 12h2o.su.etal.mol0,1,3,6,7,8-orca.engrad-mp2.def2tzvp.frozencore.pout.tmp
Perturbation mode              ... Real perturbation (singlet)
Solver                         ... POPLE
Max. number of iterations      ... 128
Convergence tolerance          ... 1.000e-08
Integral handling              ... Direct
Number of perturbations        ... 1
Number of operators            ... 1
Orbital ranges used for CP-SCF:
 Operator 0:  Orbitals   0... 29  to  30...257
Variables per vector in CP-SCF ... 6840
Number of vectors sought       ... 1
     CP-SCF ITERATION   0: 
     CP-SCF ITERATION   1:      0.000745757826
     CP-SCF ITERATION   2:      0.000016688880
     CP-SCF ITERATION   3:      0.000000500883
     CP-SCF ITERATION   4:      0.000000039590
     CP-SCF ITERATION   5:      0.000000003879
                                                 ... done
Finalizing the relaxed density                   ... done
Transforming P to the AO basis                   ... done
Storing the relaxed density                      ... done

------------------------------------
ENERGY WEIGHTED DENSITY FINALIZATION
------------------------------------

Gathering the parts of the W-matrix              ...                                                      done
Forming the Z-density                            ... done
Transforming Z to the AO basis                   ... done
Calculating G(Z)                                 ... done
Finalizing the W-matrix                          ...                                                      done
Transforming W to the AO basis and storing       ... done

                *********************************************
                * UNRELAXED MP2 DENSITY POPULATION ANALYSIS *
                *********************************************

------------------------------------------------------------------------------
                           ORCA POPULATION ANALYSIS
------------------------------------------------------------------------------
Input electron density              ... 12h2o.su.etal.mol0,1,3,6,7,8-orca.engrad-mp2.def2tzvp.frozencore.pmp2ur
BaseName (.gbw .S,...)              ... 12h2o.su.etal.mol0,1,3,6,7,8-orca.engrad-mp2.def2tzvp.frozencore

                    ********************************
                    * MULLIKEN POPULATION ANALYSIS *
                    ********************************

-----------------------
MULLIKEN ATOMIC CHARGES
-----------------------
   0 O :   -0.719583
   1 H :    0.363951
   2 H :    0.365168
   3 O :   -0.719583
   4 H :    0.363951
   5 H :    0.365168
   6 O :   -0.723303
   7 H :    0.381877
   8 H :    0.335380
   9 O :   -0.734448
  10 H :    0.388823
  11 H :    0.342137
  12 O :   -0.734448
  13 H :    0.388823
  14 H :    0.342137
  15 O :   -0.723303
  16 H :    0.381877
  17 H :    0.335380
Sum of atomic charges:   -0.0000000

--------------------------------
MULLIKEN REDUCED ORBITAL CHARGES
--------------------------------
  0 O s       :     3.806452  s :     3.806452
      pz      :     1.710656  p :     4.857624
      px      :     1.355426
      py      :     1.791542
      dz2     :     0.009534  d :     0.051441
      dxz     :     0.009705
      dyz     :     0.011126
      dx2y2   :     0.007870
      dxy     :     0.013207
      f0      :     0.000454  f :     0.004066
      f+1     :     0.000691
      f-1     :     0.000551
      f+2     :     0.000437
      f-2     :     0.000713
      f+3     :     0.000467
      f-3     :     0.000752
  1 H s       :     0.589198  s :     0.589198
      pz      :     0.017485  p :     0.046851
      px      :     0.013865
      py      :     0.015501
  2 H s       :     0.591665  s :     0.591665
      pz      :     0.011565  p :     0.043167
      px      :     0.017727
      py      :     0.013874
  3 O s       :     3.806452  s :     3.806452
      pz      :     1.710656  p :     4.857624
      px      :     1.355426
      py      :     1.791542
      dz2     :     0.009534  d :     0.051441
      dxz     :     0.009705
      dyz     :     0.011126
      dx2y2   :     0.007870
      dxy     :     0.013207
      f0      :     0.000454  f :     0.004066
      f+1     :     0.000691
      f-1     :     0.000551
      f+2     :     0.000437
      f-2     :     0.000713
      f+3     :     0.000467
      f-3     :     0.000752
  4 H s       :     0.589198  s :     0.589198
      pz      :     0.017485  p :     0.046851
      px      :     0.013865
      py      :     0.015501
  5 H s       :     0.591665  s :     0.591665
      pz      :     0.011565  p :     0.043167
      px      :     0.017727
      py      :     0.013874
  6 O s       :     3.806059  s :     3.806059
      pz      :     1.544615  p :     4.861121
      px      :     1.511965
      py      :     1.804542
      dz2     :     0.016666  d :     0.052072
      dxz     :     0.006592
      dyz     :     0.008448
      dx2y2   :     0.007553
      dxy     :     0.012814
      f0      :     0.000628  f :     0.004050
      f+1     :     0.000742
      f-1     :     0.000539
      f+2     :     0.000415
      f-2     :     0.000420
      f+3     :     0.000435
      f-3     :     0.000870
  7 H s       :     0.567919  s :     0.567919
      pz      :     0.024449  p :     0.050204
      px      :     0.012136
      py      :     0.013619
  8 H s       :     0.618087  s :     0.618087
      pz      :     0.011758  p :     0.046534
      px      :     0.018167
      py      :     0.016609
  9 O s       :     3.804929  s :     3.804929
      pz      :     1.578867  p :     4.874403
      px      :     1.432926
      py      :     1.862610
      dz2     :     0.015588  d :     0.051079
      dxz     :     0.007925
      dyz     :     0.008081
      dx2y2   :     0.008551
      dxy     :     0.010934
      f0      :     0.000568  f :     0.004037
      f+1     :     0.000800
      f-1     :     0.000497
      f+2     :     0.000441
      f-2     :     0.000402
      f+3     :     0.000490
      f-3     :     0.000839
 10 H s       :     0.560549  s :     0.560549
      pz      :     0.024694  p :     0.050629
      px      :     0.011857
      py      :     0.014077
 11 H s       :     0.612864  s :     0.612864
      pz      :     0.010685  p :     0.044999
      px      :     0.018235
      py      :     0.016079
 12 O s       :     3.804929  s :     3.804929
      pz      :     1.578867  p :     4.874403
      px      :     1.432926
      py      :     1.862610
      dz2     :     0.015588  d :     0.051079
      dxz     :     0.007925
      dyz     :     0.008081
      dx2y2   :     0.008551
      dxy     :     0.010934
      f0      :     0.000568  f :     0.004037
      f+1     :     0.000800
      f-1     :     0.000497
      f+2     :     0.000441
      f-2     :     0.000402
      f+3     :     0.000490
      f-3     :     0.000839
 13 H s       :     0.560549  s :     0.560549
      pz      :     0.024694  p :     0.050629
      px      :     0.011857
      py      :     0.014077
 14 H s       :     0.612864  s :     0.612864
      pz      :     0.010685  p :     0.044999
      px      :     0.018235
      py      :     0.016079
 15 O s       :     3.806059  s :     3.806059
      pz      :     1.544615  p :     4.861121
      px      :     1.511965
      py      :     1.804542
      dz2     :     0.016666  d :     0.052072
      dxz     :     0.006592
      dyz     :     0.008448
      dx2y2   :     0.007553
      dxy     :     0.012814
      f0      :     0.000628  f :     0.004050
      f+1     :     0.000742
      f-1     :     0.000539
      f+2     :     0.000415
      f-2     :     0.000420
      f+3     :     0.000435
      f-3     :     0.000870
 16 H s       :     0.567919  s :     0.567919
      pz      :     0.024449  p :     0.050204
      px      :     0.012136
      py      :     0.013619
 17 H s       :     0.618087  s :     0.618087
      pz      :     0.011758  p :     0.046534
      px      :     0.018167
      py      :     0.016609


                     *******************************
                     * LOEWDIN POPULATION ANALYSIS *
                     *******************************

----------------------
LOEWDIN ATOMIC CHARGES
----------------------
   0 O :   -0.313905
   1 H :    0.164289
   2 H :    0.184700
   3 O :   -0.313905
   4 H :    0.164289
   5 H :    0.184700
   6 O :   -0.342482
   7 H :    0.154416
   8 H :    0.158166
   9 O :   -0.328002
  10 H :    0.156418
  11 H :    0.166400
  12 O :   -0.328002
  13 H :    0.156418
  14 H :    0.166400
  15 O :   -0.342482
  16 H :    0.154416
  17 H :    0.158166

-------------------------------
LOEWDIN REDUCED ORBITAL CHARGES
-------------------------------
  0 O s       :     3.464423  s :     3.464423
      pz      :     1.672139  p :     4.784813
      px      :     1.348228
      py      :     1.764446
      dz2     :     0.010966  d :     0.059829
      dxz     :     0.012279
      dyz     :     0.011370
      dx2y2   :     0.009368
      dxy     :     0.015846
      f0      :     0.000471  f :     0.004840
      f+1     :     0.000856
      f-1     :     0.000654
      f+2     :     0.000409
      f-2     :     0.001011
      f+3     :     0.000474
      f-3     :     0.000966
  1 H s       :     0.669299  s :     0.669299
      pz      :     0.067668  p :     0.166412
      px      :     0.045091
      py      :     0.053653
  2 H s       :     0.663844  s :     0.663844
      pz      :     0.034264  p :     0.151456
      px      :     0.072520
      py      :     0.044671
  3 O s       :     3.464423  s :     3.464423
      pz      :     1.672139  p :     4.784813
      px      :     1.348228
      py      :     1.764446
      dz2     :     0.010966  d :     0.059829
      dxz     :     0.012279
      dyz     :     0.011370
      dx2y2   :     0.009368
      dxy     :     0.015846
      f0      :     0.000471  f :     0.004840
      f+1     :     0.000856
      f-1     :     0.000654
      f+2     :     0.000409
      f-2     :     0.001011
      f+3     :     0.000474
      f-3     :     0.000966
  4 H s       :     0.669299  s :     0.669299
      pz      :     0.067668  p :     0.166412
      px      :     0.045091
      py      :     0.053653
  5 H s       :     0.663844  s :     0.663844
      pz      :     0.034264  p :     0.151456
      px      :     0.072520
      py      :     0.044671
  6 O s       :     3.463558  s :     3.463558
      pz      :     1.527416  p :     4.814470
      px      :     1.512182
      py      :     1.774871
      dz2     :     0.021009  d :     0.059575
      dxz     :     0.007215
      dyz     :     0.007724
      dx2y2   :     0.007795
      dxy     :     0.015833
      f0      :     0.000854  f :     0.004879
      f+1     :     0.000984
      f-1     :     0.000715
      f+2     :     0.000388
      f-2     :     0.000417
      f+3     :     0.000375
      f-3     :     0.001146
  7 H s       :     0.672193  s :     0.672193
      pz      :     0.094354  p :     0.173391
      px      :     0.036437
      py      :     0.042601
  8 H s       :     0.681011  s :     0.681011
      pz      :     0.032045  p :     0.160823
      px      :     0.072797
      py      :     0.055982
  9 O s       :     3.461402  s :     3.461402
      pz      :     1.544695  p :     4.802194
      px      :     1.435559
      py      :     1.821940
      dz2     :     0.020304  d :     0.059581
      dxz     :     0.009190
      dyz     :     0.007165
      dx2y2   :     0.010057
      dxy     :     0.012866
      f0      :     0.000770  f :     0.004825
      f+1     :     0.001144
      f-1     :     0.000585
      f+2     :     0.000413
      f-2     :     0.000412
      f+3     :     0.000447
      f-3     :     0.001053
 10 H s       :     0.669326  s :     0.669326
      pz      :     0.094753  p :     0.174256
      px      :     0.036166
      py      :     0.043336
 11 H s       :     0.676397  s :     0.676397
      pz      :     0.031472  p :     0.157202
      px      :     0.075403
      py      :     0.050327
 12 O s       :     3.461402  s :     3.461402
      pz      :     1.544695  p :     4.802194
      px      :     1.435559
      py      :     1.821940
      dz2     :     0.020304  d :     0.059581
      dxz     :     0.009190
      dyz     :     0.007165
      dx2y2   :     0.010057
      dxy     :     0.012866
      f0      :     0.000770  f :     0.004825
      f+1     :     0.001144
      f-1     :     0.000585
      f+2     :     0.000413
      f-2     :     0.000412
      f+3     :     0.000447
      f-3     :     0.001053
 13 H s       :     0.669326  s :     0.669326
      pz      :     0.094753  p :     0.174256
      px      :     0.036166
      py      :     0.043336
 14 H s       :     0.676397  s :     0.676397
      pz      :     0.031472  p :     0.157202
      px      :     0.075403
      py      :     0.050327
 15 O s       :     3.463558  s :     3.463558
      pz      :     1.527416  p :     4.814470
      px      :     1.512182
      py      :     1.774871
      dz2     :     0.021009  d :     0.059575
      dxz     :     0.007215
      dyz     :     0.007724
      dx2y2   :     0.007795
      dxy     :     0.015833
      f0      :     0.000854  f :     0.004879
      f+1     :     0.000984
      f-1     :     0.000715
      f+2     :     0.000388
      f-2     :     0.000417
      f+3     :     0.000375
      f-3     :     0.001146
 16 H s       :     0.672193  s :     0.672193
      pz      :     0.094354  p :     0.173391
      px      :     0.036437
      py      :     0.042601
 17 H s       :     0.681011  s :     0.681011
      pz      :     0.032045  p :     0.160823
      px      :     0.072797
      py      :     0.055982


                      *****************************
                      * MAYER POPULATION ANALYSIS *
                      *****************************

  NA   - Mulliken gross atomic population
  ZA   - Total nuclear charge
  QA   - Mulliken gross atomic charge
  VA   - Mayer's total valence
  BVA  - Mayer's bonded valence
  FA   - Mayer's free valence

  ATOM       NA         ZA         QA         VA         BVA        FA
  0 O      8.7196     8.0000    -0.7196     2.0730     1.6833     0.3897
  1 H      0.6360     1.0000     0.3640     0.8867     0.8418     0.0450
  2 H      0.6348     1.0000     0.3652     0.8857     0.8378     0.0480
  3 O      8.7196     8.0000    -0.7196     2.0730     1.6833     0.3897
  4 H      0.6360     1.0000     0.3640     0.8867     0.8418     0.0450
  5 H      0.6348     1.0000     0.3652     0.8857     0.8378     0.0480
  6 O      8.7233     8.0000    -0.7233     2.0588     1.6708     0.3880
  7 H      0.6181     1.0000     0.3819     0.8836     0.8394     0.0443
  8 H      0.6646     1.0000     0.3354     0.9094     0.8606     0.0488
  9 O      8.7344     8.0000    -0.7344     2.0551     1.6631     0.3920
 10 H      0.6112     1.0000     0.3888     0.8804     0.8367     0.0437
 11 H      0.6579     1.0000     0.3421     0.9066     0.8570     0.0497
 12 O      8.7344     8.0000    -0.7344     2.0551     1.6631     0.3920
 13 H      0.6112     1.0000     0.3888     0.8804     0.8367     0.0437
 14 H      0.6579     1.0000     0.3421     0.9066     0.8570     0.0497
 15 O      8.7233     8.0000    -0.7233     2.0588     1.6708     0.3880
 16 H      0.6181     1.0000     0.3819     0.8836     0.8394     0.0443
 17 H      0.6646     1.0000     0.3354     0.9094     0.8606     0.0488

  Mayer bond orders larger than 0.100000
B(  0-O ,  1-H ) :   0.8348 B(  0-O ,  2-H ) :   0.8268 B(  3-O ,  4-H ) :   0.8348 
B(  3-O ,  5-H ) :   0.8268 B(  6-O ,  7-H ) :   0.8143 B(  6-O ,  8-H ) :   0.8515 
B(  9-O , 10-H ) :   0.8048 B(  9-O , 11-H ) :   0.8418 B( 12-O , 13-H ) :   0.8048 
B( 12-O , 14-H ) :   0.8418 B( 15-O , 16-H ) :   0.8143 B( 15-O , 17-H ) :   0.8515 



                *******************************************
                * RELAXED MP2 DENSITY POPULATION ANALYSIS *
                *******************************************

------------------------------------------------------------------------------
                           ORCA POPULATION ANALYSIS
------------------------------------------------------------------------------
Input electron density              ... 12h2o.su.etal.mol0,1,3,6,7,8-orca.engrad-mp2.def2tzvp.frozencore.pmp2re
BaseName (.gbw .S,...)              ... 12h2o.su.etal.mol0,1,3,6,7,8-orca.engrad-mp2.def2tzvp.frozencore

                    ********************************
                    * MULLIKEN POPULATION ANALYSIS *
                    ********************************

-----------------------
MULLIKEN ATOMIC CHARGES
-----------------------
   0 O :   -0.701795
   1 H :    0.357110
   2 H :    0.357913
   3 O :   -0.701795
   4 H :    0.357110
   5 H :    0.357913
   6 O :   -0.705178
   7 H :    0.368463
   8 H :    0.328204
   9 O :   -0.712242
  10 H :    0.373658
  11 H :    0.333867
  12 O :   -0.712242
  13 H :    0.373658
  14 H :    0.333867
  15 O :   -0.705178
  16 H :    0.368463
  17 H :    0.328204
Sum of atomic charges:   -0.0000000

--------------------------------
MULLIKEN REDUCED ORBITAL CHARGES
--------------------------------
  0 O s       :     3.810601  s :     3.810601
      pz      :     1.700910  p :     4.838005
      px      :     1.351552
      py      :     1.785543
      dz2     :     0.009285  d :     0.049196
      dxz     :     0.009119
      dyz     :     0.010848
      dx2y2   :     0.007616
      dxy     :     0.012328
      f0      :     0.000452  f :     0.003993
      f+1     :     0.000672
      f-1     :     0.000542
      f+2     :     0.000437
      f-2     :     0.000693
      f+3     :     0.000466
      f-3     :     0.000732
  1 H s       :     0.595385  s :     0.595385
      pz      :     0.017628  p :     0.047506
      px      :     0.013792
      py      :     0.016086
  2 H s       :     0.598303  s :     0.598303
      pz      :     0.012410  p :     0.043784
      px      :     0.016734
      py      :     0.014640
  3 O s       :     3.810601  s :     3.810601
      pz      :     1.700910  p :     4.838005
      px      :     1.351552
      py      :     1.785543
      dz2     :     0.009285  d :     0.049196
      dxz     :     0.009119
      dyz     :     0.010848
      dx2y2   :     0.007616
      dxy     :     0.012328
      f0      :     0.000452  f :     0.003993
      f+1     :     0.000672
      f-1     :     0.000542
      f+2     :     0.000437
      f-2     :     0.000693
      f+3     :     0.000466
      f-3     :     0.000732
  4 H s       :     0.595385  s :     0.595385
      pz      :     0.017628  p :     0.047506
      px      :     0.013792
      py      :     0.016086
  5 H s       :     0.598303  s :     0.598303
      pz      :     0.012410  p :     0.043784
      px      :     0.016734
      py      :     0.014640
  6 O s       :     3.807555  s :     3.807555
      pz      :     1.540945  p :     4.843737
      px      :     1.504299
      py      :     1.798494
      dz2     :     0.015452  d :     0.049909
      dxz     :     0.006542
      dyz     :     0.008412
      dx2y2   :     0.007468
      dxy     :     0.012035
      f0      :     0.000612  f :     0.003978
      f+1     :     0.000721
      f-1     :     0.000529
      f+2     :     0.000415
      f-2     :     0.000419
      f+3     :     0.000436
      f-3     :     0.000846
  7 H s       :     0.580855  s :     0.580855
      pz      :     0.023612  p :     0.050681
      px      :     0.012606
      py      :     0.014464
  8 H s       :     0.624413  s :     0.624413
      pz      :     0.012514  p :     0.047382
      px      :     0.017564
      py      :     0.017304
  9 O s       :     3.806758  s :     3.806758
      pz      :     1.570484  p :     4.852624
      px      :     1.424941
      py      :     1.857199
      dz2     :     0.014527  d :     0.048893
      dxz     :     0.007650
      dyz     :     0.008105
      dx2y2   :     0.008238
      dxy     :     0.010373
      f0      :     0.000556  f :     0.003966
      f+1     :     0.000770
      f-1     :     0.000491
      f+2     :     0.000441
      f-2     :     0.000401
      f+3     :     0.000489
      f-3     :     0.000818
 10 H s       :     0.575153  s :     0.575153
      pz      :     0.024012  p :     0.051190
      px      :     0.012221
      py      :     0.014957
 11 H s       :     0.620272  s :     0.620272
      pz      :     0.011506  p :     0.045860
      px      :     0.017389
      py      :     0.016966
 12 O s       :     3.806758  s :     3.806758
      pz      :     1.570484  p :     4.852624
      px      :     1.424941
      py      :     1.857199
      dz2     :     0.014527  d :     0.048893
      dxz     :     0.007650
      dyz     :     0.008105
      dx2y2   :     0.008238
      dxy     :     0.010373
      f0      :     0.000556  f :     0.003966
      f+1     :     0.000770
      f-1     :     0.000491
      f+2     :     0.000441
      f-2     :     0.000401
      f+3     :     0.000489
      f-3     :     0.000818
 13 H s       :     0.575153  s :     0.575153
      pz      :     0.024012  p :     0.051190
      px      :     0.012221
      py      :     0.014957
 14 H s       :     0.620272  s :     0.620272
      pz      :     0.011506  p :     0.045860
      px      :     0.017389
      py      :     0.016966
 15 O s       :     3.807555  s :     3.807555
      pz      :     1.540945  p :     4.843737
      px      :     1.504299
      py      :     1.798494
      dz2     :     0.015452  d :     0.049909
      dxz     :     0.006542
      dyz     :     0.008412
      dx2y2   :     0.007468
      dxy     :     0.012035
      f0      :     0.000612  f :     0.003978
      f+1     :     0.000721
      f-1     :     0.000529
      f+2     :     0.000415
      f-2     :     0.000419
      f+3     :     0.000436
      f-3     :     0.000846
 16 H s       :     0.580855  s :     0.580855
      pz      :     0.023612  p :     0.050681
      px      :     0.012606
      py      :     0.014464
 17 H s       :     0.624413  s :     0.624413
      pz      :     0.012514  p :     0.047382
      px      :     0.017564
      py      :     0.017304


                     *******************************
                     * LOEWDIN POPULATION ANALYSIS *
                     *******************************

----------------------
LOEWDIN ATOMIC CHARGES
----------------------
   0 O :   -0.312580
   1 H :    0.165945
   2 H :    0.185763
   3 O :   -0.312580
   4 H :    0.165945
   5 H :    0.185763
   6 O :   -0.343391
   7 H :    0.151113
   8 H :    0.159456
   9 O :   -0.326082
  10 H :    0.152615
  11 H :    0.167161
  12 O :   -0.326082
  13 H :    0.152615
  14 H :    0.167161
  15 O :   -0.343391
  16 H :    0.151113
  17 H :    0.159456

-------------------------------
LOEWDIN REDUCED ORBITAL CHARGES
-------------------------------
  0 O s       :     3.466313  s :     3.466313
      pz      :     1.667004  p :     4.782785
      px      :     1.353169
      py      :     1.762613
      dz2     :     0.010877  d :     0.058622
      dxz     :     0.011915
      dyz     :     0.011343
      dx2y2   :     0.009131
      dxy     :     0.015356
      f0      :     0.000474  f :     0.004860
      f+1     :     0.000862
      f-1     :     0.000654
      f+2     :     0.000409
      f-2     :     0.001011
      f+3     :     0.000477
      f-3     :     0.000972
  1 H s       :     0.667864  s :     0.667864
      pz      :     0.067685  p :     0.166191
      px      :     0.044274
      py      :     0.054232
  2 H s       :     0.662742  s :     0.662742
      pz      :     0.034955  p :     0.151494
      px      :     0.071096
      py      :     0.045444
  3 O s       :     3.466313  s :     3.466313
      pz      :     1.667004  p :     4.782785
      px      :     1.353169
      py      :     1.762613
      dz2     :     0.010877  d :     0.058622
      dxz     :     0.011915
      dyz     :     0.011343
      dx2y2   :     0.009131
      dxy     :     0.015356
      f0      :     0.000474  f :     0.004860
      f+1     :     0.000862
      f-1     :     0.000654
      f+2     :     0.000409
      f-2     :     0.001011
      f+3     :     0.000477
      f-3     :     0.000972
  4 H s       :     0.667864  s :     0.667864
      pz      :     0.067685  p :     0.166191
      px      :     0.044274
      py      :     0.054232
  5 H s       :     0.662742  s :     0.662742
      pz      :     0.034955  p :     0.151494
      px      :     0.071096
      py      :     0.045444
  6 O s       :     3.464960  s :     3.464960
      pz      :     1.528597  p :     4.815141
      px      :     1.513908
      py      :     1.772635
      dz2     :     0.020414  d :     0.058393
      dxz     :     0.007087
      dyz     :     0.007750
      dx2y2   :     0.007719
      dxy     :     0.015422
      f0      :     0.000858  f :     0.004898
      f+1     :     0.000992
      f-1     :     0.000714
      f+2     :     0.000390
      f-2     :     0.000417
      f+3     :     0.000375
      f-3     :     0.001153
  7 H s       :     0.675268  s :     0.675268
      pz      :     0.093474  p :     0.173620
      px      :     0.036725
      py      :     0.043421
  8 H s       :     0.679348  s :     0.679348
      pz      :     0.032483  p :     0.161196
      px      :     0.072114
      py      :     0.056599
  9 O s       :     3.462718  s :     3.462718
      pz      :     1.542592  p :     4.799962
      px      :     1.438142
      py      :     1.819228
      dz2     :     0.019926  d :     0.058556
      dxz     :     0.008996
      dyz     :     0.007238
      dx2y2   :     0.009838
      dxy     :     0.012558
      f0      :     0.000774  f :     0.004847
      f+1     :     0.001153
      f-1     :     0.000585
      f+2     :     0.000416
      f-2     :     0.000411
      f+3     :     0.000449
      f-3     :     0.001060
 10 H s       :     0.672920  s :     0.672920
      pz      :     0.094140  p :     0.174466
      px      :     0.036085
      py      :     0.044240
 11 H s       :     0.675257  s :     0.675257
      pz      :     0.032007  p :     0.157582
      px      :     0.074445
      py      :     0.051129
 12 O s       :     3.462718  s :     3.462718
      pz      :     1.542592  p :     4.799962
      px      :     1.438142
      py      :     1.819228
      dz2     :     0.019926  d :     0.058556
      dxz     :     0.008996
      dyz     :     0.007238
      dx2y2   :     0.009838
      dxy     :     0.012558
      f0      :     0.000774  f :     0.004847
      f+1     :     0.001153
      f-1     :     0.000585
      f+2     :     0.000416
      f-2     :     0.000411
      f+3     :     0.000449
      f-3     :     0.001060
 13 H s       :     0.672920  s :     0.672920
      pz      :     0.094140  p :     0.174466
      px      :     0.036085
      py      :     0.044240
 14 H s       :     0.675257  s :     0.675257
      pz      :     0.032007  p :     0.157582
      px      :     0.074445
      py      :     0.051129
 15 O s       :     3.464960  s :     3.464960
      pz      :     1.528597  p :     4.815141
      px      :     1.513908
      py      :     1.772635
      dz2     :     0.020414  d :     0.058393
      dxz     :     0.007087
      dyz     :     0.007750
      dx2y2   :     0.007719
      dxy     :     0.015422
      f0      :     0.000858  f :     0.004898
      f+1     :     0.000992
      f-1     :     0.000714
      f+2     :     0.000390
      f-2     :     0.000417
      f+3     :     0.000375
      f-3     :     0.001153
 16 H s       :     0.675268  s :     0.675268
      pz      :     0.093474  p :     0.173620
      px      :     0.036725
      py      :     0.043421
 17 H s       :     0.679348  s :     0.679348
      pz      :     0.032483  p :     0.161196
      px      :     0.072114
      py      :     0.056599


                      *****************************
                      * MAYER POPULATION ANALYSIS *
                      *****************************

  NA   - Mulliken gross atomic population
  ZA   - Total nuclear charge
  QA   - Mulliken gross atomic charge
  VA   - Mayer's total valence
  BVA  - Mayer's bonded valence
  FA   - Mayer's free valence

  ATOM       NA         ZA         QA         VA         BVA        FA
  0 O      8.7018     8.0000    -0.7018     2.0946     1.7105     0.3840
  1 H      0.6429     1.0000     0.3571     0.8920     0.8470     0.0450
  2 H      0.6421     1.0000     0.3579     0.8928     0.8450     0.0479
  3 O      8.7018     8.0000    -0.7018     2.0946     1.7105     0.3840
  4 H      0.6429     1.0000     0.3571     0.8920     0.8470     0.0450
  5 H      0.6421     1.0000     0.3579     0.8928     0.8450     0.0479
  6 O      8.7052     8.0000    -0.7052     2.0727     1.6898     0.3829
  7 H      0.6315     1.0000     0.3685     0.9018     0.8578     0.0440
  8 H      0.6718     1.0000     0.3282     0.9161     0.8674     0.0487
  9 O      8.7122     8.0000    -0.7122     2.0821     1.6960     0.3862
 10 H      0.6263     1.0000     0.3737     0.9000     0.8567     0.0433
 11 H      0.6661     1.0000     0.3339     0.9155     0.8661     0.0494
 12 O      8.7122     8.0000    -0.7122     2.0821     1.6960     0.3862
 13 H      0.6263     1.0000     0.3737     0.9000     0.8567     0.0433
 14 H      0.6661     1.0000     0.3339     0.9155     0.8661     0.0494
 15 O      8.7052     8.0000    -0.7052     2.0727     1.6898     0.3829
 16 H      0.6315     1.0000     0.3685     0.9018     0.8578     0.0440
 17 H      0.6718     1.0000     0.3282     0.9161     0.8674     0.0487

  Mayer bond orders larger than 0.100000
B(  0-O ,  1-H ) :   0.8388 B(  0-O ,  2-H ) :   0.8302 B(  3-O ,  4-H ) :   0.8388 
B(  3-O ,  5-H ) :   0.8302 B(  6-O ,  7-H ) :   0.8200 B(  6-O ,  8-H ) :   0.8546 
B(  9-O , 10-H ) :   0.8095 B(  9-O , 11-H ) :   0.8441 B( 12-O , 13-H ) :   0.8095 
B( 12-O , 14-H ) :   0.8441 B( 15-O , 16-H ) :   0.8200 B( 15-O , 17-H ) :   0.8546 



----------------------------------
MP2 DERIVATIVE INTEGRAL GENERATION
----------------------------------


Input Wavefunction Amplitudes       ... 12h2o.su.etal.mol0,1,3,6,7,8-orca.engrad-mp2.def2tzvp.frozencore.mp2tsaa.tmp
Input Correlated Electron Density   ... 12h2o.su.etal.mol0,1,3,6,7,8-orca.engrad-mp2.def2tzvp.frozencore.pmp2re
Input Energy Weighted Density       ... 12h2o.su.etal.mol0,1,3,6,7,8-orca.engrad-mp2.def2tzvp.frozencore.wmp2.tmp
Input SCF Electron Density          ... 12h2o.su.etal.mol0,1,3,6,7,8-orca.engrad-mp2.def2tzvp.frozencore.scfp

One-Electron Terms    ...
                        ... One-Electron Terms done
Prescreening matrices              ... done

Batch handling in the gradient evaluation:
Memory available                      ... 8000.0 MB
Memory per occupied orbital in Q2     ...   12.2 MB
Memory per occupied orbital in Q3     ...    0.1 MB
Total memory requirement per |i>      ...   12.3 MB
Max. Number of orbitals possible      ...    651
Number of orbitals treated per batch  ...     24
Number of batches to be done          ...      1
Batch   0: i=    6 ...    29

---------------------------------------
MP2 TOTAL ENERGY:     -457.909064091 Eh
---------------------------------------

The final MP2 gradient
  0:   0.02662739  -0.00855348   0.00042329
  1:   0.00114907  -0.00202512  -0.00250032
  2:  -0.02699025   0.00962067  -0.00072323
  3:  -0.02662739   0.00855348   0.00042329
  4:  -0.00114907   0.00202512  -0.00250032
  5:   0.02699025  -0.00962067  -0.00072323
  6:  -0.00791554   0.00782349  -0.00067083
  7:  -0.00175266  -0.00335457   0.00268116
  8:   0.00879385  -0.00714124  -0.00000970
  9:   0.01654476  -0.01033047  -0.00271422
 10:   0.00215566   0.00299187   0.00224526
 11:  -0.01604230   0.00885938   0.00126858
 12:  -0.01654476   0.01033047  -0.00271422
 13:  -0.00215566  -0.00299187   0.00224526
 14:   0.01604230  -0.00885938   0.00126858
 15:   0.00791554  -0.00782349  -0.00067083
 16:   0.00175266   0.00335457   0.00268116
 17:  -0.00879385   0.00714124  -0.00000970

-----------------------------------
NORM OF THE MP2 GRADIENT:  0.072576
-----------------------------------

-------------------------   --------------------
FINAL SINGLE POINT ENERGY      -457.909064091323
-------------------------   --------------------


                            ***************************************
                            *     ORCA property calculations      *
                            ***************************************

                                    ---------------------
                                    Active property flags
                                    ---------------------
   (+) Dipole Moment


------------------------------------------------------------------------------
                       ORCA ELECTRIC PROPERTIES CALCULATION
------------------------------------------------------------------------------

Dipole Moment Calculation                       ... on
Quadrupole Moment Calculation                   ... off
Polarizability Calculation                      ... off
GBWName                                         ... 12h2o.su.etal.mol0,1,3,6,7,8-orca.engrad-mp2.def2tzvp.frozencore.gbw
Electron density file                           ... 12h2o.su.etal.mol0,1,3,6,7,8-orca.engrad-mp2.def2tzvp.frozencore.scfp
The origin for moment calculation is the CENTER OF MASS  = ( 0.000000, -0.000000 -0.025174)

-------------
DIPOLE MOMENT
-------------
                                X             Y             Z
Electronic contribution:     -0.00000       0.00000       0.15470
Nuclear contribution   :     -0.00000       0.00000       4.18596
                        -----------------------------------------
Total Dipole Moment    :     -0.00000       0.00000       4.34066
                        -----------------------------------------
Magnitude (a.u.)       :      4.34066
Magnitude (Debye)      :     11.03307



--------------------
Rotational spectrum 
--------------------
 
Rotational constants in cm-1:     0.040310     0.028804     0.016933 
Rotational constants in MHz :  1208.463347   863.510988   507.629127 

 Dipole components along the rotational axes: 
x,y,z [a.u.] :     4.340656    -0.000000    -0.000000 
x,y,z [Debye]:    11.033072    -0.000000    -0.000000 

 

                         *** MP2 UNRELAXED DENSITY ***

------------------------------------------------------------------------------
                       ORCA ELECTRIC PROPERTIES CALCULATION
------------------------------------------------------------------------------

Dipole Moment Calculation                       ... on
Quadrupole Moment Calculation                   ... off
Polarizability Calculation                      ... off
GBWName                                         ... 12h2o.su.etal.mol0,1,3,6,7,8-orca.engrad-mp2.def2tzvp.frozencore.gbw
Electron density file                           ... 12h2o.su.etal.mol0,1,3,6,7,8-orca.engrad-mp2.def2tzvp.frozencore.pmp2ur
The origin for moment calculation is the CENTER OF MASS  = ( 0.000000, -0.000000 -0.025174)

-------------
DIPOLE MOMENT
-------------
                                X             Y             Z
Electronic contribution:     -0.00000       0.00000       0.11971
Nuclear contribution   :     -0.00000       0.00000       4.18596
                        -----------------------------------------
Total Dipole Moment    :     -0.00000       0.00000       4.30567
                        -----------------------------------------
Magnitude (a.u.)       :      4.30567
Magnitude (Debye)      :     10.94414



--------------------
Rotational spectrum 
--------------------
 
Rotational constants in cm-1:     0.040310     0.028804     0.016933 
Rotational constants in MHz :  1208.463347   863.510988   507.629127 

 Dipole components along the rotational axes: 
x,y,z [a.u.] :     4.305669    -0.000000    -0.000000 
x,y,z [Debye]:    10.944141    -0.000000    -0.000000 

 

                           *** MP2 RELAXED DENSITY ***

------------------------------------------------------------------------------
                       ORCA ELECTRIC PROPERTIES CALCULATION
------------------------------------------------------------------------------

Dipole Moment Calculation                       ... on
Quadrupole Moment Calculation                   ... off
Polarizability Calculation                      ... off
GBWName                                         ... 12h2o.su.etal.mol0,1,3,6,7,8-orca.engrad-mp2.def2tzvp.frozencore.gbw
Electron density file                           ... 12h2o.su.etal.mol0,1,3,6,7,8-orca.engrad-mp2.def2tzvp.frozencore.pmp2re
The origin for moment calculation is the CENTER OF MASS  = ( 0.000000, -0.000000 -0.025174)

-------------
DIPOLE MOMENT
-------------
                                X             Y             Z
Electronic contribution:      0.00000       0.00000       0.09386
Nuclear contribution   :     -0.00000       0.00000       4.18596
                        -----------------------------------------
Total Dipole Moment    :      0.00000       0.00000       4.27981
                        -----------------------------------------
Magnitude (a.u.)       :      4.27981
Magnitude (Debye)      :     10.87842



--------------------
Rotational spectrum 
--------------------
 
Rotational constants in cm-1:     0.040310     0.028804     0.016933 
Rotational constants in MHz :  1208.463347   863.510988   507.629127 

 Dipole components along the rotational axes: 
x,y,z [a.u.] :     4.279814    -0.000000    -0.000000 
x,y,z [Debye]:    10.878423    -0.000000    -0.000000 

 

Timings for individual modules:

Sum of individual times         ...       51.871 sec (=   0.865 min)
GTO integral calculation        ...        1.177 sec (=   0.020 min)   2.3 %
SCF iterations                  ...       10.619 sec (=   0.177 min)  20.5 %
MP2 module                      ...       40.074 sec (=   0.668 min)  77.3 %
                             ****ORCA TERMINATED NORMALLY****
TOTAL RUN TIME: 0 days 0 hours 0 minutes 52 seconds 830 msec
