9
Energy:    -63.01047488
O    1.28267128  -0.51178991  -1.08740701
H    0.63839501   0.17103127  -0.90060449
H    1.55892041  -0.34121438  -1.98786370
O   -0.51515791   1.40271409  -0.31047145
H   -0.77162942   0.71125331   0.29972213
H   -0.09720131   2.06529259   0.23955932
O   -0.78751216  -0.80422551   1.23771777
H   -0.02824822  -1.26313876   0.87834507
H   -1.26931709  -1.47726550   1.71845994
