
                                 *****************
                                 * O   R   C   A *
                                 *****************

           --- An Ab Initio, DFT and Semiempirical electronic structure package ---

                  #######################################################
                  #                        -***-                        #
                  #          Department of theory and spectroscopy      #
                  #               Directorship: Frank Neese             #
                  #        Max Planck Institute fuer Kohlenforschung    #
                  #                Kaiser Wilhelm Platz 1               #
                  #                 D-45470 Muelheim/Ruhr               #
                  #                      Germany                        #
                  #                                                     #
                  #                  All rights reserved                #
                  #                        -***-                        #
                  #######################################################


                         Program Version 4.2.0 -  RELEASE  -


 With contributions from (in alphabetic order):
   Daniel Aravena         : Magnetic Suceptibility
   Michael Atanasov       : Ab Initio Ligand Field Theory (pilot matlab implementation)
   Alexander A. Auer      : GIAO ZORA, VPT2
   Ute Becker             : Parallelization
   Giovanni Bistoni       : ED, misc. LED, open-shell LED, HFLED
   Martin Brehm           : Molecular dynamics
   Dmytro Bykov           : SCF Hessian
   Vijay G. Chilkuri      : MRCI spin determinant printing, contributions to CSF-ICE
   Dipayan Datta          : RHF DLPNO-CCSD density
   Achintya Kumar Dutta   : EOM-CC, STEOM-CC
   Dmitry Ganyushin       : Spin-Orbit,Spin-Spin,Magnetic field MRCI
   Miquel Garcia          : C-PCM Hessian, Gaussian charge scheme
   Yang Guo               : DLPNO-NEVPT2, CIM, IAO-localization
   Andreas Hansen         : Spin unrestricted coupled pair/coupled cluster methods
   Benjamin Helmich-Paris : CASSCF linear response (MC-RPA)
   Lee Huntington         : MR-EOM, pCC
   Robert Izsak           : Overlap fitted RIJCOSX, COSX-SCS-MP3, EOM
   Christian Kollmar      : KDIIS, OOCD, Brueckner-CCSD(T), CCSD density
   Simone Kossmann        : Meta GGA functionals, TD-DFT gradient, OOMP2, MP2 Hessian
   Martin Krupicka        : AUTO-CI
   Lucas Lang             : DCDCAS
   Dagmar Lenk            : GEPOL surface, SMD
   Dimitrios Liakos       : Extrapolation schemes; Compound Job, initial MDCI parallelization
   Dimitrios Manganas     : Further ROCIS development; embedding schemes
   Dimitrios Pantazis     : SARC Basis sets
   Taras Petrenko         : DFT Hessian,TD-DFT gradient, ASA, ECA, R-Raman, ABS, FL, XAS/XES, NRVS
   Peter Pinski           : DLPNO-MP2, DLPNO-MP2 Gradient
   Christoph Reimann      : Effective Core Potentials
   Marius Retegan         : Local ZFS, SOC
   Christoph Riplinger    : Optimizer, TS searches, QM/MM, DLPNO-CCSD(T), (RO)-DLPNO pert. Triples
   Tobias Risthaus        : Range-separated hybrids, TD-DFT gradient, RPA, STAB
   Michael Roemelt        : Original ROCIS implementation
   Masaaki Saitow         : Open-shell DLPNO-CCSD energy and density
   Barbara Sandhoefer     : DKH picture change effects
   Avijit Sen             : IP-ROCIS
   Kantharuban Sivalingam : CASSCF convergence, NEVPT2, FIC-MRCI
   Bernardo de Souza      : ESD, SOC TD-DFT
   Georgi Stoychev        : AutoAux, RI-MP2 NMR
   Willem Van den Heuvel  : Paramagnetic NMR
   Boris Wezisla          : Elementary symmetry handling
   Frank Wennmohs         : Technical directorship


 We gratefully acknowledge several colleagues who have allowed us to
 interface, adapt or use parts of their codes:
   Stefan Grimme, W. Hujo, H. Kruse,             : VdW corrections, initial TS optimization,
                  C. Bannwarth                     DFT functionals, gCP, sTDA/sTD-DF
   Ed Valeev, F. Pavosevic, A. Kumar             : LibInt (2-el integral package), F12 methods
   Garnet Chan, S. Sharma, J. Yang, R. Olivares  : DMRG
   Ulf Ekstrom                                   : XCFun DFT Library
   Mihaly Kallay                                 : mrcc  (arbitrary order and MRCC methods)
   Andreas Klamt, Michael Diedenhofen            : otool_cosmo (COSMO solvation model)
   Jiri Pittner, Ondrej Demel                    : Mk-CCSD
   Frank Weinhold                                : gennbo (NPA and NBO analysis)
   Christopher J. Cramer and Donald G. Truhlar   : smd solvation model
   Lars Goerigk                                  : TD-DFT with DH, B97 family of functionals
   V. Asgeirsson, H. Jonsson                     : NEB implementation
   FAccTs GmbH                                   : IRC, NEB, NEB-TS, Multilevel, MM, QM/MM, CI optimization
   S Lehtola, MJT Oliveira, MAL Marques          : LibXC Library


 Your calculation uses the libint2 library for the computation of 2-el integrals
 For citations please refer to: http://libint.valeyev.net

 Your ORCA version has been built with support for libXC version: 4.2.3
 For citations please refer to: https://tddft.org/programs/libxc/

 This ORCA versions uses:
   CBLAS   interface :  Fast vector & matrix operations
   LAPACKE interface :  Fast linear algebra routines
   SCALAPACK package :  Parallel linear algebra routines


----- Orbital basis set information -----
Your calculation utilizes the basis: def2-TZVP
   F. Weigend and R. Ahlrichs, Phys. Chem. Chem. Phys. 7, 3297 (2005).

================================================================================
                                        WARNINGS
                       Please study these warnings very carefully!
================================================================================


WARNING: The frozen-core approximation for MP2-gradient calculations is turned on by default.

INFO   : the flag for use of LIBINT has been found!

================================================================================
                                       INPUT FILE
================================================================================
NAME = 12h2o.su.etal.mol1,2,3,6,7,8,9,11-orca.engrad-mp2.def2tzvp.frozencore.inp
|  1> # 12h2o.su.etal.mol1,2,3,6,7,8,9,11
|  2> ! MP2 def2-TZVP EnGrad TightSCF
|  3> 
|  4> %pal
|  5>     nprocs 6
|  6> end
|  7> 
|  8> %maxcore 8000
|  9> 
| 10> %scf
| 11>     ConvForced true
| 12> end
| 13> 
| 14> *xyz 0 1
| 15> O  -1.794470000  -0.923410000   2.768350000
| 16> H  -2.338250000  -1.359750000   3.430940000
| 17> H  -0.879480000  -1.303000000   2.865760000
| 18> O   0.923410000  -1.794470000  -2.768350000
| 19> H   1.359750000  -2.338250000  -3.430940000
| 20> H   1.303000000  -0.879480000  -2.865760000
| 21> O  -1.752130000  -0.741530000  -2.896280000
| 22> H  -2.036450000  -0.920500000  -1.984040000
| 23> H  -0.921210000  -1.242140000  -2.984230000
| 24> O   1.737840000   0.885520000  -0.052730000
| 25> H   2.090180000   1.032320000   0.841890000
| 26> H   0.839590000   1.284090000  -0.017130000
| 27> O  -1.737840000  -0.885520000  -0.052730000
| 28> H  -2.090180000  -1.032320000   0.841890000
| 29> H  -0.839590000  -1.284090000  -0.017130000
| 30> O   1.752130000   0.741530000  -2.896280000
| 31> H   2.036450000   0.920500000  -1.984040000
| 32> H   0.921210000   1.242140000  -2.984230000
| 33> O   0.741530000  -1.752130000   2.896280000
| 34> H   0.920500000  -2.036450000   1.984040000
| 35> H   1.242140000  -0.921210000   2.984230000
| 36> O  -0.741530000   1.752130000   2.896280000
| 37> H  -0.920500000   2.036450000   1.984040000
| 38> H  -1.242140000   0.921210000   2.984230000
| 39> *
| 40> 
| 41>                          ****END OF INPUT****
================================================================================

                     *******************************
                     * Energy+Gradient Calculation *
                     *******************************

---------------------------------
CARTESIAN COORDINATES (ANGSTROEM)
---------------------------------
  O     -1.794470   -0.923410    2.768350
  H     -2.338250   -1.359750    3.430940
  H     -0.879480   -1.303000    2.865760
  O      0.923410   -1.794470   -2.768350
  H      1.359750   -2.338250   -3.430940
  H      1.303000   -0.879480   -2.865760
  O     -1.752130   -0.741530   -2.896280
  H     -2.036450   -0.920500   -1.984040
  H     -0.921210   -1.242140   -2.984230
  O      1.737840    0.885520   -0.052730
  H      2.090180    1.032320    0.841890
  H      0.839590    1.284090   -0.017130
  O     -1.737840   -0.885520   -0.052730
  H     -2.090180   -1.032320    0.841890
  H     -0.839590   -1.284090   -0.017130
  O      1.752130    0.741530   -2.896280
  H      2.036450    0.920500   -1.984040
  H      0.921210    1.242140   -2.984230
  O      0.741530   -1.752130    2.896280
  H      0.920500   -2.036450    1.984040
  H      1.242140   -0.921210    2.984230
  O     -0.741530    1.752130    2.896280
  H     -0.920500    2.036450    1.984040
  H     -1.242140    0.921210    2.984230

----------------------------
CARTESIAN COORDINATES (A.U.)
----------------------------
  NO LB      ZA    FRAG     MASS         X           Y           Z
   0 O     8.0000    0    15.999   -3.391057   -1.744992    5.231423
   1 H     1.0000    0     1.008   -4.418652   -2.569555    6.483537
   2 H     1.0000    0     1.008   -1.661976   -2.462313    5.415502
   3 O     8.0000    0    15.999    1.744992   -3.391057   -5.231423
   4 H     1.0000    0     1.008    2.569555   -4.418652   -6.483537
   5 H     1.0000    0     1.008    2.462313   -1.661976   -5.415502
   6 O     8.0000    0    15.999   -3.311046   -1.401289   -5.473176
   7 H     1.0000    0     1.008   -3.848333   -1.739493   -3.749292
   8 H     1.0000    0     1.008   -1.740835   -2.347304   -5.639377
   9 O     8.0000    0    15.999    3.284042    1.673390   -0.099645
  10 H     1.0000    0     1.008    3.949868    1.950802    1.590942
  11 H     1.0000    0     1.008    1.586595    2.426578   -0.032371
  12 O     8.0000    0    15.999   -3.284042   -1.673390   -0.099645
  13 H     1.0000    0     1.008   -3.949868   -1.950802    1.590942
  14 H     1.0000    0     1.008   -1.586595   -2.426578   -0.032371
  15 O     8.0000    0    15.999    3.311046    1.401289   -5.473176
  16 H     1.0000    0     1.008    3.848333    1.739493   -3.749292
  17 H     1.0000    0     1.008    1.740835    2.347304   -5.639377
  18 O     8.0000    0    15.999    1.401289   -3.311046    5.473176
  19 H     1.0000    0     1.008    1.739493   -3.848333    3.749292
  20 H     1.0000    0     1.008    2.347304   -1.740835    5.639377
  21 O     8.0000    0    15.999   -1.401289    3.311046    5.473176
  22 H     1.0000    0     1.008   -1.739493    3.848333    3.749292
  23 H     1.0000    0     1.008   -2.347304    1.740835    5.639377

--------------------------------
INTERNAL COORDINATES (ANGSTROEM)
--------------------------------
 O      0   0   0     0.000000000000     0.00000000     0.00000000
 H      1   0   0     0.961828878803     0.00000000     0.00000000
 H      1   2   0     0.995381322057   106.21731035     0.00000000
 O      3   1   2     5.935920367146   102.58474291   140.89009172
 H      4   3   1     0.961828878803   146.97742434   224.01286022
 H      4   3   1     0.995381322057    97.62005672    87.72090689
 O      4   3   1     2.878117964938    74.30903121   359.04191204
 H      7   4   3     0.972136791249    99.37069922   345.64431536
 H      7   4   3     0.974050112161    12.30570018   233.12878636
 O      6   4   3     3.349245975813   116.85538783    13.08934280
 H     10   6   4     0.972645187106   154.03893681    55.84186962
 H     10   6   4     0.983350632989    97.20424340   272.32842926
 O      8   7   4     1.954571525578   151.55104644    46.66533865
 H     13   8   7     0.972645187106   148.29772527   173.62852352
 H     13   8   7     0.983350632989    99.67573411   310.71905253
 O      6   4   3     1.682356278379   171.61043709   321.17145860
 H     16   6   4     0.972136791249   103.79460456    70.64587838
 H     16   6   4     0.974050112161   105.61118924   321.69395179
 O      3   1   2     1.682356278379   171.61043709   195.73896161
 H     19   3   1     0.972136791249   103.79460456   289.35412162
 H     19   3   1     0.974050112161   105.61118924    38.30604821
 O      1   2   3     2.878117964938   126.72240291   256.40918860
 H     22   1   2     0.972136791249    99.37069922   223.07499144
 H     22   1   2     0.974050112161    12.30570018   335.59052045

---------------------------
INTERNAL COORDINATES (A.U.)
---------------------------
 O      0   0   0     0.000000000000     0.00000000     0.00000000
 H      1   0   0     1.817593168635     0.00000000     0.00000000
 H      1   2   0     1.880998097508   106.21731035     0.00000000
 O      3   1   2    11.217263846671   102.58474291   140.89009172
 H      4   3   1     1.817593168635   146.97742434   224.01286022
 H      4   3   1     1.880998097508    97.62005672    87.72090689
 O      4   3   1     5.438854734852    74.30903121   359.04191204
 H      7   4   3     1.837072300170    99.37069922   345.64431536
 H      7   4   3     1.840687952699    12.30570018   233.12878636
 O      6   4   3     6.329157649425   116.85538783    13.08934280
 H     10   6   4     1.838033029106   154.03893681    55.84186962
 H     10   6   4     1.858263389967    97.20424340   272.32842926
 O      8   7   4     3.693604892503   151.55104644    46.66533865
 H     13   8   7     1.838033029106   148.29772527   173.62852352
 H     13   8   7     1.858263389967    99.67573411   310.71905253
 O      6   4   3     3.179192625819   171.61043709   321.17145860
 H     16   6   4     1.837072300170   103.79460456    70.64587838
 H     16   6   4     1.840687952699   105.61118924   321.69395179
 O      3   1   2     3.179192625819   171.61043709   195.73896161
 H     19   3   1     1.837072300170   103.79460456   289.35412162
 H     19   3   1     1.840687952699   105.61118924    38.30604821
 O      1   2   3     5.438854734852   126.72240291   256.40918860
 H     22   1   2     1.837072300170    99.37069922   223.07499144
 H     22   1   2     1.840687952699    12.30570018   335.59052045

---------------------
BASIS SET INFORMATION
---------------------
There are 2 groups of distinct atoms

 Group   1 Type O   : 11s6p2d1f contracted to 5s3p2d1f pattern {62111/411/11/1}
 Group   2 Type H   : 5s1p contracted to 3s1p pattern {311/1}

Atom   0O    basis set group =>   1
Atom   1H    basis set group =>   2
Atom   2H    basis set group =>   2
Atom   3O    basis set group =>   1
Atom   4H    basis set group =>   2
Atom   5H    basis set group =>   2
Atom   6O    basis set group =>   1
Atom   7H    basis set group =>   2
Atom   8H    basis set group =>   2
Atom   9O    basis set group =>   1
Atom  10H    basis set group =>   2
Atom  11H    basis set group =>   2
Atom  12O    basis set group =>   1
Atom  13H    basis set group =>   2
Atom  14H    basis set group =>   2
Atom  15O    basis set group =>   1
Atom  16H    basis set group =>   2
Atom  17H    basis set group =>   2
Atom  18O    basis set group =>   1
Atom  19H    basis set group =>   2
Atom  20H    basis set group =>   2
Atom  21O    basis set group =>   1
Atom  22H    basis set group =>   2
Atom  23H    basis set group =>   2


           ************************************************************
           *        Program running with 6 parallel MPI-processes     *
           *              working on a common directory               *
           ************************************************************
------------------------------------------------------------------------------
                           ORCA GTO INTEGRAL CALCULATION
------------------------------------------------------------------------------

                         BASIS SET STATISTICS AND STARTUP INFO

 # of primitive gaussian shells          ...  256
 # of primitive gaussian functions       ...  496
 # of contracted shells                  ...  152
 # of contracted basis functions         ...  344
 Highest angular momentum                ...    3
 Maximum contraction depth               ...    6
 Integral package used                   ... LIBINT
 Integral threshhold            Thresh   ...  2.500e-11
 Primitive cut-off              TCut     ...  2.500e-12


------------------------------ INTEGRAL EVALUATION ----------------------------


 * One electron integrals 
 Pre-screening matrix                    ... done
 Shell pair data                         ... done (   0.002 sec)



           ************************************************************
           *        Program running with 6 parallel MPI-processes     *
           *              working on a common directory               *
           ************************************************************
-------------------------------------------------------------------------------
                                 ORCA SCF
-------------------------------------------------------------------------------

------------
SCF SETTINGS
------------
Hamiltonian:
 Ab initio Hamiltonian  Method          .... Hartree-Fock(GTOs)


General Settings:
 Integral files         IntName         .... 12h2o.su.etal.mol1,2,3,6,7,8,9,11-orca.engrad-mp2.def2tzvp.frozencore
 Hartree-Fock type      HFTyp           .... RHF
 Total Charge           Charge          ....    0
 Multiplicity           Mult            ....    1
 Number of Electrons    NEL             ....   80
 Basis Dimension        Dim             ....  344
 Nuclear Repulsion      ENuc            ....    437.9760811043 Eh

Convergence Acceleration:
 DIIS                   CNVDIIS         .... on
   Start iteration      DIISMaxIt       ....    12
   Startup error        DIISStart       ....  0.200000
   # of expansion vecs  DIISMaxEq       ....     5
   Bias factor          DIISBfac        ....   1.050
   Max. coefficient     DIISMaxC        ....  10.000
 Newton-Raphson         CNVNR           .... off
 SOSCF                  CNVSOSCF        .... on
   Start iteration      SOSCFMaxIt      ....   150
   Startup grad/error   SOSCFStart      ....  0.003300
 Level Shifting         CNVShift        .... on
   Level shift para.    LevelShift      ....    0.2500
   Turn off err/grad.   ShiftErr        ....    0.0010
 Zerner damping         CNVZerner       .... off
 Static damping         CNVDamp         .... on
   Fraction old density DampFac         ....    0.7000
   Max. Damping (<1)    DampMax         ....    0.9800
   Min. Damping (>=0)   DampMin         ....    0.0000
   Turn off err/grad.   DampErr         ....    0.1000
 Fernandez-Rico         CNVRico         .... off

SCF Procedure:
 Maximum # iterations   MaxIter         ....   125
 SCF integral mode      SCFMode         .... Direct
   Integral package                     .... LIBINT
 Reset frequency        DirectResetFreq ....    20
 Integral Threshold     Thresh          ....  2.500e-11 Eh
 Primitive CutOff       TCut            ....  2.500e-12 Eh

Convergence Tolerance:
 Convergence Check Mode ConvCheckMode   .... Total+1el-Energy
 Convergence forced     ConvForced      .... 1
 Energy Change          TolE            ....  1.000e-08 Eh
 1-El. energy change                    ....  1.000e-05 Eh
 Orbital Gradient       TolG            ....  1.000e-05
 Orbital Rotation angle TolX            ....  1.000e-05
 DIIS Error             TolErr          ....  5.000e-07


Diagonalization of the overlap matrix:
Smallest eigenvalue                        ... 3.805e-03
Time for diagonalization                   ...    0.015 sec
Threshold for overlap eigenvalues          ... 1.000e-08
Number of eigenvalues below threshold      ... 0
Time for construction of square roots      ...    0.008 sec
Total time needed                          ...    0.024 sec

-------------------
DFT GRID GENERATION
-------------------

General Integration Accuracy     IntAcc      ...  4.340
Radial Grid Type                 RadialGrid  ... Gauss-Chebyshev
Angular Grid (max. acc.)         AngularGrid ... Lebedev-110
Angular grid pruning method      GridPruning ... 3 (G Style)
Weight generation scheme         WeightScheme... Becke
Basis function cutoff            BFCut       ...    1.0000e-11
Integration weight cutoff        WCut        ...    1.0000e-14
Grids for H and He will be reduced by one unit

# of grid points (after initial pruning)     ...  26432 (   0.0 sec)
# of grid points (after weights+screening)   ...  24701 (   0.0 sec)
nearest neighbour list constructed           ...    0.0 sec
Grid point re-assignment to atoms done       ...    0.0 sec
Grid point division into batches done        ...    0.0 sec
Reduced shell lists constructed in    0.1 sec

Total number of grid points                  ...    24701
Total number of batches                      ...      398
Average number of points per batch           ...       62
Average number of grid points per atom       ...     1029
Average number of shells per batch           ...    69.00 (45.39%)
Average number of basis functions per batch  ...   139.41 (40.53%)
Average number of large shells per batch     ...    46.34 (67.16%)
Average number of large basis fcns per batch ...    91.72 (65.79%)
Maximum spatial batch extension              ...  16.16, 16.09, 11.81 au
Average spatial batch extension              ...   0.53,  0.57,  0.50 au

Time for grid setup =    0.088 sec

------------------------------
INITIAL GUESS: MODEL POTENTIAL
------------------------------
Loading Hartree-Fock densities                     ... done
Calculating cut-offs                               ... done
Setting up the integral package                    ... done
Initializing the effective Hamiltonian             ... done
Starting the Coulomb interaction                   ... done (   0.0 sec)
Reading the grid                                   ... done
Mapping shells                                     ... done
Starting the XC term evaluation                    ... done (   0.0 sec)
Transforming the Hamiltonian                       ... done (   0.0 sec)
Diagonalizing the Hamiltonian                      ... done (   0.0 sec)
Back transforming the eigenvectors                 ... done (   0.0 sec)
Now organizing SCF variables                       ... done
                      ------------------
                      INITIAL GUESS DONE (   0.3 sec)
                      ------------------
--------------
SCF ITERATIONS
--------------
ITER       Energy         Delta-E        Max-DP      RMS-DP      [F,P]     Damp
               ***  Starting incremental Fock matrix formation  ***
  0   -607.7933815793   0.000000000000 0.04386758  0.00083765  0.3473182 0.7000
  1   -608.0714767229  -0.278095143663 0.02912341  0.00057946  0.2166583 0.7000
                               ***Turning on DIIS***
  2   -608.2186138338  -0.147137110815 0.01654115  0.00032319  0.1635784 0.7000
  3   -609.5311349083  -1.312521074568 0.00766410  0.00014744  0.1217730 0.7000
  4   -609.2621406627   0.268994245634 0.01700438  0.00034134  0.0861489 0.0000
  5   -608.5549190506   0.707221612141 0.00203202  0.00005491  0.0057207 0.0000
                      *** Initiating the SOSCF procedure ***
                           *** Shutting down DIIS ***
                      *** Re-Reading the Fockian *** 
                      *** Removing any level shift *** 
ITER      Energy       Delta-E        Grad      Rot      Max-DP    RMS-DP
  6   -608.51375493   0.0411641161  0.000708  0.000708  0.001305  0.000034
               *** Restarting incremental Fock matrix formation ***
  7   -608.50261273   0.0111422076  0.000240  0.000389  0.000607  0.000015
  8   -608.50262451  -0.0000117786  0.000120  0.000326  0.000474  0.000012
  9   -608.50262729  -0.0000027800  0.000047  0.000041  0.000092  0.000002
 10   -608.50262752  -0.0000002366  0.000009  0.000006  0.000018  0.000000
                  ***Gradient check signals convergence***
              ***Rediagonalizing the Fockian in SOSCF/NRSCF***

               *****************************************************
               *                     SUCCESS                       *
               *           SCF CONVERGED AFTER  11 CYCLES          *
               *****************************************************


----------------
TOTAL SCF ENERGY
----------------

Total Energy       :         -608.50262753 Eh          -16558.19830 eV

Components:
Nuclear Repulsion  :          437.97608110 Eh           11917.93506 eV
Electronic Energy  :        -1046.47870863 Eh          -28476.13336 eV
One Electron Energy:        -1712.96361934 Eh          -46612.10980 eV
Two Electron Energy:          666.48491071 Eh           18135.97644 eV

Virial components:
Potential Energy   :        -1216.19679249 Eh          -33094.39721 eV
Kinetic Energy     :          607.69416496 Eh           16536.19891 eV
Virial Ratio       :            2.00133038


---------------
SCF CONVERGENCE
---------------

  Last Energy change         ...   -6.0220e-09  Tolerance :   1.0000e-08
  Last MAX-Density change    ...    5.0864e-06  Tolerance :   1.0000e-07
  Last RMS-Density change    ...    1.2228e-07  Tolerance :   5.0000e-09
  Last Orbital Gradient      ...    2.4885e-06  Tolerance :   1.0000e-05
  Last Orbital Rotation      ...    2.2679e-06  Tolerance :   1.0000e-05

             **** THE GBW FILE WAS UPDATED (12h2o.su.etal.mol1,2,3,6,7,8,9,11-orca.engrad-mp2.def2tzvp.frozencore.gbw) ****
             **** DENSITY FILE WAS UPDATED (12h2o.su.etal.mol1,2,3,6,7,8,9,11-orca.engrad-mp2.def2tzvp.frozencore.scfp) ****
             **** ENERGY FILE WAS UPDATED (12h2o.su.etal.mol1,2,3,6,7,8,9,11-orca.engrad-mp2.def2tzvp.frozencore.en.tmp) ****
             **** THE GBW FILE WAS UPDATED (12h2o.su.etal.mol1,2,3,6,7,8,9,11-orca.engrad-mp2.def2tzvp.frozencore.gbw) ****
             **** DENSITY FILE WAS UPDATED (12h2o.su.etal.mol1,2,3,6,7,8,9,11-orca.engrad-mp2.def2tzvp.frozencore.scfp) ****
----------------
ORBITAL ENERGIES
----------------

  NO   OCC          E(Eh)            E(eV) 
   0   2.0000     -20.626484      -561.2752 
   1   2.0000     -20.611024      -560.8545 
   2   2.0000     -20.585539      -560.1610 
   3   2.0000     -20.573864      -559.8433 
   4   2.0000     -20.562143      -559.5244 
   5   2.0000     -20.557350      -559.3939 
   6   2.0000     -20.536749      -558.8333 
   7   2.0000     -20.494305      -557.6784 
   8   2.0000      -1.412755       -38.4430 
   9   2.0000      -1.389749       -37.8170 
  10   2.0000      -1.372245       -37.3407 
  11   2.0000      -1.362244       -37.0685 
  12   2.0000      -1.343023       -36.5455 
  13   2.0000      -1.338850       -36.4320 
  14   2.0000      -1.320327       -35.9279 
  15   2.0000      -1.279367       -34.8133 
  16   2.0000      -0.768571       -20.9139 
  17   2.0000      -0.754020       -20.5179 
  18   2.0000      -0.752635       -20.4802 
  19   2.0000      -0.722958       -19.6727 
  20   2.0000      -0.712312       -19.3830 
  21   2.0000      -0.708124       -19.2690 
  22   2.0000      -0.704361       -19.1666 
  23   2.0000      -0.657293       -17.8858 
  24   2.0000      -0.653855       -17.7923 
  25   2.0000      -0.635508       -17.2930 
  26   2.0000      -0.617212       -16.7952 
  27   2.0000      -0.601569       -16.3695 
  28   2.0000      -0.590661       -16.0727 
  29   2.0000      -0.577572       -15.7165 
  30   2.0000      -0.564308       -15.3556 
  31   2.0000      -0.556550       -15.1445 
  32   2.0000      -0.554015       -15.0755 
  33   2.0000      -0.532868       -14.5001 
  34   2.0000      -0.522081       -14.2065 
  35   2.0000      -0.509384       -13.8611 
  36   2.0000      -0.505212       -13.7475 
  37   2.0000      -0.503140       -13.6911 
  38   2.0000      -0.482157       -13.1202 
  39   2.0000      -0.444682       -12.1004 
  40   0.0000       0.062550         1.7021 
  41   0.0000       0.113059         3.0765 
  42   0.0000       0.126305         3.4369 
  43   0.0000       0.134355         3.6560 
  44   0.0000       0.153378         4.1736 
  45   0.0000       0.173910         4.7323 
  46   0.0000       0.186436         5.0732 
  47   0.0000       0.211085         5.7439 
  48   0.0000       0.238077         6.4784 
  49   0.0000       0.255783         6.9602 
  50   0.0000       0.269584         7.3358 
  51   0.0000       0.277044         7.5388 
  52   0.0000       0.291811         7.9406 
  53   0.0000       0.309620         8.4252 
  54   0.0000       0.336316         9.1516 
  55   0.0000       0.350190         9.5291 
  56   0.0000       0.417936        11.3726 
  57   0.0000       0.448834        12.2134 
  58   0.0000       0.457179        12.4405 
  59   0.0000       0.477447        12.9920 
  60   0.0000       0.495136        13.4733 
  61   0.0000       0.509216        13.8565 
  62   0.0000       0.512835        13.9549 
  63   0.0000       0.527276        14.3479 
  64   0.0000       0.536595        14.6015 
  65   0.0000       0.544290        14.8109 
  66   0.0000       0.546144        14.8613 
  67   0.0000       0.559876        15.2350 
  68   0.0000       0.573831        15.6147 
  69   0.0000       0.583386        15.8747 
  70   0.0000       0.586811        15.9679 
  71   0.0000       0.598894        16.2967 
  72   0.0000       0.606742        16.5103 
  73   0.0000       0.624075        16.9820 
  74   0.0000       0.630812        17.1653 
  75   0.0000       0.643260        17.5040 
  76   0.0000       0.651281        17.7223 
  77   0.0000       0.660351        17.9691 
  78   0.0000       0.678182        18.4543 
  79   0.0000       0.684094        18.6152 
  80   0.0000       0.701191        19.0804 
  81   0.0000       0.710806        19.3420 
  82   0.0000       0.729637        19.8544 
  83   0.0000       0.738867        20.1056 
  84   0.0000       0.742555        20.2059 
  85   0.0000       0.756199        20.5772 
  86   0.0000       0.766338        20.8531 
  87   0.0000       0.776979        21.1427 
  88   0.0000       0.784027        21.3345 
  89   0.0000       0.794086        21.6082 
  90   0.0000       0.814418        22.1614 
  91   0.0000       0.819049        22.2874 
  92   0.0000       0.825246        22.4561 
  93   0.0000       0.854427        23.2501 
  94   0.0000       0.861228        23.4352 
  95   0.0000       0.897352        24.4182 
  96   0.0000       0.908468        24.7207 
  97   0.0000       0.933827        25.4107 
  98   0.0000       0.969576        26.3835 
  99   0.0000       0.992785        27.0151 
 100   0.0000       1.028128        27.9768 
 101   0.0000       1.052351        28.6359 
 102   0.0000       1.062891        28.9227 
 103   0.0000       1.084030        29.4980 
 104   0.0000       1.325312        36.0636 
 105   0.0000       1.355720        36.8910 
 106   0.0000       1.367848        37.2210 
 107   0.0000       1.371900        37.3313 
 108   0.0000       1.403485        38.1908 
 109   0.0000       1.405496        38.2455 
 110   0.0000       1.410684        38.3867 
 111   0.0000       1.413918        38.4747 
 112   0.0000       1.436331        39.0846 
 113   0.0000       1.446687        39.3664 
 114   0.0000       1.455548        39.6075 
 115   0.0000       1.473485        40.0956 
 116   0.0000       1.480423        40.2844 
 117   0.0000       1.487081        40.4655 
 118   0.0000       1.502842        40.8944 
 119   0.0000       1.530790        41.6549 
 120   0.0000       1.541210        41.9384 
 121   0.0000       1.553792        42.2808 
 122   0.0000       1.568514        42.6814 
 123   0.0000       1.589400        43.2498 
 124   0.0000       1.600347        43.5477 
 125   0.0000       1.616783        43.9949 
 126   0.0000       1.632494        44.4224 
 127   0.0000       1.672436        45.5093 
 128   0.0000       1.757847        47.8334 
 129   0.0000       1.784052        48.5465 
 130   0.0000       1.804537        49.1039 
 131   0.0000       1.833212        49.8842 
 132   0.0000       1.846767        50.2531 
 133   0.0000       1.874044        50.9953 
 134   0.0000       1.888724        51.3948 
 135   0.0000       1.893576        51.5268 
 136   0.0000       1.918402        52.2024 
 137   0.0000       1.929435        52.5026 
 138   0.0000       1.950902        53.0867 
 139   0.0000       1.962302        53.3969 
 140   0.0000       1.968686        53.5707 
 141   0.0000       1.974100        53.7180 
 142   0.0000       1.987815        54.0912 
 143   0.0000       2.026333        55.1393 
 144   0.0000       2.044312        55.6286 
 145   0.0000       2.070890        56.3518 
 146   0.0000       2.083034        56.6822 
 147   0.0000       2.088199        56.8228 
 148   0.0000       2.116653        57.5971 
 149   0.0000       2.131414        57.9987 
 150   0.0000       2.158459        58.7347 
 151   0.0000       2.199823        59.8602 
 152   0.0000       2.215604        60.2896 
 153   0.0000       2.246894        61.1411 
 154   0.0000       2.267357        61.6979 
 155   0.0000       2.298515        62.5458 
 156   0.0000       2.303689        62.6866 
 157   0.0000       2.314332        62.9762 
 158   0.0000       2.319474        63.1161 
 159   0.0000       2.326748        63.3140 
 160   0.0000       2.335499        63.5522 
 161   0.0000       2.340373        63.6848 
 162   0.0000       2.346372        63.8480 
 163   0.0000       2.351653        63.9917 
 164   0.0000       2.366295        64.3901 
 165   0.0000       2.379416        64.7472 
 166   0.0000       2.383959        64.8708 
 167   0.0000       2.424846        65.9834 
 168   0.0000       2.438550        66.3563 
 169   0.0000       2.452813        66.7444 
 170   0.0000       2.478805        67.4517 
 171   0.0000       2.489215        67.7350 
 172   0.0000       2.506954        68.2177 
 173   0.0000       2.520212        68.5784 
 174   0.0000       2.540116        69.1201 
 175   0.0000       2.564773        69.7910 
 176   0.0000       2.572282        69.9954 
 177   0.0000       2.583171        70.2916 
 178   0.0000       2.604822        70.8808 
 179   0.0000       2.615648        71.1754 
 180   0.0000       2.626534        71.4716 
 181   0.0000       2.630863        71.5894 
 182   0.0000       2.640716        71.8575 
 183   0.0000       2.662435        72.4486 
 184   0.0000       2.669717        72.6467 
 185   0.0000       2.685867        73.0861 
 186   0.0000       2.694760        73.3282 
 187   0.0000       2.701402        73.5089 
 188   0.0000       2.757455        75.0342 
 189   0.0000       2.762709        75.1771 
 190   0.0000       2.767294        75.3019 
 191   0.0000       2.814422        76.5843 
 192   0.0000       2.879810        78.3636 
 193   0.0000       2.889822        78.6361 
 194   0.0000       2.898231        78.8649 
 195   0.0000       2.923106        79.5417 
 196   0.0000       2.934361        79.8480 
 197   0.0000       2.960393        80.5564 
 198   0.0000       2.968512        80.7773 
 199   0.0000       2.977867        81.0319 
 200   0.0000       2.979057        81.0643 
 201   0.0000       2.981839        81.1400 
 202   0.0000       3.001273        81.6688 
 203   0.0000       3.032717        82.5244 
 204   0.0000       3.037227        82.6471 
 205   0.0000       3.052240        83.0557 
 206   0.0000       3.056025        83.1587 
 207   0.0000       3.079934        83.8093 
 208   0.0000       3.091907        84.1351 
 209   0.0000       3.108898        84.5974 
 210   0.0000       3.137462        85.3747 
 211   0.0000       3.156827        85.9016 
 212   0.0000       3.166990        86.1782 
 213   0.0000       3.189325        86.7859 
 214   0.0000       3.213926        87.4554 
 215   0.0000       3.243264        88.2537 
 216   0.0000       3.262840        88.7864 
 217   0.0000       3.266914        88.8972 
 218   0.0000       3.303665        89.8973 
 219   0.0000       3.323673        90.4417 
 220   0.0000       3.354430        91.2787 
 221   0.0000       3.386180        92.1426 
 222   0.0000       3.478519        94.6553 
 223   0.0000       3.519637        95.7742 
 224   0.0000       3.977491       108.2330 
 225   0.0000       3.992433       108.6396 
 226   0.0000       4.032657       109.7342 
 227   0.0000       4.047095       110.1271 
 228   0.0000       4.079511       111.0091 
 229   0.0000       4.104514       111.6895 
 230   0.0000       4.116325       112.0109 
 231   0.0000       4.135761       112.5398 
 232   0.0000       4.246816       115.5618 
 233   0.0000       4.261705       115.9669 
 234   0.0000       4.305564       117.1604 
 235   0.0000       4.313808       117.3847 
 236   0.0000       4.325726       117.7090 
 237   0.0000       4.348779       118.3363 
 238   0.0000       4.380532       119.2003 
 239   0.0000       4.402361       119.7943 
 240   0.0000       5.481837       149.1684 
 241   0.0000       5.501458       149.7023 
 242   0.0000       5.520033       150.2077 
 243   0.0000       5.531132       150.5098 
 244   0.0000       5.548790       150.9902 
 245   0.0000       5.549618       151.0128 
 246   0.0000       5.566381       151.4689 
 247   0.0000       5.608363       152.6113 
 248   0.0000       5.609318       152.6373 
 249   0.0000       5.612734       152.7302 
 250   0.0000       5.630475       153.2130 
 251   0.0000       5.655701       153.8994 
 252   0.0000       5.659185       153.9943 
 253   0.0000       5.662377       154.0811 
 254   0.0000       5.680534       154.5752 
 255   0.0000       5.715505       155.5268 
 256   0.0000       5.764047       156.8477 
 257   0.0000       5.772781       157.0854 
 258   0.0000       5.774462       157.1311 
 259   0.0000       5.801843       157.8762 
 260   0.0000       5.811030       158.1262 
 261   0.0000       5.813588       158.1958 
 262   0.0000       5.816991       158.2884 
 263   0.0000       5.821163       158.4019 
 264   0.0000       5.830396       158.6531 
 265   0.0000       5.833464       158.7366 
 266   0.0000       5.834768       158.7721 
 267   0.0000       5.843482       159.0092 
 268   0.0000       5.861578       159.5016 
 269   0.0000       5.865301       159.6030 
 270   0.0000       5.875152       159.8710 
 271   0.0000       5.875947       159.8926 
 272   0.0000       5.885216       160.1449 
 273   0.0000       5.892440       160.3414 
 274   0.0000       5.899756       160.5405 
 275   0.0000       5.904488       160.6693 
 276   0.0000       5.907347       160.7471 
 277   0.0000       5.938919       161.6062 
 278   0.0000       5.953054       161.9908 
 279   0.0000       5.964977       162.3153 
 280   0.0000       6.421420       174.7357 
 281   0.0000       6.425988       174.8600 
 282   0.0000       6.443036       175.3239 
 283   0.0000       6.469405       176.0415 
 284   0.0000       6.475271       176.2011 
 285   0.0000       6.492103       176.6591 
 286   0.0000       6.494194       176.7160 
 287   0.0000       6.552966       178.3153 
 288   0.0000       6.636452       180.5870 
 289   0.0000       6.645943       180.8453 
 290   0.0000       6.671726       181.5469 
 291   0.0000       6.690308       182.0525 
 292   0.0000       6.693744       182.1460 
 293   0.0000       6.732351       183.1966 
 294   0.0000       6.739363       183.3874 
 295   0.0000       6.757699       183.8863 
 296   0.0000       6.806554       185.2158 
 297   0.0000       6.812875       185.3878 
 298   0.0000       6.833401       185.9463 
 299   0.0000       6.845192       186.2672 
 300   0.0000       6.851801       186.4470 
 301   0.0000       6.857131       186.5920 
 302   0.0000       6.862252       186.7314 
 303   0.0000       6.881498       187.2551 
 304   0.0000       6.888056       187.4335 
 305   0.0000       6.902501       187.8266 
 306   0.0000       6.909286       188.0112 
 307   0.0000       6.912840       188.1079 
 308   0.0000       6.923260       188.3915 
 309   0.0000       6.925355       188.4485 
 310   0.0000       6.929888       188.5718 
 311   0.0000       6.954767       189.2488 
 312   0.0000       6.959098       189.3667 
 313   0.0000       6.970720       189.6829 
 314   0.0000       6.980099       189.9381 
 315   0.0000       7.005494       190.6292 
 316   0.0000       7.019651       191.0144 
 317   0.0000       7.031889       191.3474 
 318   0.0000       7.034027       191.4056 
 319   0.0000       7.084823       192.7878 
 320   0.0000       7.307216       198.8395 
 321   0.0000       7.340605       199.7480 
 322   0.0000       7.375873       200.7077 
 323   0.0000       7.395821       201.2505 
 324   0.0000       7.407760       201.5754 
 325   0.0000       7.447164       202.6476 
 326   0.0000       7.453893       202.8307 
 327   0.0000       7.458483       202.9556 
 328   0.0000       7.496582       203.9924 
 329   0.0000       7.504496       204.2077 
 330   0.0000       7.532611       204.9728 
 331   0.0000       7.537950       205.1180 
 332   0.0000       7.547482       205.3774 
 333   0.0000       7.577593       206.1968 
 334   0.0000       7.597593       206.7410 
 335   0.0000       7.642937       207.9749 
 336   0.0000      44.872009      1221.0294 
 337   0.0000      44.899579      1221.7797 
 338   0.0000      44.939091      1222.8548 
 339   0.0000      44.972115      1223.7535 
 340   0.0000      44.982241      1224.0290 
 341   0.0000      45.000530      1224.5267 
 342   0.0000      45.031244      1225.3625 
 343   0.0000      45.035739      1225.4848 

                    ********************************
                    * MULLIKEN POPULATION ANALYSIS *
                    ********************************

-----------------------
MULLIKEN ATOMIC CHARGES
-----------------------
   0 O :   -0.788365
   1 H :    0.366166
   2 H :    0.408526
   3 O :   -0.775086
   4 H :    0.345135
   5 H :    0.409454
   6 O :   -0.767218
   7 H :    0.380330
   8 H :    0.367872
   9 O :   -0.726945
  10 H :    0.363036
  11 H :    0.366102
  12 O :   -0.740358
  13 H :    0.393793
  14 H :    0.339066
  15 O :   -0.733448
  16 H :    0.399410
  17 H :    0.365951
  18 O :   -0.710123
  19 H :    0.372749
  20 H :    0.375442
  21 O :   -0.734727
  22 H :    0.335667
  23 H :    0.387572
Sum of atomic charges:   -0.0000000

--------------------------------
MULLIKEN REDUCED ORBITAL CHARGES
--------------------------------
  0 O s       :     3.808457  s :     3.808457
      pz      :     1.727713  p :     4.956318
      px      :     1.433726
      py      :     1.794879
      dz2     :     0.003650  d :     0.022199
      dxz     :     0.004349
      dyz     :     0.005099
      dx2y2   :     0.002278
      dxy     :     0.006823
      f0      :     0.000081  f :     0.001391
      f+1     :     0.000316
      f-1     :     0.000170
      f+2     :     0.000061
      f-2     :     0.000346
      f+3     :     0.000083
      f-3     :     0.000334
  1 H s       :     0.588592  s :     0.588592
      pz      :     0.016862  p :     0.045242
      px      :     0.013745
      py      :     0.014635
  2 H s       :     0.535904  s :     0.535904
      pz      :     0.010155  p :     0.055570
      px      :     0.032186
      py      :     0.013229
  3 O s       :     3.807224  s :     3.807224
      pz      :     1.728389  p :     4.943547
      px      :     1.785621
      py      :     1.429537
      dz2     :     0.003952  d :     0.022889
      dxz     :     0.005238
      dyz     :     0.004764
      dx2y2   :     0.002282
      dxy     :     0.006653
      f0      :     0.000089  f :     0.001427
      f+1     :     0.000177
      f-1     :     0.000331
      f+2     :     0.000062
      f-2     :     0.000356
      f+3     :     0.000331
      f-3     :     0.000082
  4 H s       :     0.609106  s :     0.609106
      pz      :     0.017029  p :     0.045760
      px      :     0.014984
      py      :     0.013747
  5 H s       :     0.534521  s :     0.534521
      pz      :     0.010476  p :     0.056025
      px      :     0.013166
      py      :     0.032383
  6 O s       :     3.805359  s :     3.805359
      pz      :     1.548114  p :     4.936024
      px      :     1.566284
      py      :     1.821626
      dz2     :     0.011326  d :     0.024401
      dxz     :     0.001215
      dyz     :     0.002828
      dx2y2   :     0.001995
      dxy     :     0.007038
      f0      :     0.000252  f :     0.001433
      f+1     :     0.000370
      f-1     :     0.000160
      f+2     :     0.000056
      f-2     :     0.000054
      f+3     :     0.000063
      f-3     :     0.000478
  7 H s       :     0.571219  s :     0.571219
      pz      :     0.024028  p :     0.048451
      px      :     0.011516
      py      :     0.012908
  8 H s       :     0.581515  s :     0.581515
      pz      :     0.010181  p :     0.050613
      px      :     0.023823
      py      :     0.016610
  9 O s       :     3.811645  s :     3.811645
      pz      :     1.549225  p :     4.889229
      px      :     1.463623
      py      :     1.876381
      dz2     :     0.010740  d :     0.024553
      dxz     :     0.002637
      dyz     :     0.002474
      dx2y2   :     0.003169
      dxy     :     0.005533
      f0      :     0.000203  f :     0.001517
      f+1     :     0.000445
      f-1     :     0.000129
      f+2     :     0.000079
      f-2     :     0.000038
      f+3     :     0.000129
      f-3     :     0.000494
 10 H s       :     0.592156  s :     0.592156
      pz      :     0.018805  p :     0.044808
      px      :     0.011900
      py      :     0.014103
 11 H s       :     0.591264  s :     0.591264
      pz      :     0.009303  p :     0.042634
      px      :     0.018502
      py      :     0.014829
 12 O s       :     3.810822  s :     3.810822
      pz      :     1.593990  p :     4.903938
      px      :     1.437964
      py      :     1.871984
      dz2     :     0.010439  d :     0.024139
      dxz     :     0.002588
      dyz     :     0.002461
      dx2y2   :     0.003201
      dxy     :     0.005451
      f0      :     0.000177  f :     0.001460
      f+1     :     0.000430
      f-1     :     0.000122
      f+2     :     0.000078
      f-2     :     0.000036
      f+3     :     0.000128
      f-3     :     0.000488
 13 H s       :     0.556939  s :     0.556939
      pz      :     0.024898  p :     0.049268
      px      :     0.011188
      py      :     0.013182
 14 H s       :     0.617629  s :     0.617629
      pz      :     0.009912  p :     0.043305
      px      :     0.018077
      py      :     0.015316
 15 O s       :     3.797707  s :     3.797707
      pz      :     1.568949  p :     4.909251
      px      :     1.552308
      py      :     1.787994
      dz2     :     0.011956  d :     0.025088
      dxz     :     0.001213
      dyz     :     0.002402
      dx2y2   :     0.002413
      dxy     :     0.007105
      f0      :     0.000229  f :     0.001402
      f+1     :     0.000383
      f-1     :     0.000156
      f+2     :     0.000051
      f-2     :     0.000055
      f+3     :     0.000052
      f-3     :     0.000476
 16 H s       :     0.552904  s :     0.552904
      pz      :     0.024629  p :     0.047686
      px      :     0.011142
      py      :     0.011915
 17 H s       :     0.590420  s :     0.590420
      pz      :     0.010463  p :     0.043630
      px      :     0.018491
      py      :     0.014676
 18 O s       :     3.800531  s :     3.800531
      pz      :     1.531312  p :     4.882195
      px      :     1.787865
      py      :     1.563017
      dz2     :     0.012663  d :     0.025958
      dxz     :     0.002439
      dyz     :     0.001256
      dx2y2   :     0.002509
      dxy     :     0.007091
      f0      :     0.000247  f :     0.001439
      f+1     :     0.000162
      f-1     :     0.000393
      f+2     :     0.000051
      f-2     :     0.000057
      f+3     :     0.000479
      f-3     :     0.000051
 19 H s       :     0.583498  s :     0.583498
      pz      :     0.019540  p :     0.043753
      px      :     0.012556
      py      :     0.011656
 20 H s       :     0.581309  s :     0.581309
      pz      :     0.010123  p :     0.043250
      px      :     0.014511
      py      :     0.018616
 21 O s       :     3.810752  s :     3.810752
      pz      :     1.492800  p :     4.897209
      px      :     1.821943
      py      :     1.582465
      dz2     :     0.012069  d :     0.025290
      dxz     :     0.002875
      dyz     :     0.001278
      dx2y2   :     0.002047
      dxy     :     0.007021
      f0      :     0.000271  f :     0.001475
      f+1     :     0.000167
      f-1     :     0.000380
      f+2     :     0.000056
      f-2     :     0.000056
      f+3     :     0.000483
      f-3     :     0.000062
 22 H s       :     0.619387  s :     0.619387
      pz      :     0.018665  p :     0.044945
      px      :     0.013915
      py      :     0.012365
 23 H s       :     0.562360  s :     0.562360
      pz      :     0.009722  p :     0.050068
      px      :     0.016230
      py      :     0.024116


                     *******************************
                     * LOEWDIN POPULATION ANALYSIS *
                     *******************************

----------------------
LOEWDIN ATOMIC CHARGES
----------------------
   0 O :   -0.323532
   1 H :    0.161843
   2 H :    0.155613
   3 O :   -0.349995
   4 H :    0.152689
   5 H :    0.155690
   6 O :   -0.364858
   7 H :    0.152659
   8 H :    0.147311
   9 O :   -0.320796
  10 H :    0.170347
  11 H :    0.177775
  12 O :   -0.330579
  13 H :    0.157404
  14 H :    0.163749
  15 O :   -0.286129
  16 H :    0.163303
  17 H :    0.173717
  18 O :   -0.273622
  19 H :    0.175370
  20 H :    0.178055
  21 O :   -0.348271
  22 H :    0.156837
  23 H :    0.155421

-------------------------------
LOEWDIN REDUCED ORBITAL CHARGES
-------------------------------
  0 O s       :     3.455300  s :     3.455300
      pz      :     1.684420  p :     4.837526
      px      :     1.402097
      py      :     1.751010
      dz2     :     0.004795  d :     0.028748
      dxz     :     0.006521
      dyz     :     0.005148
      dx2y2   :     0.003694
      dxy     :     0.008590
      f0      :     0.000086  f :     0.001957
      f+1     :     0.000429
      f-1     :     0.000259
      f+2     :     0.000032
      f-2     :     0.000602
      f+3     :     0.000084
      f-3     :     0.000466
  1 H s       :     0.672654  s :     0.672654
      pz      :     0.066255  p :     0.165503
      px      :     0.046189
      py      :     0.053059
  2 H s       :     0.648160  s :     0.648160
      pz      :     0.033544  p :     0.196227
      px      :     0.115080
      py      :     0.047603
  3 O s       :     3.461234  s :     3.461234
      pz      :     1.709165  p :     4.857750
      px      :     1.747875
      py      :     1.400710
      dz2     :     0.004312  d :     0.029033
      dxz     :     0.005406
      dyz     :     0.007035
      dx2y2   :     0.003651
      dxy     :     0.008630
      f0      :     0.000074  f :     0.001977
      f+1     :     0.000265
      f-1     :     0.000438
      f+2     :     0.000032
      f-2     :     0.000623
      f+3     :     0.000462
      f-3     :     0.000083
  4 H s       :     0.682388  s :     0.682388
      pz      :     0.065763  p :     0.164923
      px      :     0.053260
      py      :     0.045900
  5 H s       :     0.648423  s :     0.648423
      pz      :     0.033319  p :     0.195887
      px      :     0.047480
      py      :     0.115088
  6 O s       :     3.460245  s :     3.460245
      pz      :     1.533158  p :     4.872924
      px      :     1.546545
      py      :     1.793221
      dz2     :     0.014733  d :     0.029675
      dxz     :     0.001942
      dyz     :     0.002199
      dx2y2   :     0.002055
      dxy     :     0.008745
      f0      :     0.000447  f :     0.002015
      f+1     :     0.000543
      f-1     :     0.000304
      f+2     :     0.000023
      f-2     :     0.000047
      f+3     :     0.000002
      f-3     :     0.000649
  7 H s       :     0.676514  s :     0.676514
      pz      :     0.091744  p :     0.170827
      px      :     0.036882
      py      :     0.042201
  8 H s       :     0.677889  s :     0.677889
      pz      :     0.031092  p :     0.174800
      px      :     0.085638
      py      :     0.058070
  9 O s       :     3.468331  s :     3.468331
      pz      :     1.530549  p :     4.818178
      px      :     1.453141
      py      :     1.834488
      dz2     :     0.015265  d :     0.032161
      dxz     :     0.004097
      dyz     :     0.001686
      dx2y2   :     0.004251
      dxy     :     0.006862
      f0      :     0.000395  f :     0.002127
      f+1     :     0.000742
      f-1     :     0.000196
      f+2     :     0.000047
      f-2     :     0.000042
      f+3     :     0.000072
      f-3     :     0.000631
 10 H s       :     0.671672  s :     0.671672
      pz      :     0.080008  p :     0.157981
      px      :     0.035127
      py      :     0.042845
 11 H s       :     0.668687  s :     0.668687
      pz      :     0.029064  p :     0.153538
      px      :     0.075363
      py      :     0.049111
 12 O s       :     3.464717  s :     3.464717
      pz      :     1.557320  p :     4.832180
      px      :     1.442180
      py      :     1.832681
      dz2     :     0.014576  d :     0.031620
      dxz     :     0.003760
      dyz     :     0.001599
      dx2y2   :     0.004559
      dxy     :     0.007126
      f0      :     0.000350  f :     0.002062
      f+1     :     0.000707
      f-1     :     0.000193
      f+2     :     0.000043
      f-2     :     0.000041
      f+3     :     0.000076
      f-3     :     0.000651
 13 H s       :     0.670211  s :     0.670211
      pz      :     0.094302  p :     0.172385
      px      :     0.035530
      py      :     0.042553
 14 H s       :     0.682406  s :     0.682406
      pz      :     0.030840  p :     0.153845
      px      :     0.073627
      py      :     0.049379
 15 O s       :     3.452839  s :     3.452839
      pz      :     1.541395  p :     4.799335
      px      :     1.531865
      py      :     1.726075
      dz2     :     0.015440  d :     0.031846
      dxz     :     0.001794
      dyz     :     0.001842
      dx2y2   :     0.003621
      dxy     :     0.009150
      f0      :     0.000411  f :     0.002109
      f+1     :     0.000559
      f-1     :     0.000335
      f+2     :     0.000020
      f-2     :     0.000046
      f+3     :     0.000027
      f-3     :     0.000710
 16 H s       :     0.665850  s :     0.665850
      pz      :     0.093410  p :     0.170847
      px      :     0.036007
      py      :     0.041430
 17 H s       :     0.667726  s :     0.667726
      pz      :     0.031011  p :     0.158557
      px      :     0.072726
      py      :     0.054820
 18 O s       :     3.457033  s :     3.457033
      pz      :     1.519459  p :     4.781056
      px      :     1.726833
      py      :     1.534764
      dz2     :     0.016773  d :     0.033358
      dxz     :     0.001930
      dyz     :     0.001949
      dx2y2   :     0.003686
      dxy     :     0.009019
      f0      :     0.000454  f :     0.002175
      f+1     :     0.000342
      f-1     :     0.000583
      f+2     :     0.000022
      f-2     :     0.000048
      f+3     :     0.000700
      f-3     :     0.000026
 19 H s       :     0.665649  s :     0.665649
      pz      :     0.081711  p :     0.158981
      px      :     0.041543
      py      :     0.035727
 20 H s       :     0.664054  s :     0.664054
      pz      :     0.029744  p :     0.157891
      px      :     0.054870
      py      :     0.073276
 21 O s       :     3.466450  s :     3.466450
      pz      :     1.503345  p :     4.848198
      px      :     1.793561
      py      :     1.551292
      dz2     :     0.016419  d :     0.031511
      dxz     :     0.002356
      dyz     :     0.002210
      dx2y2   :     0.002052
      dxy     :     0.008474
      f0      :     0.000507  f :     0.002111
      f+1     :     0.000313
      f-1     :     0.000579
      f+2     :     0.000025
      f-2     :     0.000050
      f+3     :     0.000636
      f-3     :     0.000002
 22 H s       :     0.684771  s :     0.684771
      pz      :     0.079252  p :     0.158392
      px      :     0.042604
      py      :     0.036536
 23 H s       :     0.670622  s :     0.670622
      pz      :     0.029453  p :     0.173957
      px      :     0.057969
      py      :     0.086535


                      *****************************
                      * MAYER POPULATION ANALYSIS *
                      *****************************

  NA   - Mulliken gross atomic population
  ZA   - Total nuclear charge
  QA   - Mulliken gross atomic charge
  VA   - Mayer's total valence
  BVA  - Mayer's bonded valence
  FA   - Mayer's free valence

  ATOM       NA         ZA         QA         VA         BVA        FA
  0 O      8.7884     8.0000    -0.7884     1.6870     1.6870     0.0000
  1 H      0.6338     1.0000     0.3662     0.8834     0.8834    -0.0000
  2 H      0.5915     1.0000     0.4085     0.8659     0.8659    -0.0000
  3 O      8.7751     8.0000    -0.7751     1.6902     1.6902     0.0000
  4 H      0.6549     1.0000     0.3451     0.8976     0.8976     0.0000
  5 H      0.5905     1.0000     0.4095     0.8653     0.8653    -0.0000
  6 O      8.7672     8.0000    -0.7672     1.7147     1.7147    -0.0000
  7 H      0.6197     1.0000     0.3803     0.8787     0.8787    -0.0000
  8 H      0.6321     1.0000     0.3679     0.9005     0.9005    -0.0000
  9 O      8.7269     8.0000    -0.7269     1.7652     1.7652    -0.0000
 10 H      0.6370     1.0000     0.3630     0.8863     0.8863    -0.0000
 11 H      0.6339     1.0000     0.3661     0.8880     0.8880    -0.0000
 12 O      8.7404     8.0000    -0.7404     1.7433     1.7433    -0.0000
 13 H      0.6062     1.0000     0.3938     0.8750     0.8750     0.0000
 14 H      0.6609     1.0000     0.3391     0.9057     0.9057    -0.0000
 15 O      8.7334     8.0000    -0.7334     1.7542     1.7542    -0.0000
 16 H      0.6006     1.0000     0.3994     0.8634     0.8634     0.0000
 17 H      0.6340     1.0000     0.3660     0.8850     0.8850    -0.0000
 18 O      8.7101     8.0000    -0.7101     1.7776     1.7776    -0.0000
 19 H      0.6273     1.0000     0.3727     0.8768     0.8768     0.0000
 20 H      0.6246     1.0000     0.3754     0.8773     0.8773     0.0000
 21 O      8.7347     8.0000    -0.7347     1.7447     1.7447    -0.0000
 22 H      0.6643     1.0000     0.3357     0.9030     0.9030    -0.0000
 23 H      0.6124     1.0000     0.3876     0.8829     0.8829     0.0000

  Mayer bond orders larger than 0.100000
B(  0-O ,  1-H ) :   0.8732 B(  0-O ,  2-H ) :   0.7883 B(  3-O ,  4-H ) :   0.8890 
B(  3-O ,  5-H ) :   0.7930 B(  6-O ,  7-H ) :   0.8595 B(  6-O ,  8-H ) :   0.8546 
B(  9-O , 10-H ) :   0.8757 B(  9-O , 11-H ) :   0.8671 B( 12-O , 13-H ) :   0.8374 
B( 12-O , 14-H ) :   0.8872 B( 15-O , 16-H ) :   0.8384 B( 15-O , 17-H ) :   0.8713 
B( 18-O , 19-H ) :   0.8681 B( 18-O , 20-H ) :   0.8640 B( 21-O , 22-H ) :   0.8961 
B( 21-O , 23-H ) :   0.8410 

-------
TIMINGS
-------

Total SCF time: 0 days 0 hours 0 min 22 sec 

Total time                  ....      22.578 sec
Sum of individual times     ....      22.293 sec  ( 98.7%)

Fock matrix formation       ....      21.748 sec  ( 96.3%)
Diagonalization             ....       0.134 sec  (  0.6%)
Density matrix formation    ....       0.013 sec  (  0.1%)
Population analysis         ....       0.015 sec  (  0.1%)
Initial guess               ....       0.184 sec  (  0.8%)
Orbital Transformation      ....       0.000 sec  (  0.0%)
Orbital Orthonormalization  ....       0.000 sec  (  0.0%)
DIIS solution               ....       0.051 sec  (  0.2%)
SOSCF solution              ....       0.060 sec  (  0.3%)


           ************************************************************
           *        Program running with 6 parallel MPI-processes     *
           *              working on a common directory               *
           ************************************************************

------------------------------------------------------------------------------
                                ORCA  MP2 
------------------------------------------------------------------------------

Freezing NCore=16 chemical core electrons
MP2 will be done in the AO integral direct mode
The Q1-step will be done using symmetric double matrices
Dimension of the basis                    ...  344
Memory devoted for MP2                    ... 8000 MB   
Memory needed for all in one shot         ...  935 MB
Number of MOs that can be treated together...   50      
MP2 density construction                  ... relaxed
The MP2 gradient is requested => amplitudes will be stored on disk
Total number of MOs              ...   32
Number of MOs treated per batch  ...    6 
Number of batches necessary      ...    1 
OPERATORS   0/  0 PASS   0
-----------------------------------------------
 MP2 CORRELATION ENERGY   :     -2.067192228 Eh
-----------------------------------------------


---------------------
MP2 DENSITY FORMATION
---------------------

Completing the external part of the density      ... done
Storing the unrelaxed density                    ... done

Calculating G(D)                                 ... done
Completing the Lagrangian                        ... done
Solving the Z-vector equations                   ... 

------------------------------------------------------------------------------
                           ORCA CP-SCF CALCULATION
------------------------------------------------------------------------------

Input orbitals are from        ... 12h2o.su.etal.mol1,2,3,6,7,8,9,11-orca.engrad-mp2.def2tzvp.frozencore.gbw
Input Perturbation             ... 12h2o.su.etal.mol1,2,3,6,7,8,9,11-orca.engrad-mp2.def2tzvp.frozencore.pin.tmp
Wavefunction output            ... 12h2o.su.etal.mol1,2,3,6,7,8,9,11-orca.engrad-mp2.def2tzvp.frozencore.pout.tmp
Perturbation mode              ... Real perturbation (singlet)
Solver                         ... POPLE
Max. number of iterations      ... 128
Convergence tolerance          ... 1.000e-08
Integral handling              ... Direct
Number of perturbations        ... 1
Number of operators            ... 1
Orbital ranges used for CP-SCF:
 Operator 0:  Orbitals   0... 39  to  40...343
Variables per vector in CP-SCF ... 12160
Number of vectors sought       ... 1
     CP-SCF ITERATION   0: 
     CP-SCF ITERATION   1:      0.001017993753
     CP-SCF ITERATION   2:      0.000025815019
     CP-SCF ITERATION   3:      0.000001228943
     CP-SCF ITERATION   4:      0.000000111964
     CP-SCF ITERATION   5:      0.000000009946
                                                 ... done
Finalizing the relaxed density                   ... done
Transforming P to the AO basis                   ... done
Storing the relaxed density                      ... done

------------------------------------
ENERGY WEIGHTED DENSITY FINALIZATION
------------------------------------

Gathering the parts of the W-matrix              ...                                                      done
Forming the Z-density                            ... done
Transforming Z to the AO basis                   ... done
Calculating G(Z)                                 ... done
Finalizing the W-matrix                          ...                                                      done
Transforming W to the AO basis and storing       ... done

                *********************************************
                * UNRELAXED MP2 DENSITY POPULATION ANALYSIS *
                *********************************************

------------------------------------------------------------------------------
                           ORCA POPULATION ANALYSIS
------------------------------------------------------------------------------
Input electron density              ... 12h2o.su.etal.mol1,2,3,6,7,8,9,11-orca.engrad-mp2.def2tzvp.frozencore.pmp2ur
BaseName (.gbw .S,...)              ... 12h2o.su.etal.mol1,2,3,6,7,8,9,11-orca.engrad-mp2.def2tzvp.frozencore

                    ********************************
                    * MULLIKEN POPULATION ANALYSIS *
                    ********************************

-----------------------
MULLIKEN ATOMIC CHARGES
-----------------------
   0 O :   -0.781844
   1 H :    0.363840
   2 H :    0.403839
   3 O :   -0.768974
   4 H :    0.342823
   5 H :    0.404885
   6 O :   -0.761390
   7 H :    0.377424
   8 H :    0.364328
   9 O :   -0.721548
  10 H :    0.360664
  11 H :    0.363095
  12 O :   -0.734659
  13 H :    0.390766
  14 H :    0.336109
  15 O :   -0.726813
  16 H :    0.396557
  17 H :    0.363317
  18 O :   -0.703707
  19 H :    0.370300
  20 H :    0.372866
  21 O :   -0.729221
  22 H :    0.333181
  23 H :    0.384161
Sum of atomic charges:   -0.0000000

--------------------------------
MULLIKEN REDUCED ORBITAL CHARGES
--------------------------------
  0 O s       :     3.803560  s :     3.803560
      pz      :     1.716582  p :     4.924203
      px      :     1.424818
      py      :     1.782803
      dz2     :     0.009328  d :     0.050093
      dxz     :     0.009878
      dyz     :     0.010641
      dx2y2   :     0.007937
      dxy     :     0.012309
      f0      :     0.000455  f :     0.003987
      f+1     :     0.000684
      f-1     :     0.000538
      f+2     :     0.000434
      f-2     :     0.000714
      f+3     :     0.000460
      f-3     :     0.000703
  1 H s       :     0.589343  s :     0.589343
      pz      :     0.017324  p :     0.046817
      px      :     0.014172
      py      :     0.015322
  2 H s       :     0.538954  s :     0.538954
      pz      :     0.010967  p :     0.057207
      px      :     0.032300
      py      :     0.013940
  3 O s       :     3.802265  s :     3.802265
      pz      :     1.717773  p :     4.912313
      px      :     1.773678
      py      :     1.420861
      dz2     :     0.009472  d :     0.050387
      dxz     :     0.010691
      dyz     :     0.010174
      dx2y2   :     0.007922
      dxy     :     0.012129
      f0      :     0.000458  f :     0.004009
      f+1     :     0.000542
      f-1     :     0.000696
      f+2     :     0.000433
      f-2     :     0.000722
      f+3     :     0.000700
      f-3     :     0.000459
  4 H s       :     0.609750  s :     0.609750
      pz      :     0.017518  p :     0.047427
      px      :     0.015708
      py      :     0.014201
  5 H s       :     0.537453  s :     0.537453
      pz      :     0.011295  p :     0.057661
      px      :     0.013876
      py      :     0.032491
  6 O s       :     3.800540  s :     3.800540
      pz      :     1.538678  p :     4.905403
      px      :     1.556722
      py      :     1.810003
      dz2     :     0.016513  d :     0.051438
      dxz     :     0.006678
      dyz     :     0.008333
      dx2y2   :     0.007568
      dxy     :     0.012346
      f0      :     0.000633  f :     0.004009
      f+1     :     0.000740
      f-1     :     0.000533
      f+2     :     0.000416
      f-2     :     0.000421
      f+3     :     0.000432
      f-3     :     0.000835
  7 H s       :     0.572537  s :     0.572537
      pz      :     0.024093  p :     0.050039
      px      :     0.012196
      py      :     0.013750
  8 H s       :     0.583443  s :     0.583443
      pz      :     0.010985  p :     0.052229
      px      :     0.024010
      py      :     0.017234
  9 O s       :     3.806775  s :     3.806775
      pz      :     1.539776  p :     4.859282
      px      :     1.454983
      py      :     1.864523
      dz2     :     0.015954  d :     0.051421
      dxz     :     0.007982
      dyz     :     0.008033
      dx2y2   :     0.008568
      dxy     :     0.010883
      f0      :     0.000584  f :     0.004071
      f+1     :     0.000809
      f-1     :     0.000501
      f+2     :     0.000439
      f-2     :     0.000402
      f+3     :     0.000492
      f-3     :     0.000844
 10 H s       :     0.592963  s :     0.592963
      pz      :     0.018929  p :     0.046373
      px      :     0.012493
      py      :     0.014951
 11 H s       :     0.592721  s :     0.592721
      pz      :     0.010099  p :     0.044185
      px      :     0.018498
      py      :     0.015587
 12 O s       :     3.805948  s :     3.805948
      pz      :     1.583986  p :     4.873407
      px      :     1.429363
      py      :     1.860058
      dz2     :     0.015798  d :     0.051275
      dxz     :     0.007992
      dyz     :     0.008077
      dx2y2   :     0.008601
      dxy     :     0.010807
      f0      :     0.000564  f :     0.004028
      f+1     :     0.000799
      f-1     :     0.000497
      f+2     :     0.000440
      f-2     :     0.000402
      f+3     :     0.000489
      f-3     :     0.000837
 13 H s       :     0.558479  s :     0.558479
      pz      :     0.024998  p :     0.050755
      px      :     0.011749
      py      :     0.014008
 14 H s       :     0.618905  s :     0.618905
      pz      :     0.010765  p :     0.044986
      px      :     0.018112
      py      :     0.016109
 15 O s       :     3.792571  s :     3.792571
      pz      :     1.559310  p :     4.877836
      px      :     1.542892
      py      :     1.775633
      dz2     :     0.017170  d :     0.052408
      dxz     :     0.006656
      dyz     :     0.008012
      dx2y2   :     0.008057
      dxy     :     0.012512
      f0      :     0.000614  f :     0.003999
      f+1     :     0.000752
      f-1     :     0.000535
      f+2     :     0.000414
      f-2     :     0.000423
      f+3     :     0.000426
      f-3     :     0.000836
 16 H s       :     0.554283  s :     0.554283
      pz      :     0.024677  p :     0.049160
      px      :     0.011775
      py      :     0.012708
 17 H s       :     0.591506  s :     0.591506
      pz      :     0.011241  p :     0.045177
      px      :     0.018637
      py      :     0.015299
 18 O s       :     3.795340  s :     3.795340
      pz      :     1.522116  p :     4.851355
      px      :     1.775492
      py      :     1.553747
      dz2     :     0.017728  d :     0.052989
      dxz     :     0.008000
      dyz     :     0.006642
      dx2y2   :     0.008126
      dxy     :     0.012494
      f0      :     0.000627  f :     0.004023
      f+1     :     0.000537
      f-1     :     0.000758
      f+2     :     0.000412
      f-2     :     0.000422
      f+3     :     0.000839
      f-3     :     0.000427
 19 H s       :     0.584422  s :     0.584422
      pz      :     0.019600  p :     0.045278
      px      :     0.013363
      py      :     0.012315
 20 H s       :     0.582377  s :     0.582377
      pz      :     0.010875  p :     0.044757
      px      :     0.015117
      py      :     0.018764
 21 O s       :     3.805929  s :     3.805929
      pz      :     1.483940  p :     4.867259
      px      :     1.810294
      py      :     1.573025
      dz2     :     0.017071  d :     0.051996
      dxz     :     0.008324
      dyz     :     0.006678
      dx2y2   :     0.007595
      dxy     :     0.012327
      f0      :     0.000646  f :     0.004037
      f+1     :     0.000537
      f-1     :     0.000745
      f+2     :     0.000414
      f-2     :     0.000421
      f+3     :     0.000841
      f-3     :     0.000433
 22 H s       :     0.620164  s :     0.620164
      pz      :     0.018767  p :     0.046654
      px      :     0.014792
      py      :     0.013096
 23 H s       :     0.564220  s :     0.564220
      pz      :     0.010488  p :     0.051619
      px      :     0.016825
      py      :     0.024306


                     *******************************
                     * LOEWDIN POPULATION ANALYSIS *
                     *******************************

----------------------
LOEWDIN ATOMIC CHARGES
----------------------
   0 O :   -0.319409
   1 H :    0.160565
   2 H :    0.152953
   3 O :   -0.346663
   4 H :    0.151366
   5 H :    0.153108
   6 O :   -0.362049
   7 H :    0.150751
   8 H :    0.145056
   9 O :   -0.317090
  10 H :    0.168895
  11 H :    0.175918
  12 O :   -0.326839
  13 H :    0.155366
  14 H :    0.161722
  15 O :   -0.281804
  16 H :    0.161497
  17 H :    0.172170
  18 O :   -0.269198
  19 H :    0.173941
  20 H :    0.176549
  21 O :   -0.345326
  22 H :    0.155258
  23 H :    0.153262

-------------------------------
LOEWDIN REDUCED ORBITAL CHARGES
-------------------------------
  0 O s       :     3.451661  s :     3.451661
      pz      :     1.672860  p :     4.805224
      px      :     1.393524
      py      :     1.738840
      dz2     :     0.010601  d :     0.057771
      dxz     :     0.012262
      dyz     :     0.011027
      dx2y2   :     0.009445
      dxy     :     0.014436
      f0      :     0.000471  f :     0.004752
      f+1     :     0.000846
      f-1     :     0.000647
      f+2     :     0.000411
      f-2     :     0.001014
      f+3     :     0.000475
      f-3     :     0.000888
  1 H s       :     0.670880  s :     0.670880
      pz      :     0.067449  p :     0.168555
      px      :     0.047083
      py      :     0.054023
  2 H s       :     0.648403  s :     0.648403
      pz      :     0.034378  p :     0.198644
      px      :     0.115801
      py      :     0.048465
  3 O s       :     3.457584  s :     3.457584
      pz      :     1.698556  p :     4.826698
      px      :     1.735832
      py      :     1.392310
      dz2     :     0.009949  d :     0.057625
      dxz     :     0.011182
      dyz     :     0.012672
      dx2y2   :     0.009374
      dxy     :     0.014448
      f0      :     0.000454  f :     0.004757
      f+1     :     0.000650
      f-1     :     0.000852
      f+2     :     0.000410
      f-2     :     0.001033
      f+3     :     0.000884
      f-3     :     0.000473
  4 H s       :     0.680475  s :     0.680475
      pz      :     0.067028  p :     0.168159
      px      :     0.054273
      py      :     0.046859
  5 H s       :     0.648620  s :     0.648620
      pz      :     0.034145  p :     0.198272
      px      :     0.048340
      py      :     0.115788
  6 O s       :     3.456619  s :     3.456619
      pz      :     1.523647  p :     4.842805
      px      :     1.537050
      py      :     1.782109
      dz2     :     0.020601  d :     0.057840
      dxz     :     0.007363
      dyz     :     0.007650
      dx2y2   :     0.007611
      dxy     :     0.014615
      f0      :     0.000868  f :     0.004786
      f+1     :     0.000967
      f-1     :     0.000701
      f+2     :     0.000388
      f-2     :     0.000421
      f+3     :     0.000377
      f-3     :     0.001064
  7 H s       :     0.675452  s :     0.675452
      pz      :     0.093123  p :     0.173797
      px      :     0.037662
      py      :     0.043012
  8 H s       :     0.677179  s :     0.677179
      pz      :     0.031871  p :     0.177765
      px      :     0.086863
      py      :     0.059031
  9 O s       :     3.464521  s :     3.464521
      pz      :     1.520384  p :     4.787559
      px      :     1.444171
      py      :     1.823004
      dz2     :     0.021116  d :     0.060137
      dxz     :     0.009467
      dyz     :     0.007172
      dx2y2   :     0.009860
      dxy     :     0.012522
      f0      :     0.000807  f :     0.004874
      f+1     :     0.001174
      f-1     :     0.000584
      f+2     :     0.000416
      f-2     :     0.000412
      f+3     :     0.000445
      f-3     :     0.001035
 10 H s       :     0.670079  s :     0.670079
      pz      :     0.081535  p :     0.161026
      px      :     0.035866
      py      :     0.043625
 11 H s       :     0.667474  s :     0.667474
      pz      :     0.029867  p :     0.156607
      px      :     0.076692
      py      :     0.050048
 12 O s       :     3.460950  s :     3.460950
      pz      :     1.546843  p :     4.801138
      px      :     1.433140
      py      :     1.821155
      dz2     :     0.020535  d :     0.059924
      dxz     :     0.009221
      dyz     :     0.007150
      dx2y2   :     0.010197
      dxy     :     0.012821
      f0      :     0.000768  f :     0.004827
      f+1     :     0.001144
      f-1     :     0.000584
      f+2     :     0.000413
      f-2     :     0.000413
      f+3     :     0.000449
      f-3     :     0.001055
 13 H s       :     0.669451  s :     0.669451
      pz      :     0.095600  p :     0.175183
      px      :     0.036257
      py      :     0.043326
 14 H s       :     0.681031  s :     0.681031
      pz      :     0.031714  p :     0.157247
      px      :     0.075164
      py      :     0.050369
 15 O s       :     3.449032  s :     3.449032
      pz      :     1.531725  p :     4.767677
      px      :     1.522304
      py      :     1.713647
      dz2     :     0.021319  d :     0.060194
      dxz     :     0.007192
      dyz     :     0.007383
      dx2y2   :     0.009244
      dxy     :     0.015056
      f0      :     0.000836  f :     0.004902
      f+1     :     0.000983
      f-1     :     0.000737
      f+2     :     0.000389
      f-2     :     0.000421
      f+3     :     0.000406
      f-3     :     0.001131
 16 H s       :     0.664901  s :     0.664901
      pz      :     0.094651  p :     0.173602
      px      :     0.036731
      py      :     0.042220
 17 H s       :     0.666231  s :     0.666231
      pz      :     0.031762  p :     0.161599
      px      :     0.074004
      py      :     0.055833
 18 O s       :     3.453153  s :     3.453153
      pz      :     1.510006  p :     4.749681
      px      :     1.714372
      py      :     1.525302
      dz2     :     0.022544  d :     0.061409
      dxz     :     0.007416
      dyz     :     0.007275
      dx2y2   :     0.009279
      dxy     :     0.014896
      f0      :     0.000875  f :     0.004955
      f+1     :     0.000741
      f-1     :     0.001003
      f+2     :     0.000389
      f-2     :     0.000421
      f+3     :     0.001120
      f-3     :     0.000407
 19 H s       :     0.664100  s :     0.664100
      pz      :     0.083172  p :     0.161960
      px      :     0.042337
      py      :     0.036450
 20 H s       :     0.662628  s :     0.662628
      pz      :     0.030463  p :     0.160823
      px      :     0.055846
      py      :     0.074514
 21 O s       :     3.462764  s :     3.462764
      pz      :     1.494078  p :     4.818357
      px      :     1.782384
      py      :     1.541895
      dz2     :     0.022162  d :     0.059338
      dxz     :     0.007745
      dyz     :     0.007547
      dx2y2   :     0.007575
      dxy     :     0.014308
      f0      :     0.000924  f :     0.004867
      f+1     :     0.000706
      f-1     :     0.000999
      f+2     :     0.000388
      f-2     :     0.000422
      f+3     :     0.001051
      f-3     :     0.000377
 22 H s       :     0.682994  s :     0.682994
      pz      :     0.080981  p :     0.161748
      px      :     0.043433
      py      :     0.037335
 23 H s       :     0.669965  s :     0.669965
      pz      :     0.030195  p :     0.176773
      px      :     0.058877
      py      :     0.087701


                      *****************************
                      * MAYER POPULATION ANALYSIS *
                      *****************************

  NA   - Mulliken gross atomic population
  ZA   - Total nuclear charge
  QA   - Mulliken gross atomic charge
[...]
      f+1     :     0.000528
      f-1     :     0.000736
      f+2     :     0.000413
      f-2     :     0.000421
      f+3     :     0.000814
      f-3     :     0.000426
 19 H s       :     0.590010  s :     0.590010
      pz      :     0.018844  p :     0.045852
      px      :     0.014179
      py      :     0.012829
 20 H s       :     0.589603  s :     0.589603
      pz      :     0.011516  p :     0.045304
      px      :     0.015556
      py      :     0.018232
 21 O s       :     3.807025  s :     3.807025
      pz      :     1.477208  p :     4.849532
      px      :     1.802049
      py      :     1.570275
      dz2     :     0.015695  d :     0.049871
      dxz     :     0.008292
      dyz     :     0.006623
      dx2y2   :     0.007541
      dxy     :     0.011719
      f0      :     0.000628  f :     0.003963
      f+1     :     0.000527
      f-1     :     0.000723
      f+2     :     0.000415
      f-2     :     0.000419
      f+3     :     0.000818
      f-3     :     0.000433
 22 H s       :     0.625331  s :     0.625331
      pz      :     0.018002  p :     0.047470
      px      :     0.015756
      py      :     0.013712
 23 H s       :     0.581385  s :     0.581385
      pz      :     0.011116  p :     0.052115
      px      :     0.017232
      py      :     0.023767


                     *******************************
                     * LOEWDIN POPULATION ANALYSIS *
                     *******************************

----------------------
LOEWDIN ATOMIC CHARGES
----------------------
   0 O :   -0.312335
   1 H :    0.162265
   2 H :    0.145600
   3 O :   -0.343725
   4 H :    0.153274
   5 H :    0.145572
   6 O :   -0.361728
   7 H :    0.147777
   8 H :    0.140322
   9 O :   -0.316075
  10 H :    0.169871
  11 H :    0.175825
  12 O :   -0.324737
  13 H :    0.150884
  14 H :    0.162141
  15 O :   -0.275028
  16 H :    0.158626
  17 H :    0.173306
  18 O :   -0.263344
  19 H :    0.175249
  20 H :    0.177291
  21 O :   -0.346077
  22 H :    0.156795
  23 H :    0.148252

-------------------------------
LOEWDIN REDUCED ORBITAL CHARGES
-------------------------------
  0 O s       :     3.453227  s :     3.453227
      pz      :     1.667766  p :     4.796956
      px      :     1.397338
      py      :     1.731851
      dz2     :     0.010692  d :     0.057361
      dxz     :     0.011948
      dyz     :     0.011002
      dx2y2   :     0.009478
      dxy     :     0.014241
      f0      :     0.000475  f :     0.004791
      f+1     :     0.000857
      f-1     :     0.000648
      f+2     :     0.000412
      f-2     :     0.001016
      f+3     :     0.000480
      f-3     :     0.000903
  1 H s       :     0.669314  s :     0.669314
      pz      :     0.067369  p :     0.168421
      px      :     0.046632
      py      :     0.054420
  2 H s       :     0.655502  s :     0.655502
      pz      :     0.034957  p :     0.198898
      px      :     0.115041
      py      :     0.048900
  3 O s       :     3.459090  s :     3.459090
      pz      :     1.698217  p :     4.822817
      px      :     1.728524
      py      :     1.396075
      dz2     :     0.009930  d :     0.057023
      dxz     :     0.011115
      dyz     :     0.012314
      dx2y2   :     0.009414
      dxy     :     0.014251
      f0      :     0.000456  f :     0.004795
      f+1     :     0.000652
      f-1     :     0.000863
      f+2     :     0.000410
      f-2     :     0.001035
      f+3     :     0.000900
      f-3     :     0.000478
  4 H s       :     0.678452  s :     0.678452
      pz      :     0.067034  p :     0.168275
      px      :     0.054742
      py      :     0.046499
  5 H s       :     0.656049  s :     0.656049
      pz      :     0.034791  p :     0.198379
      px      :     0.048789
      py      :     0.114799
  6 O s       :     3.457273  s :     3.457273
      pz      :     1.524751  p :     4.842729
      px      :     1.538394
      py      :     1.779584
      dz2     :     0.020067  d :     0.056916
      dxz     :     0.007245
      dyz     :     0.007668
      dx2y2   :     0.007580
      dxy     :     0.014357
      f0      :     0.000872  f :     0.004810
      f+1     :     0.000975
      f-1     :     0.000700
      f+2     :     0.000390
      f-2     :     0.000421
      f+3     :     0.000376
      f-3     :     0.001075
  7 H s       :     0.678088  s :     0.678088
      pz      :     0.092275  p :     0.174135
      px      :     0.038080
      py      :     0.043779
  8 H s       :     0.681153  s :     0.681153
      pz      :     0.032354  p :     0.178525
      px      :     0.086541
      py      :     0.059630
  9 O s       :     3.466187  s :     3.466187
      pz      :     1.518934  p :     4.786102
      px      :     1.447085
      py      :     1.820083
      dz2     :     0.020524  d :     0.058894
      dxz     :     0.009229
      dyz     :     0.007248
      dx2y2   :     0.009645
      dxy     :     0.012247
      f0      :     0.000807  f :     0.004892
      f+1     :     0.001183
      f-1     :     0.000584
      f+2     :     0.000418
      f-2     :     0.000411
      f+3     :     0.000447
      f-3     :     0.001042
 10 H s       :     0.669150  s :     0.669150
      pz      :     0.080752  p :     0.160980
      px      :     0.035682
      py      :     0.044546
 11 H s       :     0.667590  s :     0.667590
      pz      :     0.030231  p :     0.156585
      px      :     0.075585
      py      :     0.050769
 12 O s       :     3.462379  s :     3.462379
      pz      :     1.544763  p :     4.798618
      px      :     1.435732
      py      :     1.818123
      dz2     :     0.020151  d :     0.058891
      dxz     :     0.009032
      dyz     :     0.007232
      dx2y2   :     0.009958
      dxy     :     0.012518
      f0      :     0.000772  f :     0.004849
      f+1     :     0.001154
      f-1     :     0.000584
      f+2     :     0.000416
      f-2     :     0.000411
      f+3     :     0.000451
      f-3     :     0.001061
 13 H s       :     0.673675  s :     0.673675
      pz      :     0.095036  p :     0.175441
      px      :     0.036192
      py      :     0.044212
 14 H s       :     0.680121  s :     0.680121
      pz      :     0.032310  p :     0.157737
      px      :     0.074291
      py      :     0.051137
 15 O s       :     3.449795  s :     3.449795
      pz      :     1.533205  p :     4.760966
      px      :     1.523863
      py      :     1.703897
      dz2     :     0.020794  d :     0.059346
      dxz     :     0.007082
      dyz     :     0.007429
      dx2y2   :     0.009295
      dxy     :     0.014746
      f0      :     0.000839  f :     0.004921
      f+1     :     0.000988
      f-1     :     0.000738
      f+2     :     0.000390
      f-2     :     0.000421
      f+3     :     0.000408
      f-3     :     0.001137
 16 H s       :     0.667716  s :     0.667716
      pz      :     0.093745  p :     0.173658
      px      :     0.037055
      py      :     0.042859
 17 H s       :     0.665107  s :     0.665107
      pz      :     0.032181  p :     0.161586
      px      :     0.073217
      py      :     0.056189
 18 O s       :     3.454388  s :     3.454388
      pz      :     1.512136  p :     4.743638
      px      :     1.704270
      py      :     1.527232
      dz2     :     0.021814  d :     0.060349
      dxz     :     0.007455
      dyz     :     0.007145
      dx2y2   :     0.009324
      dxy     :     0.014610
      f0      :     0.000873  f :     0.004969
      f+1     :     0.000741
      f-1     :     0.001009
      f+2     :     0.000390
      f-2     :     0.000421
      f+3     :     0.001127
      f-3     :     0.000408
 19 H s       :     0.662869  s :     0.662869
      pz      :     0.082283  p :     0.161882
      px      :     0.042986
      py      :     0.036614
 20 H s       :     0.662075  s :     0.662075
      pz      :     0.030766  p :     0.160634
      px      :     0.056159
      py      :     0.073710
 21 O s       :     3.464255  s :     3.464255
      pz      :     1.495906  p :     4.818748
      px      :     1.779281
      py      :     1.543560
      dz2     :     0.021392  d :     0.058188
      dxz     :     0.007766
      dyz     :     0.007404
      dx2y2   :     0.007538
      dxy     :     0.014088
      f0      :     0.000923  f :     0.004887
      f+1     :     0.000704
      f-1     :     0.001008
      f+2     :     0.000390
      f-2     :     0.000422
      f+3     :     0.001063
      f-3     :     0.000377
 22 H s       :     0.681040  s :     0.681040
      pz      :     0.080302  p :     0.162165
      px      :     0.044273
      py      :     0.037591
 23 H s       :     0.674570  s :     0.674570
      pz      :     0.030541  p :     0.177178
      px      :     0.059362
      py      :     0.087274


                      *****************************
                      * MAYER POPULATION ANALYSIS *
                      *****************************

  NA   - Mulliken gross atomic population
  ZA   - Total nuclear charge
  QA   - Mulliken gross atomic charge
  VA   - Mayer's total valence
  BVA  - Mayer's bonded valence
  FA   - Mayer's free valence

  ATOM       NA         ZA         QA         VA         BVA        FA
  0 O      8.7522     8.0000    -0.7522     2.0473     1.6576     0.3897
  1 H      0.6437     1.0000     0.3563     0.8946     0.8490     0.0456
  2 H      0.6180     1.0000     0.3820     0.8993     0.8544     0.0449
  3 O      8.7433     8.0000    -0.7433     2.0331     1.6445     0.3886
  4 H      0.6637     1.0000     0.3363     0.9079     0.8606     0.0473
  5 H      0.6177     1.0000     0.3823     0.8997     0.8554     0.0444
  6 O      8.7387     8.0000    -0.7387     2.0466     1.6605     0.3861
  7 H      0.6351     1.0000     0.3649     0.9010     0.8563     0.0447
  8 H      0.6537     1.0000     0.3463     0.9328     0.8868     0.0460
  9 O      8.7019     8.0000    -0.7019     2.0971     1.7121     0.3850
 10 H      0.6477     1.0000     0.3523     0.8993     0.8531     0.0462
 11 H      0.6469     1.0000     0.3531     0.9069     0.8596     0.0473
 12 O      8.7119     8.0000    -0.7119     2.0838     1.6965     0.3873
 13 H      0.6261     1.0000     0.3739     0.9034     0.8599     0.0435
 14 H      0.6729     1.0000     0.3271     0.9227     0.8727     0.0500
 15 O      8.6995     8.0000    -0.6995     2.1007     1.7186     0.3822
 16 H      0.6159     1.0000     0.3841     0.8857     0.8426     0.0431
 17 H      0.6441     1.0000     0.3559     0.8989     0.8527     0.0463
 18 O      8.6796     8.0000    -0.6796     2.1146     1.7339     0.3806
 19 H      0.6359     1.0000     0.3641     0.8881     0.8426     0.0455
 20 H      0.6349     1.0000     0.3651     0.8917     0.8464     0.0453
 21 O      8.7104     8.0000    -0.7104     2.0672     1.6831     0.3841
 22 H      0.6728     1.0000     0.3272     0.9139     0.8651     0.0488
 23 H      0.6335     1.0000     0.3665     0.9146     0.8704     0.0442

  Mayer bond orders larger than 0.100000
B(  0-O ,  1-H ) :   0.8370 B(  0-O ,  2-H ) :   0.7508 B(  3-O ,  4-H ) :   0.8511 
B(  3-O ,  5-H ) :   0.7579 B(  6-O ,  7-H ) :   0.8265 B(  6-O ,  8-H ) :   0.8194 
B(  9-O , 10-H ) :   0.8396 B(  9-O , 11-H ) :   0.8301 B( 12-O , 13-H ) :   0.8050 
B( 12-O , 14-H ) :   0.8464 B( 15-O , 16-H ) :   0.8062 B( 15-O , 17-H ) :   0.8344 
B( 18-O , 19-H ) :   0.8322 B( 18-O , 20-H ) :   0.8284 B( 21-O , 22-H ) :   0.8570 
B( 21-O , 23-H ) :   0.8079 


----------------------------------
MP2 DERIVATIVE INTEGRAL GENERATION
----------------------------------


Input Wavefunction Amplitudes       ... 12h2o.su.etal.mol1,2,3,6,7,8,9,11-orca.engrad-mp2.def2tzvp.frozencore.mp2tsaa.tmp
Input Correlated Electron Density   ... 12h2o.su.etal.mol1,2,3,6,7,8,9,11-orca.engrad-mp2.def2tzvp.frozencore.pmp2re
Input Energy Weighted Density       ... 12h2o.su.etal.mol1,2,3,6,7,8,9,11-orca.engrad-mp2.def2tzvp.frozencore.wmp2.tmp
Input SCF Electron Density          ... 12h2o.su.etal.mol1,2,3,6,7,8,9,11-orca.engrad-mp2.def2tzvp.frozencore.scfp

One-Electron Terms    ...
                        ... One-Electron Terms done
Prescreening matrices              ... done

Batch handling in the gradient evaluation:
Memory available                      ... 8000.0 MB
Memory per occupied orbital in Q2     ...   28.9 MB
Memory per occupied orbital in Q3     ...    0.1 MB
Total memory requirement per |i>      ...   29.0 MB
Max. Number of orbitals possible      ...    275
Number of orbitals treated per batch  ...     32
Number of batches to be done          ...      1
Batch   0: i=    8 ...    39

---------------------------------------
MP2 TOTAL ENERGY:     -610.569819756 Eh
---------------------------------------

The final MP2 gradient
  0:  -0.00680762   0.00229251  -0.00024327
  1:   0.00065898   0.00088030  -0.00139288
  2:   0.01175013  -0.00278456  -0.00267831
  3:  -0.00213160  -0.00634502  -0.00101267
  4:  -0.00026484  -0.00081575   0.00018395
  5:   0.00321848   0.01236083   0.00054719
  6:  -0.00196209   0.00173747  -0.00182194
  7:  -0.00184295  -0.00276767   0.00521101
  8:   0.00347353  -0.00102402  -0.00125943
  9:   0.01520156  -0.00769819  -0.01057873
 10:   0.00126616  -0.00136185   0.00881639
 11:  -0.01427185   0.00862622  -0.00029764
 12:  -0.01795273   0.00760146  -0.00401419
 13:  -0.00170235  -0.00200682   0.00047247
 14:   0.01736869  -0.00720547   0.00376087
 15:   0.00656603  -0.00976998  -0.00220197
 16:  -0.00086004   0.00120655   0.00077487
 17:  -0.00648222   0.00527500   0.00194228
 18:  -0.00686956  -0.00676792   0.00965527
 19:  -0.00207874   0.00078142  -0.00623864
 20:   0.00378351   0.00668526  -0.00157337
 21:  -0.00249402   0.00094952   0.01032875
 22:   0.00179843   0.00217056  -0.01009122
 23:   0.00063510  -0.00201983   0.00171120

-----------------------------------
NORM OF THE MP2 GRADIENT:  0.052498
-----------------------------------

-------------------------   --------------------
FINAL SINGLE POINT ENERGY      -610.569819756222
-------------------------   --------------------


                            ***************************************
                            *     ORCA property calculations      *
                            ***************************************

                                    ---------------------
                                    Active property flags
                                    ---------------------
   (+) Dipole Moment


------------------------------------------------------------------------------
                       ORCA ELECTRIC PROPERTIES CALCULATION
------------------------------------------------------------------------------

Dipole Moment Calculation                       ... on
Quadrupole Moment Calculation                   ... off
Polarizability Calculation                      ... off
GBWName                                         ... 12h2o.su.etal.mol1,2,3,6,7,8,9,11-orca.engrad-mp2.def2tzvp.frozencore.gbw
Electron density file                           ... 12h2o.su.etal.mol1,2,3,6,7,8,9,11-orca.engrad-mp2.def2tzvp.frozencore.scfp
The origin for moment calculation is the CENTER OF MASS  = (-0.190068, -0.647884 -0.000322)

-------------
DIPOLE MOMENT
-------------
                                X             Y             Z
Electronic contribution:      0.28326       0.04475       0.31491
Nuclear contribution   :      0.98813      -0.37017       1.54856
                        -----------------------------------------
Total Dipole Moment    :      1.27139      -0.32542       1.86347
                        -----------------------------------------
Magnitude (a.u.)       :      2.27922
Magnitude (Debye)      :      5.79332



--------------------
Rotational spectrum 
--------------------
 
Rotational constants in cm-1:     0.033934     0.015440     0.013775 
Rotational constants in MHz :  1017.301740   462.894022   412.977678 

 Dipole components along the rotational axes: 
x,y,z [a.u.] :     1.517108    -1.211711     1.193728 
x,y,z [Debye]:     3.856183    -3.079924     3.034215 

 

                         *** MP2 UNRELAXED DENSITY ***

------------------------------------------------------------------------------
                       ORCA ELECTRIC PROPERTIES CALCULATION
------------------------------------------------------------------------------

Dipole Moment Calculation                       ... on
Quadrupole Moment Calculation                   ... off
Polarizability Calculation                      ... off
GBWName                                         ... 12h2o.su.etal.mol1,2,3,6,7,8,9,11-orca.engrad-mp2.def2tzvp.frozencore.gbw
Electron density file                           ... 12h2o.su.etal.mol1,2,3,6,7,8,9,11-orca.engrad-mp2.def2tzvp.frozencore.pmp2ur
The origin for moment calculation is the CENTER OF MASS  = (-0.190068, -0.647884 -0.000322)

-------------
DIPOLE MOMENT
-------------
                                X             Y             Z
Electronic contribution:      0.27751       0.04822       0.30436
Nuclear contribution   :      0.98813      -0.37017       1.54856
                        -----------------------------------------
Total Dipole Moment    :      1.26564      -0.32194       1.85292
                        -----------------------------------------
Magnitude (a.u.)       :      2.26689
Magnitude (Debye)      :      5.76198



--------------------
Rotational spectrum 
--------------------
 
Rotational constants in cm-1:     0.033934     0.015440     0.013775 
Rotational constants in MHz :  1017.301740   462.894022   412.977678 

 Dipole components along the rotational axes: 
x,y,z [a.u.] :     1.508266    -1.206907     1.186297 
x,y,z [Debye]:     3.833707    -3.067713     3.015328 

 

                           *** MP2 RELAXED DENSITY ***

------------------------------------------------------------------------------
                       ORCA ELECTRIC PROPERTIES CALCULATION
------------------------------------------------------------------------------

Dipole Moment Calculation                       ... on
Quadrupole Moment Calculation                   ... off
Polarizability Calculation                      ... off
GBWName                                         ... 12h2o.su.etal.mol1,2,3,6,7,8,9,11-orca.engrad-mp2.def2tzvp.frozencore.gbw
Electron density file                           ... 12h2o.su.etal.mol1,2,3,6,7,8,9,11-orca.engrad-mp2.def2tzvp.frozencore.pmp2re
The origin for moment calculation is the CENTER OF MASS  = (-0.190068, -0.647884 -0.000322)

-------------
DIPOLE MOMENT
-------------
                                X             Y             Z
Electronic contribution:      0.28956       0.05095       0.30018
Nuclear contribution   :      0.98813      -0.37017       1.54856
                        -----------------------------------------
Total Dipole Moment    :      1.27769      -0.31922       1.84874
                        -----------------------------------------
Magnitude (a.u.)       :      2.26985
Magnitude (Debye)      :      5.76950



--------------------
Rotational spectrum 
--------------------
 
Rotational constants in cm-1:     0.033934     0.015440     0.013775 
Rotational constants in MHz :  1017.301740   462.894022   412.977678 

 Dipole components along the rotational axes: 
x,y,z [a.u.] :     1.501610    -1.217698     1.189368 
x,y,z [Debye]:     3.816790    -3.095143     3.023132 

 

Timings for individual modules:

Sum of individual times         ...      164.619 sec (=   2.744 min)
GTO integral calculation        ...        1.016 sec (=   0.017 min)   0.6 %
SCF iterations                  ...       23.223 sec (=   0.387 min)  14.1 %
MP2 module                      ...      140.380 sec (=   2.340 min)  85.3 %
                             ****ORCA TERMINATED NORMALLY****
TOTAL RUN TIME: 0 days 0 hours 2 minutes 45 seconds 601 msec
