64
Energy:  -1795.88130829
O   -0.79886105  -3.51169309  -0.83647143
H   -0.54420297  -2.65235667  -0.50043270
H   -1.62901617  -3.35678007  -1.28711129
O    2.05934214   1.06127407   2.00199522
H    1.38251147   0.87467808   1.35136934
H    2.86058741   1.17127214   1.49000080
O    1.81124405  -3.28541264  -1.77632737
H    2.08179700  -2.59875524  -1.16679103
H    0.91231929  -3.49254091  -1.52085918
O   -1.82725867   2.36030887   1.95949745
H   -0.98031413   2.66222214   2.28777351
H   -1.60821762   1.70182811   1.30021303
O    1.09139617  -1.48038858  -3.70134654
H    1.45698548  -2.13518476  -3.10652029
H    0.22987935  -1.27880510  -3.33612783
O   -2.62189634  -0.05535820   3.14969875
H   -2.92476729  -0.49814740   2.35695746
H   -2.35905933   0.81574413   2.85249631
O    0.67254026   3.46228231  -0.07779039
H   -0.21625670   3.76459322  -0.26455208
H    0.61025810   2.50730818  -0.09721168
O   -1.98689772   3.90777975  -0.40574989
H   -1.88056138   3.25505076  -1.09775371
H   -2.08481799   3.39391236   0.39586334
O   -1.20462649  -0.78369814  -2.45771437
H   -0.88625849  -0.78041906  -1.55501680
H   -1.39813453   0.13437146  -2.64727887
O    1.36302457   1.05665518  -2.66821299
H    1.40184722   0.18895265  -3.07047778
H    1.07974227   0.89179142  -1.76887828
O   -1.26884603   1.94522934  -2.24880451
H   -1.28295766   1.45770613  -1.42518212
H   -0.36158166   1.88486248  -2.54790156
O    4.04086191   0.98839888   0.13496164
H    3.71216411   1.67289510  -0.44783723
H    3.49959632   0.22419352  -0.06316349
O    2.39514858  -1.24388381  -0.06201456
H    2.45729318  -1.52363030   0.85128266
H    1.52807136  -0.84453347  -0.13221594
O    2.97757139   2.92530916  -1.51263491
H    2.55114346   2.26765051  -2.06206750
H    2.27203143   3.28030351  -0.97187229
O   -1.91262901  -3.77418655   1.62381138
H   -1.50385618  -3.84825396   0.76145958
H   -1.35441208  -3.16114398   2.10214655
O   -3.19231453  -2.47820115  -1.74623253
H   -2.57877742  -1.85397188  -2.13371399
H   -3.35599261  -2.13906765  -0.86621560
O    2.28369225  -1.54669626   2.69566437
H    2.30057712  -0.59945249   2.55900426
H    1.35354824  -1.76336894   2.75982757
O    0.66022997   3.31808848   2.62800414
H    1.17173200   2.50947306   2.65518182
H    0.67200037   3.57866526   1.70703017
O   -0.45706668  -1.73734336   2.61203490
H   -1.09499661  -1.14405866   3.00863359
H   -0.34681024  -1.40938035   1.71955766
O   -3.12404696  -1.44603566   0.80196982
H   -2.40079488  -0.89942916   0.49478973
H   -2.70435656  -2.25091130   1.10572471
C   -0.39885076   0.16385316   0.37765230
O   -1.61496518   0.65915664  -0.01311433
O    0.60098627   0.87698210  -0.22969588
O   -0.30524695  -1.15437022   0.01529106
