64
Energy:  -1798.28586271
O    0.37649921  -1.94038552  -1.73151476
H    0.21840985  -1.26535628  -1.07153360
H   -0.28453132  -2.60943209  -1.55361825
O    1.98735180  -0.32474547   1.97966609
H    1.51532952  -0.92318499   2.55871441
H    1.38716715  -0.17411297   1.24937842
O    2.47999552  -3.23584385  -0.57314278
H    3.06668745  -2.54017235  -0.27638431
H    1.80380933  -2.78143277  -1.07565114
O   -2.62215081   2.11690347   0.89319893
H   -1.99812094   1.57037194   0.41557789
H   -3.30833411   1.51039597   1.17164636
O    0.43039903  -0.32274378  -3.86660552
H    0.38530754  -0.91354153  -3.11483652
H    0.28358846   0.54784484  -3.49680292
O   -1.30619928   2.22707181   3.32150511
H   -0.36291337   2.25338132   3.16103286
H   -1.69961893   2.29493505   2.45153533
O    1.10025273   2.99251184   0.22881113
H    0.29083622   3.41347052  -0.06079300
H    0.94045712   2.05649905   0.10807477
O   -1.25793777   3.85967196  -0.89196718
H   -0.96540777   3.26128453  -1.57941938
H   -1.83903683   3.33110590  -0.34499949
O   -2.86735334  -1.60835779  -0.52585704
H   -2.06954349  -1.21646631  -0.17067771
H   -2.89461575  -1.31392869  -1.43624163
O    0.06696026   2.06784844  -2.60482749
H    0.95340513   2.39479144  -2.45134913
H   -0.11575753   1.50681586  -1.85111103
O   -2.31234062  -0.38872873  -2.97676252
H   -1.97699159   0.06166542  -2.20157352
H   -1.54346406  -0.51389006  -3.53299569
O    3.92306804  -1.05117264   0.14772112
H    3.62020086  -0.61632534  -0.64940569
H    3.30722042  -0.76882313   0.82391806
O    2.72752599   0.15025212  -2.08543123
H    2.26474250  -0.15327320  -2.86641501
H    2.04792561   0.21749091  -1.41471958
O    2.61219908   2.87865608  -2.03189723
H    2.81331006   1.94326020  -2.06054631
H    2.21805334   3.01309880  -1.17003522
O    0.38096707  -3.24915442   1.16067559
H    1.19572864  -3.32217650   0.66362105
H    0.04858921  -2.37663108   0.94982061
O   -1.38668089  -3.85872676  -0.83970176
H   -2.00841130  -3.14257542  -0.71004686
H   -0.80182141  -3.80862656  -0.08361895
O    0.54100967  -2.02827702   3.58815970
H   -0.23477622  -1.47502927   3.49702781
H    0.51544841  -2.60509087   2.82470423
O    1.38063894   2.21888635   2.81865486
H    1.31915013   2.62517104   1.95414128
H    1.62743254   1.31140177   2.64033911
O   -1.58971789  -0.43872922   2.92984204
H   -1.45853733   0.48098782   3.16037204
H   -1.21572464  -0.52197426   2.05266979
O   -3.98595212  -0.19634734   1.60597993
H   -3.75017858  -0.66454313   0.80508332
H   -3.23458051  -0.31960081   2.18604987
C   -0.34821053   0.33936534   0.16555646
O   -1.24678106   0.66289392  -0.81671572
O    0.92489549   0.43021748  -0.33248544
O   -0.58142197  -0.94135845   0.59350412
