10
Energy:   -324.07835640
O    1.50511796  -0.21254712  -0.29353299
H    2.20695165   0.42847413  -0.18060341
H    1.60951678  -0.52700266  -1.19155885
O   -1.22152460   0.40012681  -1.59735798
H   -0.99957438   1.13094030  -2.17431691
H   -1.37918998  -0.33450461  -2.19039267
O   -0.44124360  -0.24874414   2.07263047
H   -0.91507536   0.11733356   2.81942524
H   -0.00115583  -1.02287545   2.42373632
Li  -0.31328948   0.34088381   0.23996186
