10
Energy:   -323.62139792
O    1.54466043   0.27513006   1.28933517
H    1.70164623   0.20261539   2.23078561
H    2.24867924   0.84042436   0.97148032
O   -0.29160386  -1.85853959  -0.14626575
H   -0.18760600  -2.27077074  -1.00386809
H   -0.40150228  -2.59084428   0.46026870
O   -1.31424945   1.53710611  -1.08828110
H   -2.25952420   1.65921323  -1.17647042
H   -0.93401937   2.13359263  -1.73315377
Li  -0.08241895   0.10982027   0.18753374
