10
Energy:   -319.25166687
O    0.38157792   0.58350750  -1.94261685
H    0.05935043  -0.24345832  -2.30112603
H    0.49607643   1.14808040  -2.70706396
O    0.70829229   1.06553552   1.87934626
H    1.47332010   1.15189534   2.44812239
H   -0.02760177   0.95696687   2.48176192
O   -0.95956096  -1.39469949   0.01037235
H   -1.59255886  -1.75913604  -0.60828062
H   -0.99281060  -1.98478490   0.76331692
Li   0.43175582   0.38037238   0.00570019
