10
Energy:   -323.59100766
O   -1.76694282  -0.56557153   0.21328420
H   -1.79864212  -1.52224580   0.21212814
H   -2.67195360  -0.29527729   0.05795114
O    0.88193337   0.06026523   1.86004822
H    1.45393867   0.72256369   2.24786587
H    1.13052614  -0.75565452   2.29445408
O    0.80347556   0.67377203  -1.97400318
H    1.12112355   1.42487532  -2.47517725
H    0.87225505  -0.06481813  -2.57897078
Li   0.02121647   0.25955374   0.09946777
