
                                 *****************
                                 * O   R   C   A *
                                 *****************

           --- An Ab Initio, DFT and Semiempirical electronic structure package ---

                  #######################################################
                  #                        -***-                        #
                  #          Department of theory and spectroscopy      #
                  #               Directorship: Frank Neese             #
                  #        Max Planck Institute fuer Kohlenforschung    #
                  #                Kaiser Wilhelm Platz 1               #
                  #                 D-45470 Muelheim/Ruhr               #
                  #                      Germany                        #
                  #                                                     #
                  #                  All rights reserved                #
                  #                        -***-                        #
                  #######################################################


                         Program Version 4.2.0 -  RELEASE  -


 With contributions from (in alphabetic order):
   Daniel Aravena         : Magnetic Suceptibility
   Michael Atanasov       : Ab Initio Ligand Field Theory (pilot matlab implementation)
   Alexander A. Auer      : GIAO ZORA, VPT2
   Ute Becker             : Parallelization
   Giovanni Bistoni       : ED, misc. LED, open-shell LED, HFLED
   Martin Brehm           : Molecular dynamics
   Dmytro Bykov           : SCF Hessian
   Vijay G. Chilkuri      : MRCI spin determinant printing, contributions to CSF-ICE
   Dipayan Datta          : RHF DLPNO-CCSD density
   Achintya Kumar Dutta   : EOM-CC, STEOM-CC
   Dmitry Ganyushin       : Spin-Orbit,Spin-Spin,Magnetic field MRCI
   Miquel Garcia          : C-PCM Hessian, Gaussian charge scheme
   Yang Guo               : DLPNO-NEVPT2, CIM, IAO-localization
   Andreas Hansen         : Spin unrestricted coupled pair/coupled cluster methods
   Benjamin Helmich-Paris : CASSCF linear response (MC-RPA)
   Lee Huntington         : MR-EOM, pCC
   Robert Izsak           : Overlap fitted RIJCOSX, COSX-SCS-MP3, EOM
   Christian Kollmar      : KDIIS, OOCD, Brueckner-CCSD(T), CCSD density
   Simone Kossmann        : Meta GGA functionals, TD-DFT gradient, OOMP2, MP2 Hessian
   Martin Krupicka        : AUTO-CI
   Lucas Lang             : DCDCAS
   Dagmar Lenk            : GEPOL surface, SMD
   Dimitrios Liakos       : Extrapolation schemes; Compound Job, initial MDCI parallelization
   Dimitrios Manganas     : Further ROCIS development; embedding schemes
   Dimitrios Pantazis     : SARC Basis sets
   Taras Petrenko         : DFT Hessian,TD-DFT gradient, ASA, ECA, R-Raman, ABS, FL, XAS/XES, NRVS
   Peter Pinski           : DLPNO-MP2, DLPNO-MP2 Gradient
   Christoph Reimann      : Effective Core Potentials
   Marius Retegan         : Local ZFS, SOC
   Christoph Riplinger    : Optimizer, TS searches, QM/MM, DLPNO-CCSD(T), (RO)-DLPNO pert. Triples
   Tobias Risthaus        : Range-separated hybrids, TD-DFT gradient, RPA, STAB
   Michael Roemelt        : Original ROCIS implementation
   Masaaki Saitow         : Open-shell DLPNO-CCSD energy and density
   Barbara Sandhoefer     : DKH picture change effects
   Avijit Sen             : IP-ROCIS
   Kantharuban Sivalingam : CASSCF convergence, NEVPT2, FIC-MRCI
   Bernardo de Souza      : ESD, SOC TD-DFT
   Georgi Stoychev        : AutoAux, RI-MP2 NMR
   Willem Van den Heuvel  : Paramagnetic NMR
   Boris Wezisla          : Elementary symmetry handling
   Frank Wennmohs         : Technical directorship


 We gratefully acknowledge several colleagues who have allowed us to
 interface, adapt or use parts of their codes:
   Stefan Grimme, W. Hujo, H. Kruse,             : VdW corrections, initial TS optimization,
                  C. Bannwarth                     DFT functionals, gCP, sTDA/sTD-DF
   Ed Valeev, F. Pavosevic, A. Kumar             : LibInt (2-el integral package), F12 methods
   Garnet Chan, S. Sharma, J. Yang, R. Olivares  : DMRG
   Ulf Ekstrom                                   : XCFun DFT Library
   Mihaly Kallay                                 : mrcc  (arbitrary order and MRCC methods)
   Andreas Klamt, Michael Diedenhofen            : otool_cosmo (COSMO solvation model)
   Jiri Pittner, Ondrej Demel                    : Mk-CCSD
   Frank Weinhold                                : gennbo (NPA and NBO analysis)
   Christopher J. Cramer and Donald G. Truhlar   : smd solvation model
   Lars Goerigk                                  : TD-DFT with DH, B97 family of functionals
   V. Asgeirsson, H. Jonsson                     : NEB implementation
   FAccTs GmbH                                   : IRC, NEB, NEB-TS, Multilevel, MM, QM/MM, CI optimization
   S Lehtola, MJT Oliveira, MAL Marques          : LibXC Library


 Your calculation uses the libint2 library for the computation of 2-el integrals
 For citations please refer to: http://libint.valeyev.net

 Your ORCA version has been built with support for libXC version: 4.2.3
 For citations please refer to: https://tddft.org/programs/libxc/

 This ORCA versions uses:
   CBLAS   interface :  Fast vector & matrix operations
   LAPACKE interface :  Fast linear algebra routines
   SCALAPACK package :  Parallel linear algebra routines


----- Orbital basis set information -----
Your calculation utilizes the basis: def2-TZVP
   F. Weigend and R. Ahlrichs, Phys. Chem. Chem. Phys. 7, 3297 (2005).

================================================================================
                                        WARNINGS
                       Please study these warnings very carefully!
================================================================================


WARNING: The frozen-core approximation for MP2-gradient calculations is turned on by default.

INFO   : the flag for use of LIBINT has been found!

================================================================================
                                       INPUT FILE
================================================================================
NAME = 12h2o.su.etal.mol0,2,6,7,8,11-orca.engrad-mp2.def2tzvp.frozencore.inp
|  1> # 12h2o.su.etal.mol0,2,6,7,8,11
|  2> ! MP2 def2-TZVP EnGrad TightSCF
|  3> 
|  4> %pal
|  5>     nprocs 6
|  6> end
|  7> 
|  8> %maxcore 8000
|  9> 
| 10> %scf
| 11>     ConvForced true
| 12> end
| 13> 
| 14> *xyz 0 1
| 15> O   1.794470000   0.923410000   2.768350000
| 16> H   2.338250000   1.359750000   3.430940000
| 17> H   0.879480000   1.303000000   2.865760000
| 18> O   0.923410000  -1.794470000  -2.768350000
| 19> H   1.359750000  -2.338250000  -3.430940000
| 20> H   1.303000000  -0.879480000  -2.865760000
| 21> O   1.737840000   0.885520000  -0.052730000
| 22> H   2.090180000   1.032320000   0.841890000
| 23> H   0.839590000   1.284090000  -0.017130000
| 24> O  -1.737840000  -0.885520000  -0.052730000
| 25> H  -2.090180000  -1.032320000   0.841890000
| 26> H  -0.839590000  -1.284090000  -0.017130000
| 27> O   1.752130000   0.741530000  -2.896280000
| 28> H   2.036450000   0.920500000  -1.984040000
| 29> H   0.921210000   1.242140000  -2.984230000
| 30> O  -0.741530000   1.752130000   2.896280000
| 31> H  -0.920500000   2.036450000   1.984040000
| 32> H  -1.242140000   0.921210000   2.984230000
| 33> *
| 34> 
| 35>                          ****END OF INPUT****
================================================================================

                     *******************************
                     * Energy+Gradient Calculation *
                     *******************************

---------------------------------
CARTESIAN COORDINATES (ANGSTROEM)
---------------------------------
  O      1.794470    0.923410    2.768350
  H      2.338250    1.359750    3.430940
  H      0.879480    1.303000    2.865760
  O      0.923410   -1.794470   -2.768350
  H      1.359750   -2.338250   -3.430940
  H      1.303000   -0.879480   -2.865760
  O      1.737840    0.885520   -0.052730
  H      2.090180    1.032320    0.841890
  H      0.839590    1.284090   -0.017130
  O     -1.737840   -0.885520   -0.052730
  H     -2.090180   -1.032320    0.841890
  H     -0.839590   -1.284090   -0.017130
  O      1.752130    0.741530   -2.896280
  H      2.036450    0.920500   -1.984040
  H      0.921210    1.242140   -2.984230
  O     -0.741530    1.752130    2.896280
  H     -0.920500    2.036450    1.984040
  H     -1.242140    0.921210    2.984230

----------------------------
CARTESIAN COORDINATES (A.U.)
----------------------------
  NO LB      ZA    FRAG     MASS         X           Y           Z
   0 O     8.0000    0    15.999    3.391057    1.744992    5.231423
   1 H     1.0000    0     1.008    4.418652    2.569555    6.483537
   2 H     1.0000    0     1.008    1.661976    2.462313    5.415502
   3 O     8.0000    0    15.999    1.744992   -3.391057   -5.231423
   4 H     1.0000    0     1.008    2.569555   -4.418652   -6.483537
   5 H     1.0000    0     1.008    2.462313   -1.661976   -5.415502
   6 O     8.0000    0    15.999    3.284042    1.673390   -0.099645
   7 H     1.0000    0     1.008    3.949868    1.950802    1.590942
   8 H     1.0000    0     1.008    1.586595    2.426578   -0.032371
   9 O     8.0000    0    15.999   -3.284042   -1.673390   -0.099645
  10 H     1.0000    0     1.008   -3.949868   -1.950802    1.590942
  11 H     1.0000    0     1.008   -1.586595   -2.426578   -0.032371
  12 O     8.0000    0    15.999    3.311046    1.401289   -5.473176
  13 H     1.0000    0     1.008    3.848333    1.739493   -3.749292
  14 H     1.0000    0     1.008    1.740835    2.347304   -5.639377
  15 O     8.0000    0    15.999   -1.401289    3.311046    5.473176
  16 H     1.0000    0     1.008   -1.739493    3.848333    3.749292
  17 H     1.0000    0     1.008   -2.347304    1.740835    5.639377

--------------------------------
INTERNAL COORDINATES (ANGSTROEM)
--------------------------------
 O      0   0   0     0.000000000000     0.00000000     0.00000000
 H      1   0   0     0.961828878803     0.00000000     0.00000000
 H      1   2   0     0.995381322057   106.21731035     0.00000000
 O      1   2   3     6.229017908788   152.78811022   148.20682389
 H      4   1   2     0.961828878803   142.70840549    32.77530239
 H      4   1   2     0.995381322057    68.44287781   304.10042923
 O      1   2   3     2.821902722526   134.92023192   114.47749497
 H      7   1   2     0.972645187106    21.75017499    16.91177088
 H      7   1   2     0.983350632989    88.66470709   242.75499327
 O      9   7   1     3.369216573181   115.93827062   267.14657005
 H     10   9   7     0.972645187106   111.38238039    99.87107073
 H     10   9   7     0.983350632989    64.01297461     4.61512567
 O      6   4   1     1.682356278379   171.61043709   305.15113011
 H     13   6   4     0.972136791249   103.79460456    70.64587838
 H     13   6   4     0.974050112161   105.61118924   321.69395179
 O      3   1   2     1.682356278379   171.61043709   195.73896161
 H     16   3   1     0.972136791249   103.79460456   289.35412162
 H     16   3   1     0.974050112161   105.61118924    38.30604821

---------------------------
INTERNAL COORDINATES (A.U.)
---------------------------
 O      0   0   0     0.000000000000     0.00000000     0.00000000
 H      1   0   0     1.817593168635     0.00000000     0.00000000
 H      1   2   0     1.880998097508   106.21731035     0.00000000
 O      1   2   3    11.771137930900   152.78811022   148.20682389
 H      4   1   2     1.817593168635   142.70840549    32.77530239
 H      4   1   2     1.880998097508    68.44287781   304.10042923
 O      1   2   3     5.332623322141   134.92023192   114.47749497
 H      7   1   2     1.838033029106    21.75017499    16.91177088
 H      7   1   2     1.858263389967    88.66470709   242.75499327
 O      9   7   1     6.366896609181   115.93827062   267.14657005
 H     10   9   7     1.838033029106   111.38238039    99.87107073
 H     10   9   7     1.858263389967    64.01297461     4.61512567
 O      6   4   1     3.179192625819   171.61043709   305.15113011
 H     13   6   4     1.837072300170   103.79460456    70.64587838
 H     13   6   4     1.840687952699   105.61118924   321.69395179
 O      3   1   2     3.179192625819   171.61043709   195.73896161
 H     16   3   1     1.837072300170   103.79460456   289.35412162
 H     16   3   1     1.840687952699   105.61118924    38.30604821

---------------------
BASIS SET INFORMATION
---------------------
There are 2 groups of distinct atoms

 Group   1 Type O   : 11s6p2d1f contracted to 5s3p2d1f pattern {62111/411/11/1}
 Group   2 Type H   : 5s1p contracted to 3s1p pattern {311/1}

Atom   0O    basis set group =>   1
Atom   1H    basis set group =>   2
Atom   2H    basis set group =>   2
Atom   3O    basis set group =>   1
Atom   4H    basis set group =>   2
Atom   5H    basis set group =>   2
Atom   6O    basis set group =>   1
Atom   7H    basis set group =>   2
Atom   8H    basis set group =>   2
Atom   9O    basis set group =>   1
Atom  10H    basis set group =>   2
Atom  11H    basis set group =>   2
Atom  12O    basis set group =>   1
Atom  13H    basis set group =>   2
Atom  14H    basis set group =>   2
Atom  15O    basis set group =>   1
Atom  16H    basis set group =>   2
Atom  17H    basis set group =>   2


           ************************************************************
           *        Program running with 6 parallel MPI-processes     *
           *              working on a common directory               *
           ************************************************************
------------------------------------------------------------------------------
                           ORCA GTO INTEGRAL CALCULATION
------------------------------------------------------------------------------

                         BASIS SET STATISTICS AND STARTUP INFO

 # of primitive gaussian shells          ...  192
 # of primitive gaussian functions       ...  372
 # of contracted shells                  ...  114
 # of contracted basis functions         ...  258
 Highest angular momentum                ...    3
 Maximum contraction depth               ...    6
 Integral package used                   ... LIBINT
 Integral threshhold            Thresh   ...  2.500e-11
 Primitive cut-off              TCut     ...  2.500e-12


------------------------------ INTEGRAL EVALUATION ----------------------------


 * One electron integrals 
 Pre-screening matrix                    ... done
 Shell pair data                         ... done (   0.001 sec)



           ************************************************************
           *        Program running with 6 parallel MPI-processes     *
           *              working on a common directory               *
           ************************************************************
-------------------------------------------------------------------------------
                                 ORCA SCF
-------------------------------------------------------------------------------

------------
SCF SETTINGS
------------
Hamiltonian:
 Ab initio Hamiltonian  Method          .... Hartree-Fock(GTOs)


General Settings:
 Integral files         IntName         .... 12h2o.su.etal.mol0,2,6,7,8,11-orca.engrad-mp2.def2tzvp.frozencore
 Hartree-Fock type      HFTyp           .... RHF
 Total Charge           Charge          ....    0
 Multiplicity           Mult            ....    1
 Number of Electrons    NEL             ....   60
 Basis Dimension        Dim             ....  258
 Nuclear Repulsion      ENuc            ....    255.1353046883 Eh

Convergence Acceleration:
 DIIS                   CNVDIIS         .... on
   Start iteration      DIISMaxIt       ....    12
   Startup error        DIISStart       ....  0.200000
   # of expansion vecs  DIISMaxEq       ....     5
   Bias factor          DIISBfac        ....   1.050
   Max. coefficient     DIISMaxC        ....  10.000
 Newton-Raphson         CNVNR           .... off
 SOSCF                  CNVSOSCF        .... on
   Start iteration      SOSCFMaxIt      ....   150
   Startup grad/error   SOSCFStart      ....  0.003300
 Level Shifting         CNVShift        .... on
   Level shift para.    LevelShift      ....    0.2500
   Turn off err/grad.   ShiftErr        ....    0.0010
 Zerner damping         CNVZerner       .... off
 Static damping         CNVDamp         .... on
   Fraction old density DampFac         ....    0.7000
   Max. Damping (<1)    DampMax         ....    0.9800
   Min. Damping (>=0)   DampMin         ....    0.0000
   Turn off err/grad.   DampErr         ....    0.1000
 Fernandez-Rico         CNVRico         .... off

SCF Procedure:
 Maximum # iterations   MaxIter         ....   125
 SCF integral mode      SCFMode         .... Direct
   Integral package                     .... LIBINT
 Reset frequency        DirectResetFreq ....    20
 Integral Threshold     Thresh          ....  2.500e-11 Eh
 Primitive CutOff       TCut            ....  2.500e-12 Eh

Convergence Tolerance:
 Convergence Check Mode ConvCheckMode   .... Total+1el-Energy
 Convergence forced     ConvForced      .... 1
 Energy Change          TolE            ....  1.000e-08 Eh
 1-El. energy change                    ....  1.000e-05 Eh
 Orbital Gradient       TolG            ....  1.000e-05
 Orbital Rotation angle TolX            ....  1.000e-05
 DIIS Error             TolErr          ....  5.000e-07


Diagonalization of the overlap matrix:
Smallest eigenvalue                        ... 4.289e-03
Time for diagonalization                   ...    0.011 sec
Threshold for overlap eigenvalues          ... 1.000e-08
Number of eigenvalues below threshold      ... 0
Time for construction of square roots      ...    0.005 sec
Total time needed                          ...    0.016 sec

-------------------
DFT GRID GENERATION
-------------------

General Integration Accuracy     IntAcc      ...  4.340
Radial Grid Type                 RadialGrid  ... Gauss-Chebyshev
Angular Grid (max. acc.)         AngularGrid ... Lebedev-110
Angular grid pruning method      GridPruning ... 3 (G Style)
Weight generation scheme         WeightScheme... Becke
Basis function cutoff            BFCut       ...    1.0000e-11
Integration weight cutoff        WCut        ...    1.0000e-14
Grids for H and He will be reduced by one unit

# of grid points (after initial pruning)     ...  19824 (   0.0 sec)
# of grid points (after weights+screening)   ...  18831 (   0.0 sec)
nearest neighbour list constructed           ...    0.0 sec
Grid point re-assignment to atoms done       ...    0.0 sec
Grid point division into batches done        ...    0.0 sec
Reduced shell lists constructed in    0.0 sec

Total number of grid points                  ...    18831
Total number of batches                      ...      303
Average number of points per batch           ...       62
Average number of grid points per atom       ...     1046
Average number of shells per batch           ...    54.48 (47.79%)
Average number of basis functions per batch  ...   110.71 (42.91%)
Average number of large shells per batch     ...    38.00 (69.75%)
Average number of large basis fcns per batch ...    77.00 (69.55%)
Maximum spatial batch extension              ...  12.83, 20.10, 12.41 au
Average spatial batch extension              ...   0.59,  0.70,  0.57 au

Time for grid setup =    0.110 sec

------------------------------
INITIAL GUESS: MODEL POTENTIAL
------------------------------
Loading Hartree-Fock densities                     ... done
Calculating cut-offs                               ... done
Setting up the integral package                    ... done
Initializing the effective Hamiltonian             ... done
Starting the Coulomb interaction                   ... done (   0.0 sec)
Reading the grid                                   ... done
Mapping shells                                     ... done
Starting the XC term evaluation                    ... done (   0.0 sec)
Transforming the Hamiltonian                       ... done (   0.0 sec)
Diagonalizing the Hamiltonian                      ... done (   0.0 sec)
Back transforming the eigenvectors                 ... done (   0.0 sec)
Now organizing SCF variables                       ... done
                      ------------------
                      INITIAL GUESS DONE (   0.3 sec)
                      ------------------
--------------
SCF ITERATIONS
--------------
ITER       Energy         Delta-E        Max-DP      RMS-DP      [F,P]     Damp
               ***  Starting incremental Fock matrix formation  ***
  0   -455.8156099167   0.000000000000 0.04404343  0.00098264  0.3504201 0.7000
  1   -456.0318127584  -0.216202841700 0.02939468  0.00067997  0.2166233 0.7000
                               ***Turning on DIIS***
  2   -456.1458436688  -0.114030910333 0.01644683  0.00037758  0.1638624 0.7000
  3   -457.1606146554  -1.014770986612 0.00776279  0.00017039  0.1218699 0.7000
  4   -456.9533374250   0.207277230440 0.01725272  0.00039341  0.0862209 0.0000
  5   -456.4075304329   0.545806992071 0.00200815  0.00006309  0.0058821 0.0000
                      *** Initiating the SOSCF procedure ***
                           *** Shutting down DIIS ***
                      *** Re-Reading the Fockian *** 
                      *** Removing any level shift *** 
ITER      Energy       Delta-E        Grad      Rot      Max-DP    RMS-DP
  6   -456.37528996   0.0322404743  0.000757  0.000757  0.001276  0.000038
               *** Restarting incremental Fock matrix formation ***
  7   -456.36555221   0.0097377499  0.000269  0.000403  0.000605  0.000017
  8   -456.36556127  -0.0000090616  0.000130  0.000340  0.000467  0.000014
  9   -456.36556342  -0.0000021496  0.000072  0.000050  0.000101  0.000002
 10   -456.36556360  -0.0000001821  0.000009  0.000007  0.000018  0.000000
                  ***Gradient check signals convergence***
              ***Rediagonalizing the Fockian in SOSCF/NRSCF***

               *****************************************************
               *                     SUCCESS                       *
               *           SCF CONVERGED AFTER  11 CYCLES          *
               *****************************************************


----------------
TOTAL SCF ENERGY
----------------

Total Energy       :         -456.36556361 Eh          -12418.33832 eV

Components:
Nuclear Repulsion  :          255.13530469 Eh            6942.58459 eV
Electronic Energy  :         -711.50086829 Eh          -19360.92292 eV
One Electron Energy:        -1138.42498744 Eh          -30978.11881 eV
Two Electron Energy:          426.92411915 Eh           11617.19589 eV

Virial components:
Potential Energy   :         -912.11422797 Eh          -24819.88996 eV
Kinetic Energy     :          455.74866437 Eh           12401.55164 eV
Virial Ratio       :            2.00135360


---------------
SCF CONVERGENCE
---------------

  Last Energy change         ...   -4.2087e-09  Tolerance :   1.0000e-08
  Last MAX-Density change    ...    4.4661e-06  Tolerance :   1.0000e-07
  Last RMS-Density change    ...    1.4025e-07  Tolerance :   5.0000e-09
  Last Orbital Gradient      ...    1.7952e-06  Tolerance :   1.0000e-05
  Last Orbital Rotation      ...    2.6964e-06  Tolerance :   1.0000e-05

             **** THE GBW FILE WAS UPDATED (12h2o.su.etal.mol0,2,6,7,8,11-orca.engrad-mp2.def2tzvp.frozencore.gbw) ****
             **** DENSITY FILE WAS UPDATED (12h2o.su.etal.mol0,2,6,7,8,11-orca.engrad-mp2.def2tzvp.frozencore.scfp) ****
             **** ENERGY FILE WAS UPDATED (12h2o.su.etal.mol0,2,6,7,8,11-orca.engrad-mp2.def2tzvp.frozencore.en.tmp) ****
             **** THE GBW FILE WAS UPDATED (12h2o.su.etal.mol0,2,6,7,8,11-orca.engrad-mp2.def2tzvp.frozencore.gbw) ****
             **** DENSITY FILE WAS UPDATED (12h2o.su.etal.mol0,2,6,7,8,11-orca.engrad-mp2.def2tzvp.frozencore.scfp) ****
----------------
ORBITAL ENERGIES
----------------

  NO   OCC          E(Eh)            E(eV) 
   0   2.0000     -20.622602      -561.1695 
   1   2.0000     -20.567728      -559.6763 
   2   2.0000     -20.564072      -559.5768 
   3   2.0000     -20.559832      -559.4615 
   4   2.0000     -20.559332      -559.4479 
   5   2.0000     -20.501104      -557.8634 
   6   2.0000      -1.408018       -38.3141 
   7   2.0000      -1.353561       -36.8323 
   8   2.0000      -1.346006       -36.6267 
   9   2.0000      -1.343410       -36.5560 
  10   2.0000      -1.337197       -36.3870 
  11   2.0000      -1.283087       -34.9146 
  12   2.0000      -0.765215       -20.8226 
  13   2.0000      -0.730794       -19.8859 
  14   2.0000      -0.718398       -19.5486 
  15   2.0000      -0.704951       -19.1827 
  16   2.0000      -0.702390       -19.1130 
  17   2.0000      -0.671140       -18.2626 
  18   2.0000      -0.646290       -17.5864 
  19   2.0000      -0.607246       -16.5240 
  20   2.0000      -0.592122       -16.1125 
  21   2.0000      -0.582672       -15.8553 
  22   2.0000      -0.572652       -15.5826 
  23   2.0000      -0.547347       -14.8941 
  24   2.0000      -0.532499       -14.4900 
  25   2.0000      -0.512684       -13.9508 
  26   2.0000      -0.508977       -13.8500 
  27   2.0000      -0.507507       -13.8100 
  28   2.0000      -0.488096       -13.2818 
  29   2.0000      -0.451555       -12.2874 
  30   0.0000       0.070837         1.9276 
  31   0.0000       0.123070         3.3489 
  32   0.0000       0.140426         3.8212 
  33   0.0000       0.149532         4.0690 
  34   0.0000       0.178097         4.8463 
  35   0.0000       0.187812         5.1106 
  36   0.0000       0.218499         5.9457 
  37   0.0000       0.234162         6.3719 
  38   0.0000       0.260085         7.0773 
  39   0.0000       0.292531         7.9602 
  40   0.0000       0.313844         8.5401 
  41   0.0000       0.350552         9.5390 
  42   0.0000       0.448580        12.2065 
  43   0.0000       0.453961        12.3529 
  44   0.0000       0.470230        12.7956 
  45   0.0000       0.499970        13.6049 
  46   0.0000       0.520377        14.1602 
  47   0.0000       0.523915        14.2565 
  48   0.0000       0.550341        14.9755 
  49   0.0000       0.559884        15.2352 
  50   0.0000       0.563350        15.3295 
  51   0.0000       0.570259        15.5175 
  52   0.0000       0.583861        15.8877 
  53   0.0000       0.594592        16.1797 
  54   0.0000       0.614056        16.7093 
  55   0.0000       0.625294        17.0151 
  56   0.0000       0.628969        17.1151 
  57   0.0000       0.647389        17.6164 
  58   0.0000       0.662602        18.0303 
  59   0.0000       0.676932        18.4202 
  60   0.0000       0.690165        18.7803 
  61   0.0000       0.702811        19.1245 
  62   0.0000       0.727258        19.7897 
  63   0.0000       0.736165        20.0321 
  64   0.0000       0.742784        20.2122 
  65   0.0000       0.762362        20.7449 
  66   0.0000       0.769535        20.9401 
  67   0.0000       0.793305        21.5869 
  68   0.0000       0.801919        21.8213 
  69   0.0000       0.808963        22.0130 
  70   0.0000       0.820041        22.3144 
  71   0.0000       0.855229        23.2720 
  72   0.0000       0.885961        24.1082 
  73   0.0000       0.933274        25.3957 
  74   0.0000       0.960699        26.1420 
  75   0.0000       1.009145        27.4602 
  76   0.0000       1.026707        27.9381 
  77   0.0000       1.072617        29.1874 
  78   0.0000       1.332539        36.2602 
  79   0.0000       1.363228        37.0953 
  80   0.0000       1.391506        37.8648 
  81   0.0000       1.395224        37.9660 
  82   0.0000       1.405001        38.2320 
  83   0.0000       1.428029        38.8586 
  84   0.0000       1.443815        39.2882 
  85   0.0000       1.458602        39.6906 
  86   0.0000       1.468097        39.9490 
  87   0.0000       1.477474        40.2041 
  88   0.0000       1.508544        41.0496 
  89   0.0000       1.527814        41.5739 
  90   0.0000       1.542644        41.9775 
  91   0.0000       1.547620        42.1129 
  92   0.0000       1.577809        42.9344 
  93   0.0000       1.606859        43.7249 
  94   0.0000       1.611019        43.8381 
  95   0.0000       1.654165        45.0121 
  96   0.0000       1.758923        47.8627 
  97   0.0000       1.792254        48.7697 
  98   0.0000       1.815187        49.3938 
  99   0.0000       1.839509        50.0556 
 100   0.0000       1.871511        50.9264 
 101   0.0000       1.878474        51.1159 
 102   0.0000       1.915254        52.1167 
 103   0.0000       1.919173        52.2234 
 104   0.0000       1.957097        53.2553 
 105   0.0000       1.963481        53.4290 
 106   0.0000       1.980766        53.8994 
 107   0.0000       2.008004        54.6406 
 108   0.0000       2.022711        55.0408 
 109   0.0000       2.056381        55.9570 
 110   0.0000       2.077072        56.5200 
 111   0.0000       2.121224        57.7214 
 112   0.0000       2.125493        57.8376 
 113   0.0000       2.172552        59.1182 
 114   0.0000       2.215062        60.2749 
 115   0.0000       2.274990        61.9056 
 116   0.0000       2.302408        62.6517 
 117   0.0000       2.308279        62.8115 
 118   0.0000       2.317125        63.0522 
 119   0.0000       2.330478        63.4155 
 120   0.0000       2.341775        63.7230 
 121   0.0000       2.349788        63.9410 
 122   0.0000       2.355653        64.1006 
 123   0.0000       2.362319        64.2820 
 124   0.0000       2.375144        64.6309 
 125   0.0000       2.387024        64.9542 
 126   0.0000       2.416206        65.7483 
 127   0.0000       2.463953        67.0476 
 128   0.0000       2.483664        67.5839 
 129   0.0000       2.509291        68.2813 
 130   0.0000       2.543871        69.2223 
 131   0.0000       2.550884        69.4131 
 132   0.0000       2.571382        69.9709 
 133   0.0000       2.586282        70.3763 
 134   0.0000       2.598236        70.7016 
 135   0.0000       2.610877        71.0456 
 136   0.0000       2.636198        71.7346 
 137   0.0000       2.643159        71.9240 
 138   0.0000       2.662904        72.4613 
 139   0.0000       2.676513        72.8316 
 140   0.0000       2.704037        73.5806 
 141   0.0000       2.745668        74.7134 
 142   0.0000       2.766189        75.2718 
 143   0.0000       2.814021        76.5734 
 144   0.0000       2.876787        78.2814 
 145   0.0000       2.903705        79.0138 
 146   0.0000       2.918839        79.4256 
 147   0.0000       2.925868        79.6169 
 148   0.0000       2.942678        80.0743 
 149   0.0000       2.961104        80.5757 
 150   0.0000       2.973175        80.9042 
 151   0.0000       2.996316        81.5339 
 152   0.0000       3.004087        81.7454 
 153   0.0000       3.034044        82.5605 
 154   0.0000       3.046995        82.9130 
 155   0.0000       3.068204        83.4901 
 156   0.0000       3.088761        84.0495 
 157   0.0000       3.098191        84.3061 
 158   0.0000       3.116443        84.8027 
 159   0.0000       3.140296        85.4518 
 160   0.0000       3.150788        85.7373 
 161   0.0000       3.181499        86.5730 
 162   0.0000       3.252341        88.5007 
 163   0.0000       3.265499        88.8587 
 164   0.0000       3.280049        89.2547 
 165   0.0000       3.342905        90.9651 
 166   0.0000       3.476489        94.6001 
 167   0.0000       3.532477        96.1236 
 168   0.0000       3.979572       108.2897 
 169   0.0000       4.020404       109.4007 
 170   0.0000       4.039574       109.9224 
 171   0.0000       4.064030       110.5879 
 172   0.0000       4.089025       111.2680 
 173   0.0000       4.137567       112.5889 
 174   0.0000       4.250795       115.6700 
 175   0.0000       4.295595       116.8891 
 176   0.0000       4.307036       117.2004 
 177   0.0000       4.325577       117.7049 
 178   0.0000       4.363521       118.7374 
 179   0.0000       4.427492       120.4782 
 180   0.0000       5.486373       149.2918 
 181   0.0000       5.544297       150.8680 
 182   0.0000       5.544405       150.8709 
 183   0.0000       5.546404       150.9253 
 184   0.0000       5.550119       151.0264 
 185   0.0000       5.604389       152.5032 
 186   0.0000       5.624702       153.0559 
 187   0.0000       5.639355       153.4546 
 188   0.0000       5.647663       153.6807 
 189   0.0000       5.659965       154.0155 
 190   0.0000       5.686038       154.7250 
 191   0.0000       5.702640       155.1767 
 192   0.0000       5.773274       157.0988 
 193   0.0000       5.779234       157.2609 
 194   0.0000       5.812012       158.1529 
 195   0.0000       5.815297       158.2423 
 196   0.0000       5.825433       158.5181 
 197   0.0000       5.830701       158.6614 
 198   0.0000       5.835027       158.7792 
 199   0.0000       5.841644       158.9592 
 200   0.0000       5.845995       159.0776 
 201   0.0000       5.855653       159.3404 
 202   0.0000       5.870357       159.7405 
 203   0.0000       5.884332       160.1208 
 204   0.0000       5.888976       160.2472 
 205   0.0000       5.896066       160.4401 
 206   0.0000       5.906507       160.7242 
 207   0.0000       5.911598       160.8628 
 208   0.0000       5.927995       161.3089 
 209   0.0000       5.985809       162.8822 
 210   0.0000       6.427078       174.8897 
 211   0.0000       6.463399       175.8780 
 212   0.0000       6.463851       175.8903 
 213   0.0000       6.466707       175.9680 
 214   0.0000       6.492707       176.6756 
 215   0.0000       6.525139       177.5581 
 216   0.0000       6.653403       181.0483 
 217   0.0000       6.677564       181.7058 
 218   0.0000       6.681954       181.8252 
 219   0.0000       6.717670       182.7971 
 220   0.0000       6.719793       182.8549 
 221   0.0000       6.771528       184.2626 
 222   0.0000       6.816712       185.4922 
 223   0.0000       6.824745       185.7108 
 224   0.0000       6.853231       186.4859 
 225   0.0000       6.856220       186.5672 
 226   0.0000       6.870132       186.9458 
 227   0.0000       6.881652       187.2593 
 228   0.0000       6.884562       187.3385 
 229   0.0000       6.902803       187.8348 
 230   0.0000       6.917372       188.2313 
 231   0.0000       6.927193       188.4985 
 232   0.0000       6.936087       188.7405 
 233   0.0000       6.942607       188.9179 
 234   0.0000       6.957310       189.3180 
 235   0.0000       6.971621       189.7075 
 236   0.0000       7.002374       190.5443 
 237   0.0000       7.010475       190.7647 
 238   0.0000       7.036855       191.4826 
 239   0.0000       7.101073       193.2300 
 240   0.0000       7.342348       199.7955 
 241   0.0000       7.352290       200.0660 
 242   0.0000       7.387996       201.0376 
 243   0.0000       7.440724       202.4724 
 244   0.0000       7.448278       202.6779 
 245   0.0000       7.467630       203.2045 
 246   0.0000       7.512927       204.4371 
 247   0.0000       7.522298       204.6921 
 248   0.0000       7.540377       205.1841 
 249   0.0000       7.545728       205.3297 
 250   0.0000       7.586241       206.4321 
 251   0.0000       7.606073       206.9718 
 252   0.0000      44.837918      1220.1018 
 253   0.0000      44.884704      1221.3749 
 254   0.0000      44.956507      1223.3288 
 255   0.0000      44.960549      1223.4387 
 256   0.0000      44.981530      1224.0097 
 257   0.0000      45.000348      1224.5217 

                    ********************************
                    * MULLIKEN POPULATION ANALYSIS *
                    ********************************

-----------------------
MULLIKEN ATOMIC CHARGES
-----------------------
   0 O :   -0.764994
   1 H :    0.350450
   2 H :    0.393983
   3 O :   -0.758718
   4 H :    0.327611
   5 H :    0.396657
   6 O :   -0.736320
   7 H :    0.403300
   8 H :    0.326312
   9 O :   -0.703792
  10 H :    0.326662
  11 H :    0.377482
  12 O :   -0.727514
  13 H :    0.405058
  14 H :    0.348349
  15 O :   -0.701770
  16 H :    0.366955
  17 H :    0.370287
Sum of atomic charges:    0.0000000

--------------------------------
MULLIKEN REDUCED ORBITAL CHARGES
--------------------------------
  0 O s       :     3.809199  s :     3.809199
      pz      :     1.709428  p :     4.931274
      px      :     1.410200
      py      :     1.811646
      dz2     :     0.003595  d :     0.023088
      dxz     :     0.004151
      dyz     :     0.005504
      dx2y2   :     0.002302
      dxy     :     0.007536
      f0      :     0.000079  f :     0.001432
      f+1     :     0.000311
      f-1     :     0.000177
      f+2     :     0.000070
      f-2     :     0.000348
      f+3     :     0.000090
      f-3     :     0.000357
  1 H s       :     0.603817  s :     0.603817
      pz      :     0.016788  p :     0.045733
      px      :     0.013937
      py      :     0.015008
  2 H s       :     0.549425  s :     0.549425
      pz      :     0.010481  p :     0.056591
      px      :     0.031899
      py      :     0.014211
  3 O s       :     3.808440  s :     3.808440
      pz      :     1.714786  p :     4.925048
      px      :     1.801943
      py      :     1.408319
      dz2     :     0.004033  d :     0.023759
      dxz     :     0.005559
      dyz     :     0.004706
      dx2y2   :     0.002299
      dxy     :     0.007162
      f0      :     0.000088  f :     0.001471
      f+1     :     0.000186
      f-1     :     0.000327
      f+2     :     0.000070
      f-2     :     0.000360
      f+3     :     0.000352
      f-3     :     0.000089
  4 H s       :     0.626157  s :     0.626157
      pz      :     0.017060  p :     0.046232
      px      :     0.015245
      py      :     0.013927
  5 H s       :     0.546449  s :     0.546449
      pz      :     0.010767  p :     0.056893
      px      :     0.013991
      py      :     0.032135
  6 O s       :     3.807402  s :     3.807402
      pz      :     1.600941  p :     4.903892
      px      :     1.429233
      py      :     1.873718
      dz2     :     0.009899  d :     0.023551
      dxz     :     0.002389
      dyz     :     0.002425
      dx2y2   :     0.003142
      dxy     :     0.005696
      f0      :     0.000181  f :     0.001474
      f+1     :     0.000429
      f-1     :     0.000123
      f+2     :     0.000080
      f-2     :     0.000036
      f+3     :     0.000131
      f-3     :     0.000495
  7 H s       :     0.547374  s :     0.547374
      pz      :     0.025219  p :     0.049326
      px      :     0.011185
      py      :     0.012922
  8 H s       :     0.630099  s :     0.630099
      pz      :     0.010025  p :     0.043590
      px      :     0.017928
      py      :     0.015637
  9 O s       :     3.820422  s :     3.820422
      pz      :     1.512760  p :     4.855333
      px      :     1.470101
      py      :     1.872471
      dz2     :     0.012100  d :     0.026539
      dxz     :     0.003119
      dyz     :     0.002743
      dx2y2   :     0.003297
      dxy     :     0.005280
      f0      :     0.000182  f :     0.001498
      f+1     :     0.000457
      f-1     :     0.000129
      f+2     :     0.000076
      f-2     :     0.000041
      f+3     :     0.000126
      f-3     :     0.000486
 10 H s       :     0.628125  s :     0.628125
      pz      :     0.018415  p :     0.045213
      px      :     0.012211
      py      :     0.014587
 11 H s       :     0.579531  s :     0.579531
      pz      :     0.009814  p :     0.042987
      px      :     0.018683
      py      :     0.014490
 12 O s       :     3.797257  s :     3.797257
      pz      :     1.579092  p :     4.903817
      px      :     1.538101
      py      :     1.786624
      dz2     :     0.011780  d :     0.025033
      dxz     :     0.001163
      dyz     :     0.002433
      dx2y2   :     0.002478
      dxy     :     0.007179
      f0      :     0.000227  f :     0.001407
      f+1     :     0.000383
      f-1     :     0.000157
      f+2     :     0.000051
      f-2     :     0.000056
      f+3     :     0.000054
      f-3     :     0.000479
 13 H s       :     0.547171  s :     0.547171
      pz      :     0.025120  p :     0.047771
      px      :     0.010954
      py      :     0.011697
 14 H s       :     0.607655  s :     0.607655
      pz      :     0.010716  p :     0.043996
      px      :     0.018227
      py      :     0.015053
 15 O s       :     3.800147  s :     3.800147
      pz      :     1.527262  p :     4.874147
      px      :     1.789241
      py      :     1.557644
      dz2     :     0.012625  d :     0.026026
      dxz     :     0.002489
      dyz     :     0.001253
      dx2y2   :     0.002532
      dxy     :     0.007127
      f0      :     0.000249  f :     0.001450
      f+1     :     0.000164
      f-1     :     0.000393
      f+2     :     0.000051
      f-2     :     0.000057
      f+3     :     0.000482
      f-3     :     0.000054
 16 H s       :     0.589231  s :     0.589231
      pz      :     0.019433  p :     0.043814
      px      :     0.012677
      py      :     0.011704
 17 H s       :     0.586320  s :     0.586320
      pz      :     0.010185  p :     0.043393
      px      :     0.014719
      py      :     0.018489


                     *******************************
                     * LOEWDIN POPULATION ANALYSIS *
                     *******************************

----------------------
LOEWDIN ATOMIC CHARGES
----------------------
   0 O :   -0.344492
   1 H :    0.155665
   2 H :    0.152336
   3 O :   -0.374287
   4 H :    0.145528
   5 H :    0.152678
   6 O :   -0.329250
   7 H :    0.162854
   8 H :    0.159461
   9 O :   -0.337595
  10 H :    0.155159
  11 H :    0.182634
  12 O :   -0.288645
  13 H :    0.164771
  14 H :    0.167061
  15 O :   -0.274090
  16 H :    0.172978
  17 H :    0.177235

-------------------------------
LOEWDIN REDUCED ORBITAL CHARGES
-------------------------------
  0 O s       :     3.461303  s :     3.461303
      pz      :     1.677186  p :     4.851678
      px      :     1.392614
      py      :     1.781878
      dz2     :     0.004651  d :     0.029522
      dxz     :     0.006644
      dyz     :     0.005666
      dx2y2   :     0.003319
      dxy     :     0.009242
      f0      :     0.000082  f :     0.001989
      f+1     :     0.000428
      f-1     :     0.000261
      f+2     :     0.000034
      f-2     :     0.000613
      f+3     :     0.000085
      f-3     :     0.000485
  1 H s       :     0.679541  s :     0.679541
      pz      :     0.065810  p :     0.164795
      px      :     0.045723
      py      :     0.053262
  2 H s       :     0.653148  s :     0.653148
      pz      :     0.033642  p :     0.194517
      px      :     0.113174
      py      :     0.047700
  3 O s       :     3.467909  s :     3.467909
      pz      :     1.703797  p :     4.874598
      px      :     1.779220
      py      :     1.391581
      dz2     :     0.004273  d :     0.029762
      dxz     :     0.005853
      dyz     :     0.007279
      dx2y2   :     0.003286
      dxy     :     0.009071
      f0      :     0.000074  f :     0.002018
      f+1     :     0.000269
      f-1     :     0.000441
      f+2     :     0.000034
      f-2     :     0.000637
      f+3     :     0.000480
      f-3     :     0.000084
  4 H s       :     0.690200  s :     0.690200
      pz      :     0.065471  p :     0.164272
      px      :     0.053353
      py      :     0.045449
  5 H s       :     0.653130  s :     0.653130
      pz      :     0.033489  p :     0.194193
      px      :     0.047494
      py      :     0.113210
  6 O s       :     3.463660  s :     3.463660
      pz      :     1.561552  p :     4.832623
      px      :     1.439146
      py      :     1.831925
      dz2     :     0.013759  d :     0.030905
      dxz     :     0.003478
      dyz     :     0.001585
      dx2y2   :     0.004579
      dxy     :     0.007504
      f0      :     0.000342  f :     0.002061
      f+1     :     0.000698
      f-1     :     0.000193
      f+2     :     0.000043
      f-2     :     0.000039
      f+3     :     0.000077
      f-3     :     0.000670
  7 H s       :     0.663956  s :     0.663956
      pz      :     0.095923  p :     0.173189
      px      :     0.035165
      py      :     0.042101
  8 H s       :     0.687144  s :     0.687144
      pz      :     0.031024  p :     0.153395
      px      :     0.072878
      py      :     0.049494
  9 O s       :     3.479829  s :     3.479829
      pz      :     1.531050  p :     4.822023
      px      :     1.456701
      py      :     1.834271
      dz2     :     0.016255  d :     0.033585
      dxz     :     0.004656
      dyz     :     0.001859
      dx2y2   :     0.004284
      dxy     :     0.006531
      f0      :     0.000402  f :     0.002158
      f+1     :     0.000770
      f-1     :     0.000205
      f+2     :     0.000050
      f-2     :     0.000046
      f+3     :     0.000072
      f-3     :     0.000613
 10 H s       :     0.687330  s :     0.687330
      pz      :     0.078564  p :     0.157511
      px      :     0.035406
      py      :     0.043542
 11 H s       :     0.663825  s :     0.663825
      pz      :     0.028603  p :     0.153542
      px      :     0.075891
      py      :     0.049049
 12 O s       :     3.454340  s :     3.454340
      pz      :     1.547505  p :     4.800061
      px      :     1.525807
      py      :     1.726750
      dz2     :     0.015223  d :     0.032115
      dxz     :     0.001701
      dyz     :     0.001849
      dx2y2   :     0.003768
      dxy     :     0.009573
      f0      :     0.000400  f :     0.002129
      f+1     :     0.000563
      f-1     :     0.000337
      f+2     :     0.000021
      f-2     :     0.000046
      f+3     :     0.000027
      f-3     :     0.000736
 13 H s       :     0.662872  s :     0.662872
      pz      :     0.095420  p :     0.172357
      px      :     0.035681
      py      :     0.041256
 14 H s       :     0.674935  s :     0.674935
      pz      :     0.031404  p :     0.158005
      px      :     0.071670
      py      :     0.054931
 15 O s       :     3.458219  s :     3.458219
      pz      :     1.518061  p :     4.779967
      px      :     1.729028
      py      :     1.532878
      dz2     :     0.016868  d :     0.033701
      dxz     :     0.001981
      dyz     :     0.001977
      dx2y2   :     0.003724
      dxy     :     0.009151
      f0      :     0.000458  f :     0.002202
      f+1     :     0.000344
      f-1     :     0.000591
      f+2     :     0.000023
      f-2     :     0.000048
      f+3     :     0.000711
      f-3     :     0.000027
 16 H s       :     0.668228  s :     0.668228
      pz      :     0.081456  p :     0.158794
      px      :     0.041730
      py      :     0.035608
 17 H s       :     0.665215  s :     0.665215
      pz      :     0.029703  p :     0.157550
      px      :     0.054929
      py      :     0.072918


                      *****************************
                      * MAYER POPULATION ANALYSIS *
                      *****************************

  NA   - Mulliken gross atomic population
  ZA   - Total nuclear charge
  QA   - Mulliken gross atomic charge
  VA   - Mayer's total valence
  BVA  - Mayer's bonded valence
  FA   - Mayer's free valence

  ATOM       NA         ZA         QA         VA         BVA        FA
  0 O      8.7650     8.0000    -0.7650     1.7010     1.7010     0.0000
  1 H      0.6495     1.0000     0.3505     0.8935     0.8935    -0.0000
  2 H      0.6060     1.0000     0.3940     0.8785     0.8785     0.0000
  3 O      8.7587     8.0000    -0.7587     1.6964     1.6964     0.0000
  4 H      0.6724     1.0000     0.3276     0.9083     0.9083    -0.0000
  5 H      0.6033     1.0000     0.3967     0.8773     0.8773    -0.0000
  6 O      8.7363     8.0000    -0.7363     1.7412     1.7412     0.0000
  7 H      0.5967     1.0000     0.4033     0.8717     0.8717     0.0000
  8 H      0.6737     1.0000     0.3263     0.9137     0.9137     0.0000
  9 O      8.7038     8.0000    -0.7038     1.7729     1.7729     0.0000
 10 H      0.6733     1.0000     0.3267     0.9078     0.9078     0.0000
 11 H      0.6225     1.0000     0.3775     0.8750     0.8750     0.0000
 12 O      8.7275     8.0000    -0.7275     1.7513     1.7513    -0.0000
 13 H      0.5949     1.0000     0.4051     0.8635     0.8635    -0.0000
 14 H      0.6517     1.0000     0.3483     0.8935     0.8935    -0.0000
 15 O      8.7018     8.0000    -0.7018     1.7825     1.7825     0.0000
 16 H      0.6330     1.0000     0.3670     0.8820     0.8820     0.0000
 17 H      0.6297     1.0000     0.3703     0.8794     0.8794    -0.0000

  Mayer bond orders larger than 0.100000
B(  0-O ,  1-H ) :   0.8853 B(  0-O ,  2-H ) :   0.8085 B(  3-O ,  4-H ) :   0.9022 
B(  3-O ,  5-H ) :   0.8126 B(  6-O ,  7-H ) :   0.8250 B(  6-O ,  8-H ) :   0.8961 
B(  9-O , 10-H ) :   0.9009 B(  9-O , 11-H ) :   0.8624 B( 12-O , 13-H ) :   0.8281 
B( 12-O , 14-H ) :   0.8862 B( 15-O , 16-H ) :   0.8722 B( 15-O , 17-H ) :   0.8693 


-------
TIMINGS
-------

Total SCF time: 0 days 0 hours 0 min 15 sec 

Total time                  ....      15.525 sec
Sum of individual times     ....      15.197 sec  ( 97.9%)

Fock matrix formation       ....      14.605 sec  ( 94.1%)
Diagonalization             ....       0.138 sec  (  0.9%)
Density matrix formation    ....       0.016 sec  (  0.1%)
Population analysis         ....       0.013 sec  (  0.1%)
Initial guess               ....       0.237 sec  (  1.5%)
Orbital Transformation      ....       0.000 sec  (  0.0%)
Orbital Orthonormalization  ....       0.000 sec  (  0.0%)
DIIS solution               ....       0.046 sec  (  0.3%)
SOSCF solution              ....       0.032 sec  (  0.2%)


           ************************************************************
           *        Program running with 6 parallel MPI-processes     *
           *              working on a common directory               *
           ************************************************************

------------------------------------------------------------------------------
                                ORCA  MP2 
------------------------------------------------------------------------------

Freezing NCore=12 chemical core electrons
MP2 will be done in the AO integral direct mode
The Q1-step will be done using symmetric double matrices
Dimension of the basis                    ...  258
Memory devoted for MP2                    ... 8000 MB   
Memory needed for all in one shot         ...  264 MB
Number of MOs that can be treated together...  120      
MP2 density construction                  ... relaxed
The MP2 gradient is requested => amplitudes will be stored on disk
Total number of MOs              ...   24
Number of MOs treated per batch  ...    4 
Number of batches necessary      ...    1 
OPERATORS   0/  0 PASS   0
-----------------------------------------------
 MP2 CORRELATION ENERGY   :     -1.547643295 Eh
-----------------------------------------------


---------------------
MP2 DENSITY FORMATION
---------------------

Completing the external part of the density      ... done
Storing the unrelaxed density                    ... done

Calculating G(D)                                 ... done
Completing the Lagrangian                        ... done
Solving the Z-vector equations                   ... 

------------------------------------------------------------------------------
                           ORCA CP-SCF CALCULATION
------------------------------------------------------------------------------

Input orbitals are from        ... 12h2o.su.etal.mol0,2,6,7,8,11-orca.engrad-mp2.def2tzvp.frozencore.gbw
Input Perturbation             ... 12h2o.su.etal.mol0,2,6,7,8,11-orca.engrad-mp2.def2tzvp.frozencore.pin.tmp
Wavefunction output            ... 12h2o.su.etal.mol0,2,6,7,8,11-orca.engrad-mp2.def2tzvp.frozencore.pout.tmp
Perturbation mode              ... Real perturbation (singlet)
Solver                         ... POPLE
Max. number of iterations      ... 128
Convergence tolerance          ... 1.000e-08
Integral handling              ... Direct
Number of perturbations        ... 1
Number of operators            ... 1
Orbital ranges used for CP-SCF:
 Operator 0:  Orbitals   0... 29  to  30...257
Variables per vector in CP-SCF ... 6840
Number of vectors sought       ... 1
     CP-SCF ITERATION   0: 
     CP-SCF ITERATION   1:      0.000756814213
     CP-SCF ITERATION   2:      0.000018547872
     CP-SCF ITERATION   3:      0.000000943068
     CP-SCF ITERATION   4:      0.000000087762
     CP-SCF ITERATION   5:      0.000000008039
                                                 ... done
Finalizing the relaxed density                   ... done
Transforming P to the AO basis                   ... done
Storing the relaxed density                      ... done

------------------------------------
ENERGY WEIGHTED DENSITY FINALIZATION
------------------------------------

Gathering the parts of the W-matrix              ...                                                      done
Forming the Z-density                            ... done
Transforming Z to the AO basis                   ... done
Calculating G(Z)                                 ... done
Finalizing the W-matrix                          ...                                                      done
Transforming W to the AO basis and storing       ... done

                *********************************************
                * UNRELAXED MP2 DENSITY POPULATION ANALYSIS *
                *********************************************

------------------------------------------------------------------------------
                           ORCA POPULATION ANALYSIS
------------------------------------------------------------------------------
Input electron density              ... 12h2o.su.etal.mol0,2,6,7,8,11-orca.engrad-mp2.def2tzvp.frozencore.pmp2ur
BaseName (.gbw .S,...)              ... 12h2o.su.etal.mol0,2,6,7,8,11-orca.engrad-mp2.def2tzvp.frozencore

                    ********************************
                    * MULLIKEN POPULATION ANALYSIS *
                    ********************************

-----------------------
MULLIKEN ATOMIC CHARGES
-----------------------
   0 O :   -0.759014
   1 H :    0.348186
   2 H :    0.389503
   3 O :   -0.753329
   4 H :    0.325358
   5 H :    0.392299
   6 O :   -0.730555
   7 H :    0.400238
   8 H :    0.323368
   9 O :   -0.698575
  10 H :    0.324247
  11 H :    0.374751
  12 O :   -0.721068
  13 H :    0.402019
  14 H :    0.345870
  15 O :   -0.695546
  16 H :    0.364455
  17 H :    0.367792
Sum of atomic charges:    0.0000000

--------------------------------
MULLIKEN REDUCED ORBITAL CHARGES
--------------------------------
  0 O s       :     3.804306  s :     3.804306
      pz      :     1.698444  p :     4.900187
      px      :     1.401526
      py      :     1.800217
      dz2     :     0.009229  d :     0.050508
      dxz     :     0.009636
      dyz     :     0.010934
      dx2y2   :     0.007824
      dxy     :     0.012885
      f0      :     0.000451  f :     0.004013
      f+1     :     0.000677
      f-1     :     0.000543
      f+2     :     0.000439
      f-2     :     0.000715
      f+3     :     0.000464
      f-3     :     0.000724
  1 H s       :     0.604440  s :     0.604440
      pz      :     0.017267  p :     0.047374
      px      :     0.014376
      py      :     0.015731
  2 H s       :     0.552233  s :     0.552233
      pz      :     0.011307  p :     0.058263
      px      :     0.032003
      py      :     0.014953
  3 O s       :     3.803532  s :     3.803532
      pz      :     1.704396  p :     4.894981
      px      :     1.790688
      py      :     1.399897
      dz2     :     0.009508  d :     0.050780
      dxz     :     0.010893
      dyz     :     0.010070
      dx2y2   :     0.007800
      dxy     :     0.012509
      f0      :     0.000456  f :     0.004037
      f+1     :     0.000548
      f-1     :     0.000691
      f+2     :     0.000438
      f-2     :     0.000724
      f+3     :     0.000718
      f-3     :     0.000462
  4 H s       :     0.626664  s :     0.626664
      pz      :     0.017580  p :     0.047978
      px      :     0.016001
      py      :     0.014397
  5 H s       :     0.549138  s :     0.549138
      pz      :     0.011602  p :     0.058564
      px      :     0.014724
      py      :     0.032238
  6 O s       :     3.802488  s :     3.802488
      pz      :     1.590780  p :     4.873315
      px      :     1.420675
      py      :     1.861860
      dz2     :     0.015291  d :     0.050711
      dxz     :     0.007803
      dyz     :     0.008046
      dx2y2   :     0.008540
      dxy     :     0.011030
      f0      :     0.000567  f :     0.004042
      f+1     :     0.000798
      f-1     :     0.000498
      f+2     :     0.000442
      f-2     :     0.000402
      f+3     :     0.000492
      f-3     :     0.000843
  7 H s       :     0.549013  s :     0.549013
      pz      :     0.025296  p :     0.050748
      px      :     0.011726
      py      :     0.013726
  8 H s       :     0.631317  s :     0.631317
      pz      :     0.010883  p :     0.045315
      px      :     0.017973
      py      :     0.016459
  9 O s       :     3.815595  s :     3.815595
      pz      :     1.503698  p :     4.826089
      px      :     1.461654
      py      :     1.860737
      dz2     :     0.017040  d :     0.052851
      dxz     :     0.008347
      dyz     :     0.008177
      dx2y2   :     0.008666
      dxy     :     0.010621
      f0      :     0.000559  f :     0.004039
      f+1     :     0.000819
      f-1     :     0.000497
      f+2     :     0.000436
      f-2     :     0.000404
      f+3     :     0.000488
      f-3     :     0.000836
 10 H s       :     0.628824  s :     0.628824
      pz      :     0.018587  p :     0.046928
      px      :     0.012855
      py      :     0.015487
 11 H s       :     0.580727  s :     0.580727
      pz      :     0.010617  p :     0.044522
      px      :     0.018687
      py      :     0.015218
 12 O s       :     3.792106  s :     3.792106
      pz      :     1.569406  p :     4.872636
      px      :     1.528842
      py      :     1.774388
      dz2     :     0.017006  d :     0.052323
      dxz     :     0.006604
      dyz     :     0.008043
      dx2y2   :     0.008114
      dxy     :     0.012556
      f0      :     0.000612  f :     0.004003
      f+1     :     0.000752
      f-1     :     0.000536
      f+2     :     0.000414
      f-2     :     0.000423
      f+3     :     0.000428
      f-3     :     0.000838
 13 H s       :     0.548777  s :     0.548777
      pz      :     0.025154  p :     0.049204
      px      :     0.011572
      py      :     0.012479
 14 H s       :     0.608506  s :     0.608506
      pz      :     0.011517  p :     0.045623
      px      :     0.018411
      py      :     0.015696
 15 O s       :     3.794972  s :     3.794972
      pz      :     1.518119  p :     4.843532
      px      :     1.776962
      py      :     1.548452
      dz2     :     0.017684  d :     0.053009
      dxz     :     0.008041
      dyz     :     0.006628
      dx2y2   :     0.008144
      dxy     :     0.012513
      f0      :     0.000628  f :     0.004032
      f+1     :     0.000539
      f-1     :     0.000758
      f+2     :     0.000413
      f-2     :     0.000423
      f+3     :     0.000842
      f-3     :     0.000429
 16 H s       :     0.590186  s :     0.590186
      pz      :     0.019501  p :     0.045359
      px      :     0.013491
      py      :     0.012368
 17 H s       :     0.587287  s :     0.587287
      pz      :     0.010941  p :     0.044921
      px      :     0.015328
      py      :     0.018651


                     *******************************
                     * LOEWDIN POPULATION ANALYSIS *
                     *******************************

----------------------
LOEWDIN ATOMIC CHARGES
----------------------
   0 O :   -0.341181
   1 H :    0.154400
   2 H :    0.149783
   3 O :   -0.371891
   4 H :    0.144211
   5 H :    0.150197
   6 O :   -0.325478
   7 H :    0.160885
   8 H :    0.157433
   9 O :   -0.334444
  10 H :    0.153654
  11 H :    0.181043
  12 O :   -0.284529
  13 H :    0.162862
  14 H :    0.165549
  15 O :   -0.269797
  16 H :    0.171503
  17 H :    0.175799

-------------------------------
LOEWDIN REDUCED ORBITAL CHARGES
-------------------------------
  0 O s       :     3.457645  s :     3.457645
      pz      :     1.665749  p :     4.820722
      px      :     1.384152
      py      :     1.770821
      dz2     :     0.010373  d :     0.058048
      dxz     :     0.012336
      dyz     :     0.011426
      dx2y2   :     0.008950
      dxy     :     0.014962
      f0      :     0.000466  f :     0.004767
      f+1     :     0.000843
      f-1     :     0.000646
      f+2     :     0.000411
      f-2     :     0.001024
      f+3     :     0.000472
      f-3     :     0.000905
  1 H s       :     0.677638  s :     0.677638
      pz      :     0.067046  p :     0.167962
      px      :     0.046649
      py      :     0.054267
  2 H s       :     0.653204  s :     0.653204
      pz      :     0.034484  p :     0.197013
      px      :     0.113938
      py      :     0.048592
  3 O s       :     3.464258  s :     3.464258
      pz      :     1.693390  p :     4.845000
      px      :     1.768302
      py      :     1.383308
      dz2     :     0.009825  d :     0.057853
      dxz     :     0.011508
      dyz     :     0.012866
      dx2y2   :     0.008886
      dxy     :     0.014768
      f0      :     0.000452  f :     0.004780
      f+1     :     0.000651
      f-1     :     0.000852
      f+2     :     0.000410
      f-2     :     0.001046
      f+3     :     0.000898
      f-3     :     0.000471
  4 H s       :     0.688143  s :     0.688143
      pz      :     0.066803  p :     0.167645
      px      :     0.054399
      py      :     0.046443
  5 H s       :     0.653151  s :     0.653151
      pz      :     0.034328  p :     0.196652
      px      :     0.048370
      py      :     0.113955
  6 O s       :     3.459880  s :     3.459880
      pz      :     1.551023  p :     4.801588
      px      :     1.430124
      py      :     1.820441
      dz2     :     0.019723  d :     0.059185
      dxz     :     0.008937
      dyz     :     0.007132
      dx2y2   :     0.010213
      dxy     :     0.013181
      f0      :     0.000759  f :     0.004824
      f+1     :     0.001135
      f-1     :     0.000584
      f+2     :     0.000413
      f-2     :     0.000411
      f+3     :     0.000449
      f-3     :     0.001074
  7 H s       :     0.663292  s :     0.663292
      pz      :     0.097105  p :     0.175823
      px      :     0.035864
      py      :     0.042854
  8 H s       :     0.685669  s :     0.685669
      pz      :     0.031898  p :     0.156898
      px      :     0.074469
      py      :     0.050531
  9 O s       :     3.476031  s :     3.476031
      pz      :     1.521544  p :     4.792511
      px      :     1.447997
      py      :     1.822970
      dz2     :     0.021872  d :     0.061012
      dxz     :     0.009904
      dyz     :     0.007226
      dx2y2   :     0.009850
      dxy     :     0.012160
      f0      :     0.000810  f :     0.004891
      f+1     :     0.001199
      f-1     :     0.000589
      f+2     :     0.000417
      f-2     :     0.000414
      f+3     :     0.000445
      f-3     :     0.001017
 10 H s       :     0.685439  s :     0.685439
      pz      :     0.080354  p :     0.160907
      px      :     0.036195
      py      :     0.044359
 11 H s       :     0.662475  s :     0.662475
      pz      :     0.029372  p :     0.156482
      px      :     0.077175
      py      :     0.049935
 12 O s       :     3.450536  s :     3.450536
      pz      :     1.537886  p :     4.768637
      px      :     1.516324
      py      :     1.714427
      dz2     :     0.021107  d :     0.060434
      dxz     :     0.007096
      dyz     :     0.007388
      dx2y2   :     0.009381
      dxy     :     0.015462
      f0      :     0.000825  f :     0.004922
      f+1     :     0.000986
      f-1     :     0.000739
      f+2     :     0.000389
      f-2     :     0.000420
      f+3     :     0.000407
      f-3     :     0.001156
 13 H s       :     0.662105  s :     0.662105
      pz      :     0.096610  p :     0.175034
      px      :     0.036386
      py      :     0.042038
 14 H s       :     0.673216  s :     0.673216
      pz      :     0.032178  p :     0.161235
      px      :     0.073057
      py      :     0.056000
 15 O s       :     3.454338  s :     3.454338
      pz      :     1.508638  p :     4.748775
      px      :     1.716660
      py      :     1.523477
      dz2     :     0.022631  d :     0.061704
      dxz     :     0.007460
      dyz     :     0.007292
      dx2y2   :     0.009307
      dxy     :     0.015014
      f0      :     0.000878  f :     0.004980
      f+1     :     0.000743
      f-1     :     0.001010
      f+2     :     0.000389
      f-2     :     0.000421
      f+3     :     0.001131
      f-3     :     0.000407
 16 H s       :     0.666685  s :     0.666685
      pz      :     0.082943  p :     0.161812
      px      :     0.042534
      py      :     0.036335
 17 H s       :     0.663674  s :     0.663674
      pz      :     0.030425  p :     0.160526
      px      :     0.055920
      py      :     0.074181


                      *****************************
                      * MAYER POPULATION ANALYSIS *
                      *****************************

  NA   - Mulliken gross atomic population
  ZA   - Total nuclear charge
  QA   - Mulliken gross atomic charge
  VA   - Mayer's total valence
  BVA  - Mayer's bonded valence
  FA   - Mayer's free valence

  ATOM       NA         ZA         QA         VA         BVA        FA
  0 O      8.7590     8.0000    -0.7590     2.0158     1.6226     0.3932
  1 H      0.6518     1.0000     0.3482     0.8993     0.8526     0.0466
  2 H      0.6105     1.0000     0.3895     0.8860     0.8398     0.0462
  3 O      8.7533     8.0000    -0.7533     2.0094     1.6178     0.3916
  4 H      0.6746     1.0000     0.3254     0.9144     0.8660     0.0484
  5 H      0.6077     1.0000     0.3923     0.8845     0.8391     0.0454
  6 O      8.7306     8.0000    -0.7306     2.0530     1.6606     0.3924
  7 H      0.5998     1.0000     0.4002     0.8777     0.8347     0.0430
  8 H      0.6766     1.0000     0.3234     0.9207     0.8693     0.0514
  9 O      8.6986     8.0000    -0.6986     2.0785     1.6901     0.3884
 10 H      0.6758     1.0000     0.3242     0.9141     0.8646     0.0495
 11 H      0.6252     1.0000     0.3748     0.8810     0.8347     0.0463
 12 O      8.7211     8.0000    -0.7211     2.0599     1.6723     0.3876
 13 H      0.5980     1.0000     0.4020     0.8694     0.8265     0.0429
 14 H      0.6541     1.0000     0.3459     0.8995     0.8518     0.0477
 15 O      8.6955     8.0000    -0.6955     2.0877     1.7020     0.3857
 16 H      0.6355     1.0000     0.3645     0.8878     0.8418     0.0460
 17 H      0.6322     1.0000     0.3678     0.8853     0.8395     0.0457

  Mayer bond orders larger than 0.100000
B(  0-O ,  1-H ) :   0.8451 B(  0-O ,  2-H ) :   0.7717 B(  3-O ,  4-H ) :   0.8605 
B(  3-O ,  5-H ) :   0.7761 B(  6-O ,  7-H ) :   0.7895 B(  6-O ,  8-H ) :   0.8526 
B(  9-O , 10-H ) :   0.8581 B(  9-O , 11-H ) :   0.8228 B( 12-O , 13-H ) :   0.7923 
B( 12-O , 14-H ) :   0.8451 B( 15-O , 16-H ) :   0.8326 B( 15-O , 17-H ) :   0.8300 



                *******************************************
                * RELAXED MP2 DENSITY POPULATION ANALYSIS *
                *******************************************

------------------------------------------------------------------------------
                           ORCA POPULATION ANALYSIS
------------------------------------------------------------------------------
Input electron density              ... 12h2o.su.etal.mol0,2,6,7,8,11-orca.engrad-mp2.def2tzvp.frozencore.pmp2re
BaseName (.gbw .S,...)              ... 12h2o.su.etal.mol0,2,6,7,8,11-orca.engrad-mp2.def2tzvp.frozencore

                    ********************************
                    * MULLIKEN POPULATION ANALYSIS *
                    ********************************

-----------------------
MULLIKEN ATOMIC CHARGES
-----------------------
   0 O :   -0.734960
   1 H :    0.341579
   2 H :    0.368187
   3 O :   -0.734850
   4 H :    0.319447
   5 H :    0.370342
   6 O :   -0.707057
   7 H :    0.382472
   8 H :    0.315404
   9 O :   -0.683259
  10 H :    0.318415
  11 H :    0.365596
  12 O :   -0.694943
  13 H :    0.387436
  14 H :    0.340155
  15 O :   -0.672495
  16 H :    0.357830
  17 H :    0.360703
Sum of atomic charges:    0.0000000

--------------------------------
MULLIKEN REDUCED ORBITAL CHARGES
--------------------------------
  0 O s       :     3.806086  s :     3.806086
      pz      :     1.687214  p :     4.876307
      px      :     1.393818
      py      :     1.795276
      dz2     :     0.009062  d :     0.048620
      dxz     :     0.009073
      dyz     :     0.010623
      dx2y2   :     0.007710
      dxy     :     0.012153
      f0      :     0.000449  f :     0.003946
      f+1     :     0.000659
      f-1     :     0.000535
      f+2     :     0.000439
      f-2     :     0.000695
      f+3     :     0.000462
      f-3     :     0.000707
  1 H s       :     0.610294  s :     0.610294
      pz      :     0.017367  p :     0.048127
      px      :     0.014391
      py      :     0.016369
  2 H s       :     0.573271  s :     0.573271
      pz      :     0.012047  p :     0.058542
      px      :     0.030993
      py      :     0.015501
  3 O s       :     3.804874  s :     3.804874
      pz      :     1.698699  p :     4.877146
      px      :     1.785064
      py      :     1.393382
      dz2     :     0.009306  d :     0.048859
      dxz     :     0.010572
      dyz     :     0.009498
      dx2y2   :     0.007680
      dxy     :     0.011803
      f0      :     0.000453  f :     0.003972
      f+1     :     0.000540
      f-1     :     0.000674
      f+2     :     0.000438
      f-2     :     0.000705
      f+3     :     0.000700
      f-3     :     0.000460
  4 H s       :     0.631760  s :     0.631760
      pz      :     0.017705  p :     0.048793
      px      :     0.016665
      py      :     0.014423
  5 H s       :     0.570872  s :     0.570872
      pz      :     0.012378  p :     0.058786
      px      :     0.015246
      py      :     0.031162
  6 O s       :     3.803712  s :     3.803712
      pz      :     1.581444  p :     4.850865
      px      :     1.412906
      py      :     1.856515
      dz2     :     0.014244  d :     0.048510
      dxz     :     0.007537
      dyz     :     0.008062
      dx2y2   :     0.008221
      dxy     :     0.010446
      f0      :     0.000556  f :     0.003970
      f+1     :     0.000768
      f-1     :     0.000491
      f+2     :     0.000442
      f-2     :     0.000400
      f+3     :     0.000491
      f-3     :     0.000822
  7 H s       :     0.566245  s :     0.566245
      pz      :     0.024627  p :     0.051283
      px      :     0.012098
      py      :     0.014558
  8 H s       :     0.638340  s :     0.638340
      pz      :     0.011739  p :     0.046257
      px      :     0.017116
      py      :     0.017402
  9 O s       :     3.821050  s :     3.821050
      pz      :     1.496268  p :     4.807741
      px      :     1.456801
      py      :     1.854672
      dz2     :     0.015728  d :     0.050503
      dxz     :     0.008066
      dyz     :     0.008231
      dx2y2   :     0.008354
      dxy     :     0.010124
      f0      :     0.000544  f :     0.003965
      f+1     :     0.000789
      f-1     :     0.000491
      f+2     :     0.000436
      f-2     :     0.000402
      f+3     :     0.000487
      f-3     :     0.000815
 10 H s       :     0.633817  s :     0.633817
      pz      :     0.017931  p :     0.047768
      px      :     0.013294
      py      :     0.016543
 11 H s       :     0.589275  s :     0.589275
      pz      :     0.011322  p :     0.045129
      px      :     0.017881
      py      :     0.015927
 12 O s       :     3.792340  s :     3.792340
      pz      :     1.567074  p :     4.848299
      px      :     1.522143
      py      :     1.759081
      dz2     :     0.015845  d :     0.050375
      dxz     :     0.006573
      dyz     :     0.008032
      dx2y2   :     0.008074
      dxy     :     0.011852
      f0      :     0.000595  f :     0.003930
      f+1     :     0.000730
      f-1     :     0.000527
      f+2     :     0.000415
      f-2     :     0.000421
      f+3     :     0.000428
      f-3     :     0.000813
 13 H s       :     0.563003  s :     0.563003
      pz      :     0.024359  p :     0.049562
      px      :     0.011970
      py      :     0.013233
 14 H s       :     0.613489  s :     0.613489
      pz      :     0.012251  p :     0.046356
      px      :     0.017840
      py      :     0.016265
 15 O s       :     3.797311  s :     3.797311
      pz      :     1.513634  p :     4.820345
      px      :     1.761820
      py      :     1.544890
      dz2     :     0.016327  d :     0.050885
      dxz     :     0.008030
      dyz     :     0.006578
      dx2y2   :     0.008102
      dxy     :     0.011848
      f0      :     0.000609  f :     0.003955
      f+1     :     0.000530
      f-1     :     0.000736
      f+2     :     0.000413
      f-2     :     0.000421
      f+3     :     0.000817
      f-3     :     0.000429
 16 H s       :     0.596203  s :     0.596203
      pz      :     0.018738  p :     0.045967
      px      :     0.014338
      py      :     0.012891
 17 H s       :     0.593802  s :     0.593802
      pz      :     0.011589  p :     0.045495
      px      :     0.015779
      py      :     0.018128


                     *******************************
                     * LOEWDIN POPULATION ANALYSIS *
                     *******************************

----------------------
LOEWDIN ATOMIC CHARGES
----------------------
   0 O :   -0.338490
   1 H :    0.156250
   2 H :    0.142826
   3 O :   -0.374208
   4 H :    0.146173
   5 H :    0.142990
   6 O :   -0.323228
   7 H :    0.156096
   8 H :    0.158202
   9 O :   -0.336242
  10 H :    0.155554
  11 H :    0.181441
  12 O :   -0.278739
  13 H :    0.158942
  14 H :    0.167454
  15 O :   -0.264540
  16 H :    0.172582
  17 H :    0.176937

-------------------------------
LOEWDIN REDUCED ORBITAL CHARGES
-------------------------------
  0 O s       :     3.459155  s :     3.459155
      pz      :     1.660176  p :     4.817145
      px      :     1.387594
      py      :     1.769375
      dz2     :     0.010408  d :     0.057386
      dxz     :     0.011996
      dyz     :     0.011363
      dx2y2   :     0.008941
      dxy     :     0.014677
      f0      :     0.000469  f :     0.004804
      f+1     :     0.000854
      f-1     :     0.000648
      f+2     :     0.000412
      f-2     :     0.001025
      f+3     :     0.000477
      f-3     :     0.000920
  1 H s       :     0.675734  s :     0.675734
      pz      :     0.066979  p :     0.168015
      px      :     0.046169
      py      :     0.054867
  2 H s       :     0.659867  s :     0.659867
      pz      :     0.035079  p :     0.197306
      px      :     0.113034
      py      :     0.049193
  3 O s       :     3.465843  s :     3.465843
      pz      :     1.692985  p :     4.846524
      px      :     1.766772
      py      :     1.386767
      dz2     :     0.009775  d :     0.057023
      dxz     :     0.011404
      dyz     :     0.012484
      dx2y2   :     0.008872
      dxy     :     0.014488
      f0      :     0.000454  f :     0.004818
      f+1     :     0.000652
      f-1     :     0.000865
      f+2     :     0.000411
      f-2     :     0.001047
      f+3     :     0.000914
      f-3     :     0.000475
  4 H s       :     0.685809  s :     0.685809
      pz      :     0.066931  p :     0.168017
      px      :     0.055030
      py      :     0.046056
  5 H s       :     0.660210  s :     0.660210
      pz      :     0.035032  p :     0.196800
      px      :     0.048934
      py      :     0.112834
  6 O s       :     3.460962  s :     3.460962
      pz      :     1.548660  p :     4.799308
      px      :     1.432998
      py      :     1.817650
      dz2     :     0.019339  d :     0.058114
      dxz     :     0.008747
      dyz     :     0.007198
      dx2y2   :     0.009983
      dxy     :     0.012846
      f0      :     0.000763  f :     0.004845
      f+1     :     0.001144
      f-1     :     0.000584
      f+2     :     0.000415
      f-2     :     0.000410
      f+3     :     0.000451
      f-3     :     0.001079
  7 H s       :     0.667929  s :     0.667929
      pz      :     0.096502  p :     0.175975
      px      :     0.035764
      py      :     0.043709
  8 H s       :     0.684267  s :     0.684267
      pz      :     0.032484  p :     0.157531
      px      :     0.073616
      py      :     0.051431
  9 O s       :     3.478488  s :     3.478488
      pz      :     1.522440  p :     4.793211
      px      :     1.451012
      py      :     1.819759
      dz2     :     0.021129  d :     0.059636
      dxz     :     0.009636
      dyz     :     0.007307
      dx2y2   :     0.009642
      dxy     :     0.011924
      f0      :     0.000806  f :     0.004907
      f+1     :     0.001209
      f-1     :     0.000588
      f+2     :     0.000419
      f-2     :     0.000412
      f+3     :     0.000447
      f-3     :     0.001025
 10 H s       :     0.683106  s :     0.683106
      pz      :     0.079949  p :     0.161340
      px      :     0.036072
      py      :     0.045319
 11 H s       :     0.662269  s :     0.662269
      pz      :     0.029759  p :     0.156290
      px      :     0.075980
      py      :     0.050552
 12 O s       :     3.451471  s :     3.451471
      pz      :     1.539688  p :     4.762725
      px      :     1.517912
      py      :     1.705125
      dz2     :     0.020608  d :     0.059601
      dxz     :     0.006989
      dyz     :     0.007434
      dx2y2   :     0.009435
      dxy     :     0.015135
      f0      :     0.000828  f :     0.004943
      f+1     :     0.000992
      f-1     :     0.000740
      f+2     :     0.000391
      f-2     :     0.000420
      f+3     :     0.000408
      f-3     :     0.001163
 13 H s       :     0.665885  s :     0.665885
      pz      :     0.095804  p :     0.175173
      px      :     0.036673
      py      :     0.042696
 14 H s       :     0.671095  s :     0.671095
      pz      :     0.032653  p :     0.161451
      px      :     0.072336
      py      :     0.056462
 15 O s       :     3.455715  s :     3.455715
      pz      :     1.510827  p :     4.743180
      px      :     1.706993
      py      :     1.525359
      dz2     :     0.021902  d :     0.060649
      dxz     :     0.007499
      dyz     :     0.007158
      dx2y2   :     0.009359
      dxy     :     0.014730
      f0      :     0.000877  f :     0.004996
      f+1     :     0.000743
      f-1     :     0.001017
      f+2     :     0.000391
      f-2     :     0.000421
      f+3     :     0.001138
      f-3     :     0.000409
 16 H s       :     0.665603  s :     0.665603
      pz      :     0.082075  p :     0.161815
      px      :     0.043240
      py      :     0.036501
 17 H s       :     0.662674  s :     0.662674
      pz      :     0.030734  p :     0.160389
      px      :     0.056285
      py      :     0.073370


                      *****************************
                      * MAYER POPULATION ANALYSIS *
                      *****************************

  NA   - Mulliken gross atomic population
  ZA   - Total nuclear charge
  QA   - Mulliken gross atomic charge
  VA   - Mayer's total valence
  BVA  - Mayer's bonded valence
  FA   - Mayer's free valence

  ATOM       NA         ZA         QA         VA         BVA        FA
  0 O      8.7350     8.0000    -0.7350     2.0389     1.6512     0.3876
  1 H      0.6584     1.0000     0.3416     0.9037     0.8570     0.0467
  2 H      0.6318     1.0000     0.3682     0.9116     0.8661     0.0455
  3 O      8.7349     8.0000    -0.7349     2.0160     1.6291     0.3869
  4 H      0.6806     1.0000     0.3194     0.9178     0.8694     0.0485
  5 H      0.6297     1.0000     0.3703     0.9115     0.8667     0.0448
  6 O      8.7071     8.0000    -0.7071     2.0801     1.6936     0.3865
  7 H      0.6175     1.0000     0.3825     0.9017     0.8593     0.0424
  8 H      0.6846     1.0000     0.3154     0.9296     0.8786     0.0510
  9 O      8.6833     8.0000    -0.6833     2.0869     1.7039     0.3830
 10 H      0.6816     1.0000     0.3184     0.9185     0.8689     0.0496
 11 H      0.6344     1.0000     0.3656     0.8905     0.8444     0.0461
 12 O      8.6949     8.0000    -0.6949     2.0953     1.7137     0.3817
 13 H      0.6126     1.0000     0.3874     0.8895     0.8470     0.0425
 14 H      0.6598     1.0000     0.3402     0.9038     0.8561     0.0478
 15 O      8.6725     8.0000    -0.6725     2.1176     1.7377     0.3799
 16 H      0.6422     1.0000     0.3578     0.8943     0.8483     0.0459
 17 H      0.6393     1.0000     0.3607     0.8921     0.8465     0.0456

  Mayer bond orders larger than 0.100000
B(  0-O ,  1-H ) :   0.8482 B(  0-O ,  2-H ) :   0.7716 B(  3-O ,  4-H ) :   0.8634 
B(  3-O ,  5-H ) :   0.7784 B(  6-O ,  7-H ) :   0.7940 B(  6-O ,  8-H ) :   0.8542 
B(  9-O , 10-H ) :   0.8614 B(  9-O , 11-H ) :   0.8273 B( 12-O , 13-H ) :   0.7966 
B( 12-O , 14-H ) :   0.8477 B( 15-O , 16-H ) :   0.8360 B( 15-O , 17-H ) :   0.8336 



----------------------------------
MP2 DERIVATIVE INTEGRAL GENERATION
----------------------------------


Input Wavefunction Amplitudes       ... 12h2o.su.etal.mol0,2,6,7,8,11-orca.engrad-mp2.def2tzvp.frozencore.mp2tsaa.tmp
Input Correlated Electron Density   ... 12h2o.su.etal.mol0,2,6,7,8,11-orca.engrad-mp2.def2tzvp.frozencore.pmp2re
Input Energy Weighted Density       ... 12h2o.su.etal.mol0,2,6,7,8,11-orca.engrad-mp2.def2tzvp.frozencore.wmp2.tmp
Input SCF Electron Density          ... 12h2o.su.etal.mol0,2,6,7,8,11-orca.engrad-mp2.def2tzvp.frozencore.scfp

One-Electron Terms    ...
                        ... One-Electron Terms done
Prescreening matrices              ... done

Batch handling in the gradient evaluation:
Memory available                      ... 8000.0 MB
Memory per occupied orbital in Q2     ...   12.2 MB
Memory per occupied orbital in Q3     ...    0.1 MB
Total memory requirement per |i>      ...   12.3 MB
Max. Number of orbitals possible      ...    651
Number of orbitals treated per batch  ...     24
Number of batches to be done          ...      1
Batch   0: i=    6 ...    29

---------------------------------------
MP2 TOTAL ENERGY:     -457.913206901 Eh
---------------------------------------

The final MP2 gradient
  0:   0.00819134  -0.00600201   0.00257349
  1:   0.00068168  -0.00021049  -0.00078825
  2:  -0.01699365   0.00607991  -0.00347038
  3:  -0.00278867  -0.00840230  -0.00017919
  4:  -0.00018814  -0.00206980  -0.00066997
  5:   0.00530011   0.01777195   0.00009994
  6:   0.01794630  -0.01260401   0.00398697
  7:   0.00148910   0.00386937  -0.00312636
  8:  -0.01760184   0.01003596   0.00007107
  9:  -0.01380045   0.00316038  -0.01428524
 10:  -0.00236993   0.00134677   0.00969867
 11:   0.01441402  -0.00556695   0.00513579
 12:   0.00743334  -0.01291551   0.00111371
 13:  -0.00058945   0.00210082  -0.00289936
 14:  -0.00913087   0.00517471   0.00087594
 15:   0.00940703   0.00588077   0.00919385
 16:   0.00212658   0.00032812  -0.00683313
 17:  -0.00352651  -0.00797770  -0.00049753

-----------------------------------
NORM OF THE MP2 GRADIENT:  0.057131
-----------------------------------

-------------------------   --------------------
FINAL SINGLE POINT ENERGY      -457.913206901350
-------------------------   --------------------


                            ***************************************
                            *     ORCA property calculations      *
                            ***************************************

                                    ---------------------
                                    Active property flags
                                    ---------------------
   (+) Dipole Moment


------------------------------------------------------------------------------
                       ORCA ELECTRIC PROPERTIES CALCULATION
------------------------------------------------------------------------------

Dipole Moment Calculation                       ... on
Quadrupole Moment Calculation                   ... off
Polarizability Calculation                      ... off
GBWName                                         ... 12h2o.su.etal.mol0,2,6,7,8,11-orca.engrad-mp2.def2tzvp.frozencore.gbw
Electron density file                           ... 12h2o.su.etal.mol0,2,6,7,8,11-orca.engrad-mp2.def2tzvp.frozencore.scfp
The origin for moment calculation is the CENTER OF MASS  = ( 1.160530,  0.534309 -0.000429)

-------------
DIPOLE MOMENT
-------------
                                X             Y             Z
Electronic contribution:     -0.01036       0.16975       0.17962
Nuclear contribution   :     -0.65046       1.09882       1.54856
                        -----------------------------------------
Total Dipole Moment    :     -0.66082       1.26857       1.72818
                        -----------------------------------------
Magnitude (a.u.)       :      2.24333
Magnitude (Debye)      :      5.70210



--------------------
Rotational spectrum 
--------------------
 
Rotational constants in cm-1:     0.058793     0.023317     0.018929 
Rotational constants in MHz :  1762.578557   699.030488   567.488953 

 Dipole components along the rotational axes: 
x,y,z [a.u.] :     2.132900     0.050162    -0.693372 
x,y,z [Debye]:     5.421402     0.127502    -1.762411 

 

                         *** MP2 UNRELAXED DENSITY ***

------------------------------------------------------------------------------
                       ORCA ELECTRIC PROPERTIES CALCULATION
------------------------------------------------------------------------------

Dipole Moment Calculation                       ... on
Quadrupole Moment Calculation                   ... off
Polarizability Calculation                      ... off
GBWName                                         ... 12h2o.su.etal.mol0,2,6,7,8,11-orca.engrad-mp2.def2tzvp.frozencore.gbw
Electron density file                           ... 12h2o.su.etal.mol0,2,6,7,8,11-orca.engrad-mp2.def2tzvp.frozencore.pmp2ur
The origin for moment calculation is the CENTER OF MASS  = ( 1.160530,  0.534309 -0.000429)

-------------
DIPOLE MOMENT
-------------
                                X             Y             Z
Electronic contribution:     -0.00484       0.16050       0.16838
Nuclear contribution   :     -0.65046       1.09882       1.54856
                        -----------------------------------------
Total Dipole Moment    :     -0.65529       1.25932       1.71694
                        -----------------------------------------
Magnitude (a.u.)       :      2.22782
Magnitude (Debye)      :      5.66266



--------------------
Rotational spectrum 
--------------------
 
Rotational constants in cm-1:     0.058793     0.023317     0.018929 
Rotational constants in MHz :  1762.578557   699.030488   567.488953 

 Dipole components along the rotational axes: 
x,y,z [a.u.] :     2.118505     0.049193    -0.687514 
x,y,z [Debye]:     5.384813     0.125039    -1.747522 

 

                           *** MP2 RELAXED DENSITY ***

------------------------------------------------------------------------------
                       ORCA ELECTRIC PROPERTIES CALCULATION
------------------------------------------------------------------------------

Dipole Moment Calculation                       ... on
Quadrupole Moment Calculation                   ... off
Polarizability Calculation                      ... off
GBWName                                         ... 12h2o.su.etal.mol0,2,6,7,8,11-orca.engrad-mp2.def2tzvp.frozencore.gbw
Electron density file                           ... 12h2o.su.etal.mol0,2,6,7,8,11-orca.engrad-mp2.def2tzvp.frozencore.pmp2re
The origin for moment calculation is the CENTER OF MASS  = ( 1.160530,  0.534309 -0.000429)

-------------
DIPOLE MOMENT
-------------
                                X             Y             Z
Electronic contribution:     -0.01828       0.15226       0.16791
Nuclear contribution   :     -0.65046       1.09882       1.54856
                        -----------------------------------------
Total Dipole Moment    :     -0.66873       1.25108       1.71646
                        -----------------------------------------
Magnitude (a.u.)       :      2.22680
Magnitude (Debye)      :      5.66008



--------------------
Rotational spectrum 
--------------------
 
Rotational constants in cm-1:     0.058793     0.023317     0.018929 
Rotational constants in MHz :  1762.578557   699.030488   567.488953 

 Dipole components along the rotational axes: 
x,y,z [a.u.] :     2.117307     0.064893    -0.686622 
x,y,z [Debye]:     5.381768     0.164945    -1.745254 

 

Timings for individual modules:

Sum of individual times         ...       83.144 sec (=   1.386 min)
GTO integral calculation        ...        1.933 sec (=   0.032 min)   2.3 %
SCF iterations                  ...       16.804 sec (=   0.280 min)  20.2 %
MP2 module                      ...       64.406 sec (=   1.073 min)  77.5 %
                             ****ORCA TERMINATED NORMALLY****
TOTAL RUN TIME: 0 days 0 hours 1 minutes 25 seconds 198 msec
