
                                 *****************
                                 * O   R   C   A *
                                 *****************

           --- An Ab Initio, DFT and Semiempirical electronic structure package ---

                  #######################################################
                  #                        -***-                        #
                  #          Department of theory and spectroscopy      #
                  #               Directorship: Frank Neese             #
                  #        Max Planck Institute fuer Kohlenforschung    #
                  #                Kaiser Wilhelm Platz 1               #
                  #                 D-45470 Muelheim/Ruhr               #
                  #                      Germany                        #
                  #                                                     #
                  #                  All rights reserved                #
                  #                        -***-                        #
                  #######################################################


                         Program Version 4.2.0 -  RELEASE  -


 With contributions from (in alphabetic order):
   Daniel Aravena         : Magnetic Suceptibility
   Michael Atanasov       : Ab Initio Ligand Field Theory (pilot matlab implementation)
   Alexander A. Auer      : GIAO ZORA, VPT2
   Ute Becker             : Parallelization
   Giovanni Bistoni       : ED, misc. LED, open-shell LED, HFLED
   Martin Brehm           : Molecular dynamics
   Dmytro Bykov           : SCF Hessian
   Vijay G. Chilkuri      : MRCI spin determinant printing, contributions to CSF-ICE
   Dipayan Datta          : RHF DLPNO-CCSD density
   Achintya Kumar Dutta   : EOM-CC, STEOM-CC
   Dmitry Ganyushin       : Spin-Orbit,Spin-Spin,Magnetic field MRCI
   Miquel Garcia          : C-PCM Hessian, Gaussian charge scheme
   Yang Guo               : DLPNO-NEVPT2, CIM, IAO-localization
   Andreas Hansen         : Spin unrestricted coupled pair/coupled cluster methods
   Benjamin Helmich-Paris : CASSCF linear response (MC-RPA)
   Lee Huntington         : MR-EOM, pCC
   Robert Izsak           : Overlap fitted RIJCOSX, COSX-SCS-MP3, EOM
   Christian Kollmar      : KDIIS, OOCD, Brueckner-CCSD(T), CCSD density
   Simone Kossmann        : Meta GGA functionals, TD-DFT gradient, OOMP2, MP2 Hessian
   Martin Krupicka        : AUTO-CI
   Lucas Lang             : DCDCAS
   Dagmar Lenk            : GEPOL surface, SMD
   Dimitrios Liakos       : Extrapolation schemes; Compound Job, initial MDCI parallelization
   Dimitrios Manganas     : Further ROCIS development; embedding schemes
   Dimitrios Pantazis     : SARC Basis sets
   Taras Petrenko         : DFT Hessian,TD-DFT gradient, ASA, ECA, R-Raman, ABS, FL, XAS/XES, NRVS
   Peter Pinski           : DLPNO-MP2, DLPNO-MP2 Gradient
   Christoph Reimann      : Effective Core Potentials
   Marius Retegan         : Local ZFS, SOC
   Christoph Riplinger    : Optimizer, TS searches, QM/MM, DLPNO-CCSD(T), (RO)-DLPNO pert. Triples
   Tobias Risthaus        : Range-separated hybrids, TD-DFT gradient, RPA, STAB
   Michael Roemelt        : Original ROCIS implementation
   Masaaki Saitow         : Open-shell DLPNO-CCSD energy and density
   Barbara Sandhoefer     : DKH picture change effects
   Avijit Sen             : IP-ROCIS
   Kantharuban Sivalingam : CASSCF convergence, NEVPT2, FIC-MRCI
   Bernardo de Souza      : ESD, SOC TD-DFT
   Georgi Stoychev        : AutoAux, RI-MP2 NMR
   Willem Van den Heuvel  : Paramagnetic NMR
   Boris Wezisla          : Elementary symmetry handling
   Frank Wennmohs         : Technical directorship


 We gratefully acknowledge several colleagues who have allowed us to
 interface, adapt or use parts of their codes:
   Stefan Grimme, W. Hujo, H. Kruse,             : VdW corrections, initial TS optimization,
                  C. Bannwarth                     DFT functionals, gCP, sTDA/sTD-DF
   Ed Valeev, F. Pavosevic, A. Kumar             : LibInt (2-el integral package), F12 methods
   Garnet Chan, S. Sharma, J. Yang, R. Olivares  : DMRG
   Ulf Ekstrom                                   : XCFun DFT Library
   Mihaly Kallay                                 : mrcc  (arbitrary order and MRCC methods)
   Andreas Klamt, Michael Diedenhofen            : otool_cosmo (COSMO solvation model)
   Jiri Pittner, Ondrej Demel                    : Mk-CCSD
   Frank Weinhold                                : gennbo (NPA and NBO analysis)
   Christopher J. Cramer and Donald G. Truhlar   : smd solvation model
   Lars Goerigk                                  : TD-DFT with DH, B97 family of functionals
   V. Asgeirsson, H. Jonsson                     : NEB implementation
   FAccTs GmbH                                   : IRC, NEB, NEB-TS, Multilevel, MM, QM/MM, CI optimization
   S Lehtola, MJT Oliveira, MAL Marques          : LibXC Library


 Your calculation uses the libint2 library for the computation of 2-el integrals
 For citations please refer to: http://libint.valeyev.net

 Your ORCA version has been built with support for libXC version: 4.2.3
 For citations please refer to: https://tddft.org/programs/libxc/

 This ORCA versions uses:
   CBLAS   interface :  Fast vector & matrix operations
   LAPACKE interface :  Fast linear algebra routines
   SCALAPACK package :  Parallel linear algebra routines


----- Orbital basis set information -----
Your calculation utilizes the basis: def2-TZVP
   F. Weigend and R. Ahlrichs, Phys. Chem. Chem. Phys. 7, 3297 (2005).

================================================================================
                                        WARNINGS
                       Please study these warnings very carefully!
================================================================================


WARNING: The frozen-core approximation for MP2-gradient calculations is turned on by default.

INFO   : the flag for use of LIBINT has been found!

================================================================================
                                       INPUT FILE
================================================================================
NAME = 12h2o.su.etal.mol1,2,3,4,6,7,10,11-orca.engrad-mp2.def2tzvp.frozencore.inp
|  1> # 12h2o.su.etal.mol1,2,3,4,6,7,10,11
|  2> ! MP2 def2-TZVP EnGrad TightSCF
|  3> 
|  4> %pal
|  5>     nprocs 6
|  6> end
|  7> 
|  8> %maxcore 8000
|  9> 
| 10> %scf
| 11>     ConvForced true
| 12> end
| 13> 
| 14> *xyz 0 1
| 15> O  -1.794470000  -0.923410000   2.768350000
| 16> H  -2.338250000  -1.359750000   3.430940000
| 17> H  -0.879480000  -1.303000000   2.865760000
| 18> O   0.923410000  -1.794470000  -2.768350000
| 19> H   1.359750000  -2.338250000  -3.430940000
| 20> H   1.303000000  -0.879480000  -2.865760000
| 21> O  -1.752130000  -0.741530000  -2.896280000
| 22> H  -2.036450000  -0.920500000  -1.984040000
| 23> H  -0.921210000  -1.242140000  -2.984230000
| 24> O  -0.885520000   1.737840000   0.052730000
| 25> H  -1.032320000   2.090180000  -0.841890000
| 26> H  -1.284090000   0.839590000   0.017130000
| 27> O   1.737840000   0.885520000  -0.052730000
| 28> H   2.090180000   1.032320000   0.841890000
| 29> H   0.839590000   1.284090000  -0.017130000
| 30> O  -1.737840000  -0.885520000  -0.052730000
| 31> H  -2.090180000  -1.032320000   0.841890000
| 32> H  -0.839590000  -1.284090000  -0.017130000
| 33> O  -0.923410000   1.794470000  -2.768350000
| 34> H  -1.359750000   2.338250000  -3.430940000
| 35> H  -1.303000000   0.879480000  -2.865760000
| 36> O  -0.741530000   1.752130000   2.896280000
| 37> H  -0.920500000   2.036450000   1.984040000
| 38> H  -1.242140000   0.921210000   2.984230000
| 39> *
| 40> 
| 41>                          ****END OF INPUT****
================================================================================

                     *******************************
                     * Energy+Gradient Calculation *
                     *******************************

---------------------------------
CARTESIAN COORDINATES (ANGSTROEM)
---------------------------------
  O     -1.794470   -0.923410    2.768350
  H     -2.338250   -1.359750    3.430940
  H     -0.879480   -1.303000    2.865760
  O      0.923410   -1.794470   -2.768350
  H      1.359750   -2.338250   -3.430940
  H      1.303000   -0.879480   -2.865760
  O     -1.752130   -0.741530   -2.896280
  H     -2.036450   -0.920500   -1.984040
  H     -0.921210   -1.242140   -2.984230
  O     -0.885520    1.737840    0.052730
  H     -1.032320    2.090180   -0.841890
  H     -1.284090    0.839590    0.017130
  O      1.737840    0.885520   -0.052730
  H      2.090180    1.032320    0.841890
  H      0.839590    1.284090   -0.017130
  O     -1.737840   -0.885520   -0.052730
  H     -2.090180   -1.032320    0.841890
  H     -0.839590   -1.284090   -0.017130
  O     -0.923410    1.794470   -2.768350
  H     -1.359750    2.338250   -3.430940
  H     -1.303000    0.879480   -2.865760
  O     -0.741530    1.752130    2.896280
  H     -0.920500    2.036450    1.984040
  H     -1.242140    0.921210    2.984230

----------------------------
CARTESIAN COORDINATES (A.U.)
----------------------------
  NO LB      ZA    FRAG     MASS         X           Y           Z
   0 O     8.0000    0    15.999   -3.391057   -1.744992    5.231423
   1 H     1.0000    0     1.008   -4.418652   -2.569555    6.483537
   2 H     1.0000    0     1.008   -1.661976   -2.462313    5.415502
   3 O     8.0000    0    15.999    1.744992   -3.391057   -5.231423
   4 H     1.0000    0     1.008    2.569555   -4.418652   -6.483537
   5 H     1.0000    0     1.008    2.462313   -1.661976   -5.415502
   6 O     8.0000    0    15.999   -3.311046   -1.401289   -5.473176
   7 H     1.0000    0     1.008   -3.848333   -1.739493   -3.749292
   8 H     1.0000    0     1.008   -1.740835   -2.347304   -5.639377
   9 O     8.0000    0    15.999   -1.673390    3.284042    0.099645
  10 H     1.0000    0     1.008   -1.950802    3.949868   -1.590942
  11 H     1.0000    0     1.008   -2.426578    1.586595    0.032371
  12 O     8.0000    0    15.999    3.284042    1.673390   -0.099645
  13 H     1.0000    0     1.008    3.949868    1.950802    1.590942
  14 H     1.0000    0     1.008    1.586595    2.426578   -0.032371
  15 O     8.0000    0    15.999   -3.284042   -1.673390   -0.099645
  16 H     1.0000    0     1.008   -3.949868   -1.950802    1.590942
  17 H     1.0000    0     1.008   -1.586595   -2.426578   -0.032371
  18 O     8.0000    0    15.999   -1.744992    3.391057   -5.231423
  19 H     1.0000    0     1.008   -2.569555    4.418652   -6.483537
  20 H     1.0000    0     1.008   -2.462313    1.661976   -5.415502
  21 O     8.0000    0    15.999   -1.401289    3.311046    5.473176
  22 H     1.0000    0     1.008   -1.739493    3.848333    3.749292
  23 H     1.0000    0     1.008   -2.347304    1.740835    5.639377

--------------------------------
INTERNAL COORDINATES (ANGSTROEM)
--------------------------------
 O      0   0   0     0.000000000000     0.00000000     0.00000000
 H      1   0   0     0.961828878803     0.00000000     0.00000000
 H      1   2   0     0.995381322057   106.21731035     0.00000000
 O      3   1   2     5.935920367146   102.58474291   140.89009172
 H      4   3   1     0.961828878803   146.97742434   224.01286022
 H      4   3   1     0.995381322057    97.62005672    87.72090689
 O      4   3   1     2.878117964938    74.30903121   359.04191204
 H      7   4   3     0.972136791249    99.37069922   345.64431536
 H      7   4   3     0.974050112161    12.30570018   233.12878636
 O      8   7   4     3.541164138161   107.84672602    83.70571148
 H     10   8   7     0.972645187106    72.17296994    29.09453504
 H     10   8   7     0.983350632989    33.04029707   190.88793319
 O     10   8   7     2.760360281485    93.15949665   286.74623630
 H     13  10   8     0.972645187106   105.22009255   219.29662971
 H     13  10   8     0.983350632989     5.92595386   143.65078242
 O     12  10   8     1.785153773264   170.81379649    88.00403199
 H     16  12  10     0.972645187106   101.65007623   109.44492584
 H     16  12  10     0.983350632989    99.09581498     3.33484705
 O     11  10   8     1.952064016317   147.60984291   322.52183969
 H     19  11  10     0.961828878803   124.67322417   165.49513251
 H     19  11  10     0.995381322057   102.38931089    45.51897547
 O     10   8   7     2.847229166523   126.48630953   195.00328214
 H     22  10   8     0.972136791249    19.08819947   226.21746260
 H     22  10   8     0.974050112161    93.43428486   350.31374249

---------------------------
INTERNAL COORDINATES (A.U.)
---------------------------
 O      0   0   0     0.000000000000     0.00000000     0.00000000
 H      1   0   0     1.817593168635     0.00000000     0.00000000
 H      1   2   0     1.880998097508   106.21731035     0.00000000
 O      3   1   2    11.217263846671   102.58474291   140.89009172
 H      4   3   1     1.817593168635   146.97742434   224.01286022
 H      4   3   1     1.880998097508    97.62005672    87.72090689
 O      4   3   1     5.438854734852    74.30903121   359.04191204
 H      7   4   3     1.837072300170    99.37069922   345.64431536
 H      7   4   3     1.840687952699    12.30570018   233.12878636
 O      8   7   4     6.691830416388   107.84672602    83.70571148
 H     10   8   7     1.838033029106    72.17296994    29.09453504
 H     10   8   7     1.858263389967    33.04029707   190.88793319
 O     10   8   7     5.216324962960    93.15949665   286.74623630
 H     13  10   8     1.838033029106   105.22009255   219.29662971
 H     13  10   8     1.858263389967     5.92595386   143.65078242
 O     12  10   8     3.373451738406   170.81379649    88.00403199
 H     16  12  10     1.838033029106   101.65007623   109.44492584
 H     16  12  10     1.858263389967    99.09581498     3.33484705
 O     11  10   8     3.688866386722   147.60984291   322.52183969
 H     19  11  10     1.817593168635   124.67322417   165.49513251
 H     19  11  10     1.880998097508   102.38931089    45.51897547
 O     10   8   7     5.380483365242   126.48630953   195.00328214
 H     22  10   8     1.837072300170    19.08819947   226.21746260
 H     22  10   8     1.840687952699    93.43428486   350.31374249

---------------------
BASIS SET INFORMATION
---------------------
There are 2 groups of distinct atoms

 Group   1 Type O   : 11s6p2d1f contracted to 5s3p2d1f pattern {62111/411/11/1}
 Group   2 Type H   : 5s1p contracted to 3s1p pattern {311/1}

Atom   0O    basis set group =>   1
Atom   1H    basis set group =>   2
Atom   2H    basis set group =>   2
Atom   3O    basis set group =>   1
Atom   4H    basis set group =>   2
Atom   5H    basis set group =>   2
Atom   6O    basis set group =>   1
Atom   7H    basis set group =>   2
Atom   8H    basis set group =>   2
Atom   9O    basis set group =>   1
Atom  10H    basis set group =>   2
Atom  11H    basis set group =>   2
Atom  12O    basis set group =>   1
Atom  13H    basis set group =>   2
Atom  14H    basis set group =>   2
Atom  15O    basis set group =>   1
Atom  16H    basis set group =>   2
Atom  17H    basis set group =>   2
Atom  18O    basis set group =>   1
Atom  19H    basis set group =>   2
Atom  20H    basis set group =>   2
Atom  21O    basis set group =>   1
Atom  22H    basis set group =>   2
Atom  23H    basis set group =>   2


           ************************************************************
           *        Program running with 6 parallel MPI-processes     *
           *              working on a common directory               *
           ************************************************************
------------------------------------------------------------------------------
                           ORCA GTO INTEGRAL CALCULATION
------------------------------------------------------------------------------

                         BASIS SET STATISTICS AND STARTUP INFO

 # of primitive gaussian shells          ...  256
 # of primitive gaussian functions       ...  496
 # of contracted shells                  ...  152
 # of contracted basis functions         ...  344
 Highest angular momentum                ...    3
 Maximum contraction depth               ...    6
 Integral package used                   ... LIBINT
 Integral threshhold            Thresh   ...  2.500e-11
 Primitive cut-off              TCut     ...  2.500e-12


------------------------------ INTEGRAL EVALUATION ----------------------------


 * One electron integrals 
 Pre-screening matrix                    ... done
 Shell pair data                         ... done (   0.002 sec)



           ************************************************************
           *        Program running with 6 parallel MPI-processes     *
           *              working on a common directory               *
           ************************************************************
-------------------------------------------------------------------------------
                                 ORCA SCF
-------------------------------------------------------------------------------

------------
SCF SETTINGS
------------
Hamiltonian:
 Ab initio Hamiltonian  Method          .... Hartree-Fock(GTOs)


General Settings:
 Integral files         IntName         .... 12h2o.su.etal.mol1,2,3,4,6,7,10,11-orca.engrad-mp2.def2tzvp.frozencore
 Hartree-Fock type      HFTyp           .... RHF
 Total Charge           Charge          ....    0
 Multiplicity           Mult            ....    1
 Number of Electrons    NEL             ....   80
 Basis Dimension        Dim             ....  344
 Nuclear Repulsion      ENuc            ....    462.0093362791 Eh

Convergence Acceleration:
 DIIS                   CNVDIIS         .... on
   Start iteration      DIISMaxIt       ....    12
   Startup error        DIISStart       ....  0.200000
   # of expansion vecs  DIISMaxEq       ....     5
   Bias factor          DIISBfac        ....   1.050
   Max. coefficient     DIISMaxC        ....  10.000
 Newton-Raphson         CNVNR           .... off
 SOSCF                  CNVSOSCF        .... on
   Start iteration      SOSCFMaxIt      ....   150
   Startup grad/error   SOSCFStart      ....  0.003300
 Level Shifting         CNVShift        .... on
   Level shift para.    LevelShift      ....    0.2500
   Turn off err/grad.   ShiftErr        ....    0.0010
 Zerner damping         CNVZerner       .... off
 Static damping         CNVDamp         .... on
   Fraction old density DampFac         ....    0.7000
   Max. Damping (<1)    DampMax         ....    0.9800
   Min. Damping (>=0)   DampMin         ....    0.0000
   Turn off err/grad.   DampErr         ....    0.1000
 Fernandez-Rico         CNVRico         .... off

SCF Procedure:
 Maximum # iterations   MaxIter         ....   125
 SCF integral mode      SCFMode         .... Direct
   Integral package                     .... LIBINT
 Reset frequency        DirectResetFreq ....    20
 Integral Threshold     Thresh          ....  2.500e-11 Eh
 Primitive CutOff       TCut            ....  2.500e-12 Eh

Convergence Tolerance:
 Convergence Check Mode ConvCheckMode   .... Total+1el-Energy
 Convergence forced     ConvForced      .... 1
 Energy Change          TolE            ....  1.000e-08 Eh
 1-El. energy change                    ....  1.000e-05 Eh
 Orbital Gradient       TolG            ....  1.000e-05
 Orbital Rotation angle TolX            ....  1.000e-05
 DIIS Error             TolErr          ....  5.000e-07


Diagonalization of the overlap matrix:
Smallest eigenvalue                        ... 3.320e-03
Time for diagonalization                   ...    0.016 sec
Threshold for overlap eigenvalues          ... 1.000e-08
Number of eigenvalues below threshold      ... 0
Time for construction of square roots      ...    0.009 sec
Total time needed                          ...    0.025 sec

-------------------
DFT GRID GENERATION
-------------------

General Integration Accuracy     IntAcc      ...  4.340
Radial Grid Type                 RadialGrid  ... Gauss-Chebyshev
Angular Grid (max. acc.)         AngularGrid ... Lebedev-110
Angular grid pruning method      GridPruning ... 3 (G Style)
Weight generation scheme         WeightScheme... Becke
Basis function cutoff            BFCut       ...    1.0000e-11
Integration weight cutoff        WCut        ...    1.0000e-14
Grids for H and He will be reduced by one unit

# of grid points (after initial pruning)     ...  26432 (   0.0 sec)
# of grid points (after weights+screening)   ...  24626 (   0.0 sec)
nearest neighbour list constructed           ...    0.0 sec
Grid point re-assignment to atoms done       ...    0.0 sec
Grid point division into batches done        ...    0.0 sec
Reduced shell lists constructed in    0.1 sec

Total number of grid points                  ...    24626
Total number of batches                      ...      398
Average number of points per batch           ...       61
Average number of grid points per atom       ...     1026
Average number of shells per batch           ...    65.53 (43.11%)
Average number of basis functions per batch  ...   127.59 (37.09%)
Average number of large shells per batch     ...    42.19 (64.39%)
Average number of large basis fcns per batch ...    81.49 (63.87%)
Maximum spatial batch extension              ...  15.22, 15.72, 15.57 au
Average spatial batch extension              ...   0.56,  0.58,  0.54 au

Time for grid setup =    0.096 sec

------------------------------
INITIAL GUESS: MODEL POTENTIAL
------------------------------
Loading Hartree-Fock densities                     ... done
Calculating cut-offs                               ... done
Setting up the integral package                    ... done
Initializing the effective Hamiltonian             ... done
Starting the Coulomb interaction                   ... done (   0.1 sec)
Reading the grid                                   ... done
Mapping shells                                     ... done
Starting the XC term evaluation                    ... done (   0.0 sec)
Transforming the Hamiltonian                       ... done (   0.0 sec)
Diagonalizing the Hamiltonian                      ... done (   0.0 sec)
Back transforming the eigenvectors                 ... done (   0.0 sec)
Now organizing SCF variables                       ... done
                      ------------------
                      INITIAL GUESS DONE (   0.3 sec)
                      ------------------
--------------
SCF ITERATIONS
--------------
ITER       Energy         Delta-E        Max-DP      RMS-DP      [F,P]     Damp
               ***  Starting incremental Fock matrix formation  ***
  0   -607.8228039381   0.000000000000 0.04387762  0.00082921  0.3501860 0.7000
  1   -608.0913602310  -0.268556292892 0.02908820  0.00057504  0.2167541 0.7000
                               ***Turning on DIIS***
  2   -608.2341237038  -0.142763472798 0.01661974  0.00032318  0.1635034 0.7000
  3   -609.5595045318  -1.325380828056 0.00760891  0.00015056  0.1217705 0.7000
  4   -609.2928994509   0.266605080909 0.01732469  0.00035079  0.0861560 0.0000
  5   -608.5619584065   0.730941044435 0.00225625  0.00005611  0.0053406 0.0000
                      *** Initiating the SOSCF procedure ***
                           *** Shutting down DIIS ***
                      *** Re-Reading the Fockian *** 
                      *** Removing any level shift *** 
ITER      Energy       Delta-E        Grad      Rot      Max-DP    RMS-DP
  6   -608.52257134   0.0393870622  0.000914  0.000914  0.001383  0.000034
               *** Restarting incremental Fock matrix formation ***
  7   -608.51058270   0.0119886478  0.000346  0.000489  0.000638  0.000015
  8   -608.51059466  -0.0000119588  0.000130  0.000393  0.000495  0.000013
  9   -608.51059756  -0.0000029030  0.000053  0.000047  0.000111  0.000002
 10   -608.51059781  -0.0000002472  0.000007  0.000008  0.000020  0.000000
                  ***Gradient check signals convergence***
              ***Rediagonalizing the Fockian in SOSCF/NRSCF***

               *****************************************************
               *                     SUCCESS                       *
               *           SCF CONVERGED AFTER  11 CYCLES          *
               *****************************************************


----------------
TOTAL SCF ENERGY
----------------

Total Energy       :         -608.51059781 Eh          -16558.41518 eV

Components:
Nuclear Repulsion  :          462.00933628 Eh           12571.91318 eV
Electronic Energy  :        -1070.51993409 Eh          -29130.32836 eV
One Electron Energy:        -1761.80981394 Eh          -47941.28233 eV
Two Electron Energy:          691.28987985 Eh           18810.95396 eV

Virial components:
Potential Energy   :        -1216.22520512 Eh          -33095.17036 eV
Kinetic Energy     :          607.71460731 Eh           16536.75518 eV
Virial Ratio       :            2.00130981


---------------
SCF CONVERGENCE
---------------

  Last Energy change         ...   -4.9688e-09  Tolerance :   1.0000e-08
  Last MAX-Density change    ...    6.5064e-06  Tolerance :   1.0000e-07
  Last RMS-Density change    ...    1.3953e-07  Tolerance :   5.0000e-09
  Last Orbital Gradient      ...    2.2099e-06  Tolerance :   1.0000e-05
  Last Orbital Rotation      ...    2.4583e-06  Tolerance :   1.0000e-05

             **** THE GBW FILE WAS UPDATED (12h2o.su.etal.mol1,2,3,4,6,7,10,11-orca.engrad-mp2.def2tzvp.frozencore.gbw) ****
             **** DENSITY FILE WAS UPDATED (12h2o.su.etal.mol1,2,3,4,6,7,10,11-orca.engrad-mp2.def2tzvp.frozencore.scfp) ****
             **** ENERGY FILE WAS UPDATED (12h2o.su.etal.mol1,2,3,4,6,7,10,11-orca.engrad-mp2.def2tzvp.frozencore.en.tmp) ****
             **** THE GBW FILE WAS UPDATED (12h2o.su.etal.mol1,2,3,4,6,7,10,11-orca.engrad-mp2.def2tzvp.frozencore.gbw) ****
             **** DENSITY FILE WAS UPDATED (12h2o.su.etal.mol1,2,3,4,6,7,10,11-orca.engrad-mp2.def2tzvp.frozencore.scfp) ****
----------------
ORBITAL ENERGIES
----------------

  NO   OCC          E(Eh)            E(eV) 
   0   2.0000     -20.625714      -561.2542 
   1   2.0000     -20.597223      -560.4789 
   2   2.0000     -20.588272      -560.2354 
   3   2.0000     -20.553031      -559.2764 
   4   2.0000     -20.537828      -558.8627 
   5   2.0000     -20.535290      -558.7936 
   6   2.0000     -20.514841      -558.2372 
   7   2.0000     -20.510236      -558.1119 
   8   2.0000      -1.406683       -38.2778 
   9   2.0000      -1.383153       -37.6375 
  10   2.0000      -1.366689       -37.1895 
  11   2.0000      -1.345621       -36.6162 
  12   2.0000      -1.332393       -36.2562 
  13   2.0000      -1.315170       -35.7876 
  14   2.0000      -1.296097       -35.2686 
  15   2.0000      -1.293926       -35.2095 
  16   2.0000      -0.771814       -21.0021 
  17   2.0000      -0.747326       -20.3358 
  18   2.0000      -0.733925       -19.9711 
  19   2.0000      -0.710271       -19.3275 
  20   2.0000      -0.704853       -19.1800 
  21   2.0000      -0.700300       -19.0561 
  22   2.0000      -0.677171       -18.4267 
  23   2.0000      -0.668854       -18.2004 
  24   2.0000      -0.651080       -17.7168 
  25   2.0000      -0.625402       -17.0180 
  26   2.0000      -0.605382       -16.4733 
  27   2.0000      -0.599834       -16.3223 
  28   2.0000      -0.582584       -15.8529 
  29   2.0000      -0.569470       -15.4961 
  30   2.0000      -0.552598       -15.0370 
  31   2.0000      -0.544782       -14.8243 
  32   2.0000      -0.533629       -14.5208 
  33   2.0000      -0.527722       -14.3600 
  34   2.0000      -0.520338       -14.1591 
  35   2.0000      -0.495857       -13.4930 
  36   2.0000      -0.484676       -13.1887 
  37   2.0000      -0.482021       -13.1165 
  38   2.0000      -0.463540       -12.6136 
  39   2.0000      -0.459624       -12.5070 
  40   0.0000       0.083415         2.2698 
  41   0.0000       0.114185         3.1071 
  42   0.0000       0.147027         4.0008 
  43   0.0000       0.156724         4.2647 
  44   0.0000       0.177152         4.8205 
  45   0.0000       0.184265         5.0141 
  46   0.0000       0.209203         5.6927 
  47   0.0000       0.224376         6.1056 
  48   0.0000       0.237478         6.4621 
  49   0.0000       0.252991         6.8842 
  50   0.0000       0.270858         7.3704 
  51   0.0000       0.307612         8.3706 
  52   0.0000       0.328717         8.9448 
  53   0.0000       0.335337         9.1250 
  54   0.0000       0.351025         9.5519 
  55   0.0000       0.359510         9.7828 
  56   0.0000       0.421498        11.4695 
  57   0.0000       0.443243        12.0613 
  58   0.0000       0.491396        13.3716 
  59   0.0000       0.499554        13.5936 
  60   0.0000       0.506900        13.7935 
  61   0.0000       0.513233        13.9658 
  62   0.0000       0.527328        14.3493 
  63   0.0000       0.539606        14.6834 
  64   0.0000       0.554804        15.0970 
  65   0.0000       0.557893        15.1810 
  66   0.0000       0.562214        15.2986 
  67   0.0000       0.569879        15.5072 
  68   0.0000       0.575372        15.6567 
  69   0.0000       0.598260        16.2795 
  70   0.0000       0.608804        16.5664 
  71   0.0000       0.614888        16.7319 
  72   0.0000       0.629736        17.1360 
  73   0.0000       0.634215        17.2579 
  74   0.0000       0.649414        17.6715 
  75   0.0000       0.658809        17.9271 
  76   0.0000       0.674379        18.3508 
  77   0.0000       0.677585        18.4380 
  78   0.0000       0.692571        18.8458 
  79   0.0000       0.702308        19.1108 
  80   0.0000       0.710340        19.3293 
  81   0.0000       0.727416        19.7940 
  82   0.0000       0.746253        20.3066 
  83   0.0000       0.752233        20.4693 
  84   0.0000       0.764966        20.8158 
  85   0.0000       0.776787        21.1374 
  86   0.0000       0.790627        21.5140 
  87   0.0000       0.794883        21.6299 
  88   0.0000       0.808486        22.0000 
  89   0.0000       0.820798        22.3350 
  90   0.0000       0.832714        22.6593 
  91   0.0000       0.854319        23.2472 
  92   0.0000       0.857045        23.3214 
  93   0.0000       0.899006        24.4632 
  94   0.0000       0.913647        24.8616 
  95   0.0000       0.944893        25.7119 
  96   0.0000       0.968617        26.3574 
  97   0.0000       0.981446        26.7065 
  98   0.0000       0.997423        27.1413 
  99   0.0000       1.024027        27.8652 
 100   0.0000       1.052944        28.6521 
 101   0.0000       1.091546        29.7025 
 102   0.0000       1.135020        30.8855 
 103   0.0000       1.183296        32.1991 
 104   0.0000       1.343521        36.5591 
 105   0.0000       1.360930        37.0328 
 106   0.0000       1.374344        37.3978 
 107   0.0000       1.385280        37.6954 
 108   0.0000       1.409147        38.3448 
 109   0.0000       1.415561        38.5194 
 110   0.0000       1.422879        38.7185 
 111   0.0000       1.434575        39.0368 
 112   0.0000       1.444320        39.3019 
 113   0.0000       1.451784        39.5050 
 114   0.0000       1.467019        39.9196 
 115   0.0000       1.500228        40.8233 
 116   0.0000       1.507309        41.0160 
 117   0.0000       1.518742        41.3271 
 118   0.0000       1.528911        41.6038 
 119   0.0000       1.538964        41.8773 
 120   0.0000       1.565272        42.5932 
 121   0.0000       1.578418        42.9509 
 122   0.0000       1.582339        43.0576 
 123   0.0000       1.598506        43.4976 
 124   0.0000       1.613576        43.9076 
 125   0.0000       1.642123        44.6844 
 126   0.0000       1.649294        44.8796 
 127   0.0000       1.677739        45.6536 
 128   0.0000       1.783642        48.5354 
 129   0.0000       1.819140        49.5013 
 130   0.0000       1.831292        49.8320 
 131   0.0000       1.849497        50.3274 
 132   0.0000       1.861210        50.6461 
 133   0.0000       1.887966        51.3742 
 134   0.0000       1.912104        52.0310 
 135   0.0000       1.930854        52.5412 
 136   0.0000       1.935067        52.6559 
 137   0.0000       1.950506        53.0760 
 138   0.0000       1.965404        53.4814 
 139   0.0000       1.980196        53.8839 
 140   0.0000       1.983894        53.9845 
 141   0.0000       2.001578        54.4657 
 142   0.0000       2.031600        55.2827 
 143   0.0000       2.043275        55.6003 
 144   0.0000       2.064535        56.1789 
 145   0.0000       2.083044        56.6825 
 146   0.0000       2.118787        57.6551 
 147   0.0000       2.125735        57.8442 
 148   0.0000       2.143552        58.3290 
 149   0.0000       2.161874        58.8276 
 150   0.0000       2.183922        59.4275 
 151   0.0000       2.225144        60.5493 
 152   0.0000       2.252259        61.2871 
 153   0.0000       2.262937        61.5776 
 154   0.0000       2.280657        62.0598 
 155   0.0000       2.302703        62.6597 
 156   0.0000       2.307337        62.7858 
 157   0.0000       2.314818        62.9894 
 158   0.0000       2.326069        63.2955 
 159   0.0000       2.344954        63.8095 
 160   0.0000       2.355468        64.0955 
 161   0.0000       2.374740        64.6200 
 162   0.0000       2.378174        64.7134 
 163   0.0000       2.385909        64.9239 
 164   0.0000       2.399155        65.2843 
 165   0.0000       2.408001        65.5250 
 166   0.0000       2.421535        65.8933 
 167   0.0000       2.429218        66.1024 
 168   0.0000       2.461423        66.9787 
 169   0.0000       2.468974        67.1842 
 170   0.0000       2.484026        67.5938 
 171   0.0000       2.511978        68.3544 
 172   0.0000       2.533662        68.9444 
 173   0.0000       2.568903        69.9034 
 174   0.0000       2.577829        70.1463 
 175   0.0000       2.589805        70.4722 
 176   0.0000       2.610695        71.0406 
 177   0.0000       2.621035        71.3220 
 178   0.0000       2.633567        71.6630 
 179   0.0000       2.647585        72.0445 
 180   0.0000       2.651706        72.1566 
 181   0.0000       2.661873        72.4332 
 182   0.0000       2.674067        72.7651 
 183   0.0000       2.677571        72.8604 
 184   0.0000       2.692608        73.2696 
 185   0.0000       2.722169        74.0740 
 186   0.0000       2.727680        74.2240 
 187   0.0000       2.746577        74.7382 
 188   0.0000       2.763906        75.2097 
 189   0.0000       2.784928        75.7817 
 190   0.0000       2.811790        76.5127 
 191   0.0000       2.827325        76.9354 
 192   0.0000       2.872897        78.1755 
 193   0.0000       2.889869        78.6373 
 194   0.0000       2.928152        79.6791 
 195   0.0000       2.948342        80.2285 
 196   0.0000       2.968689        80.7821 
 197   0.0000       2.973637        80.9168 
 198   0.0000       2.984586        81.2147 
 199   0.0000       2.994336        81.4800 
 200   0.0000       3.019012        82.1515 
 201   0.0000       3.031289        82.4856 
 202   0.0000       3.038976        82.6948 
 203   0.0000       3.046839        82.9087 
 204   0.0000       3.079491        83.7972 
 205   0.0000       3.084117        83.9231 
 206   0.0000       3.108397        84.5838 
 207   0.0000       3.120676        84.9179 
 208   0.0000       3.122241        84.9605 
 209   0.0000       3.148094        85.6640 
 210   0.0000       3.160921        86.0130 
 211   0.0000       3.193682        86.9045 
 212   0.0000       3.203351        87.1676 
 213   0.0000       3.262121        88.7668 
 214   0.0000       3.273044        89.0640 
 215   0.0000       3.290588        89.5414 
 216   0.0000       3.311618        90.1137 
 217   0.0000       3.325372        90.4880 
 218   0.0000       3.348395        91.1144 
 219   0.0000       3.371825        91.7520 
 220   0.0000       3.394647        92.3730 
 221   0.0000       3.459860        94.1476 
 222   0.0000       3.516067        95.6771 
 223   0.0000       3.555630        96.7536 
 224   0.0000       3.959824       107.7523 
 225   0.0000       3.977121       108.2230 
 226   0.0000       4.045584       110.0859 
 227   0.0000       4.081147       111.0537 
 228   0.0000       4.107586       111.7731 
 229   0.0000       4.133416       112.4760 
 230   0.0000       4.147519       112.8597 
 231   0.0000       4.182596       113.8142 
 232   0.0000       4.256961       115.8378 
 233   0.0000       4.283338       116.5555 
 234   0.0000       4.295775       116.8940 
 235   0.0000       4.334818       117.9564 
 236   0.0000       4.364299       118.7586 
 237   0.0000       4.382234       119.2466 
 238   0.0000       4.391020       119.4857 
 239   0.0000       4.419211       120.2528 
 240   0.0000       5.488196       149.3414 
 241   0.0000       5.508988       149.9072 
 242   0.0000       5.522636       150.2786 
 243   0.0000       5.547866       150.9651 
 244   0.0000       5.561333       151.3316 
 245   0.0000       5.573268       151.6563 
 246   0.0000       5.581840       151.8896 
 247   0.0000       5.589895       152.1088 
 248   0.0000       5.593743       152.2135 
 249   0.0000       5.619832       152.9234 
 250   0.0000       5.640997       153.4993 
 251   0.0000       5.658573       153.9776 
 252   0.0000       5.694269       154.9489 
 253   0.0000       5.696621       155.0129 
 254   0.0000       5.701330       155.1411 
 255   0.0000       5.703661       155.2045 
 256   0.0000       5.750612       156.4821 
 257   0.0000       5.784380       157.4010 
 258   0.0000       5.789188       157.5318 
 259   0.0000       5.792033       157.6092 
 260   0.0000       5.817926       158.3138 
 261   0.0000       5.824949       158.5049 
 262   0.0000       5.841750       158.9621 
 263   0.0000       5.844610       159.0399 
 264   0.0000       5.849047       159.1606 
 265   0.0000       5.858237       159.4107 
 266   0.0000       5.860240       159.4652 
 267   0.0000       5.861379       159.4962 
 268   0.0000       5.868892       159.7007 
 269   0.0000       5.880193       160.0082 
 270   0.0000       5.890484       160.2882 
 271   0.0000       5.894957       160.4099 
 272   0.0000       5.898824       160.5152 
 273   0.0000       5.904328       160.6649 
 274   0.0000       5.908315       160.7734 
 275   0.0000       5.922890       161.1700 
 276   0.0000       5.931119       161.3940 
 277   0.0000       5.941732       161.6827 
 278   0.0000       5.953855       162.0126 
 279   0.0000       5.957959       162.1243 
 280   0.0000       6.369400       173.3202 
 281   0.0000       6.407419       174.3547 
 282   0.0000       6.433915       175.0757 
 283   0.0000       6.482675       176.4025 
 284   0.0000       6.494418       176.7221 
 285   0.0000       6.503504       176.9693 
 286   0.0000       6.517575       177.3522 
 287   0.0000       6.535554       177.8415 
 288   0.0000       6.648645       180.9188 
 289   0.0000       6.671014       181.5275 
 290   0.0000       6.679973       181.7713 
 291   0.0000       6.709121       182.5645 
 292   0.0000       6.720481       182.8736 
 293   0.0000       6.741309       183.4403 
 294   0.0000       6.756278       183.8477 
 295   0.0000       6.787491       184.6970 
 296   0.0000       6.826002       185.7450 
 297   0.0000       6.842360       186.1901 
 298   0.0000       6.848828       186.3661 
 299   0.0000       6.853643       186.4971 
 300   0.0000       6.862733       186.7445 
 301   0.0000       6.872588       187.0126 
 302   0.0000       6.882746       187.2890 
 303   0.0000       6.885930       187.3757 
 304   0.0000       6.890577       187.5021 
 305   0.0000       6.904743       187.8876 
 306   0.0000       6.912432       188.0968 
 307   0.0000       6.924534       188.4262 
 308   0.0000       6.927278       188.5008 
 309   0.0000       6.933614       188.6732 
 310   0.0000       6.946809       189.0323 
 311   0.0000       6.963301       189.4811 
 312   0.0000       6.970768       189.6842 
 313   0.0000       6.977044       189.8550 
 314   0.0000       6.996785       190.3922 
 315   0.0000       7.004378       190.5988 
 316   0.0000       7.015750       190.9083 
 317   0.0000       7.041547       191.6102 
 318   0.0000       7.106174       193.3688 
 319   0.0000       7.119044       193.7190 
 320   0.0000       7.328679       199.4235 
 321   0.0000       7.358573       200.2370 
 322   0.0000       7.369334       200.5298 
 323   0.0000       7.424262       202.0244 
 324   0.0000       7.442796       202.5288 
 325   0.0000       7.451694       202.7709 
 326   0.0000       7.454524       202.8479 
 327   0.0000       7.479940       203.5395 
 328   0.0000       7.509928       204.3555 
 329   0.0000       7.529307       204.8828 
 330   0.0000       7.560047       205.7193 
 331   0.0000       7.583303       206.3522 
 332   0.0000       7.590304       206.5427 
 333   0.0000       7.610029       207.0794 
 334   0.0000       7.632389       207.6879 
 335   0.0000       7.656355       208.3400 
 336   0.0000      44.869244      1220.9542 
 337   0.0000      44.879324      1221.2285 
 338   0.0000      44.991660      1224.2853 
 339   0.0000      44.996913      1224.4283 
 340   0.0000      45.008940      1224.7555 
 341   0.0000      45.044724      1225.7293 
 342   0.0000      45.085655      1226.8430 
 343   0.0000      45.172766      1229.2135 

                    ********************************
                    * MULLIKEN POPULATION ANALYSIS *
                    ********************************

-----------------------
MULLIKEN ATOMIC CHARGES
-----------------------
   0 O :   -0.744314
   1 H :    0.378961
   2 H :    0.381931
   3 O :   -0.736997
   4 H :    0.361593
   5 H :    0.392143
   6 O :   -0.757936
   7 H :    0.397363
   8 H :    0.386346
   9 O :   -0.795109
  10 H :    0.405127
  11 H :    0.380809
  12 O :   -0.759477
  13 H :    0.337292
  14 H :    0.394939
  15 O :   -0.768153
  16 H :    0.406470
  17 H :    0.377085
  18 O :   -0.773272
  19 H :    0.343266
  20 H :    0.401628
  21 O :   -0.752942
  22 H :    0.389756
  23 H :    0.353492
Sum of atomic charges:    0.0000000

--------------------------------
MULLIKEN REDUCED ORBITAL CHARGES
--------------------------------
  0 O s       :     3.807372  s :     3.807372
      pz      :     1.731038  p :     4.911552
      px      :     1.381468
      py      :     1.799046
      dz2     :     0.003897  d :     0.023912
      dxz     :     0.004349
      dyz     :     0.005466
      dx2y2   :     0.002552
      dxy     :     0.007648
      f0      :     0.000084  f :     0.001478
      f+1     :     0.000333
      f-1     :     0.000179
      f+2     :     0.000064
      f-2     :     0.000348
      f+3     :     0.000094
      f-3     :     0.000376
  1 H s       :     0.576158  s :     0.576158
      pz      :     0.016931  p :     0.044882
      px      :     0.013298
      py      :     0.014653
  2 H s       :     0.577551  s :     0.577551
      pz      :     0.010443  p :     0.040518
      px      :     0.018011
      py      :     0.012064
  3 O s       :     3.808914  s :     3.808914
      pz      :     1.734804  p :     4.902317
      px      :     1.781964
      py      :     1.385550
      dz2     :     0.004357  d :     0.024263
      dxz     :     0.005432
      dyz     :     0.005002
      dx2y2   :     0.002557
      dxy     :     0.006915
      f0      :     0.000093  f :     0.001503
      f+1     :     0.000185
      f-1     :     0.000350
      f+2     :     0.000061
      f-2     :     0.000356
      f+3     :     0.000365
      f-3     :     0.000091
  4 H s       :     0.593004  s :     0.593004
      pz      :     0.017269  p :     0.045402
      px      :     0.014848
      py      :     0.013286
  5 H s       :     0.566975  s :     0.566975
      pz      :     0.010748  p :     0.040882
      px      :     0.011948
      py      :     0.018187
  6 O s       :     3.792140  s :     3.792140
      pz      :     1.566230  p :     4.940344
      px      :     1.587070
      py      :     1.787043
      dz2     :     0.011715  d :     0.024101
      dxz     :     0.001218
      dyz     :     0.002278
      dx2y2   :     0.002299
      dxy     :     0.006591
      f0      :     0.000232  f :     0.001351
      f+1     :     0.000377
      f-1     :     0.000149
      f+2     :     0.000050
      f-2     :     0.000054
      f+3     :     0.000047
      f-3     :     0.000440
  7 H s       :     0.554825  s :     0.554825
      pz      :     0.024445  p :     0.047812
      px      :     0.011193
      py      :     0.012173
  8 H s       :     0.564058  s :     0.564058
      pz      :     0.009854  p :     0.049596
      px      :     0.024074
      py      :     0.015669
  9 O s       :     3.799424  s :     3.799424
      pz      :     1.614005  p :     4.972104
      px      :     1.848989
      py      :     1.509110
      dz2     :     0.010038  d :     0.022265
      dxz     :     0.001927
      dyz     :     0.002418
      dx2y2   :     0.003170
      dxy     :     0.004712
      f0      :     0.000164  f :     0.001316
      f+1     :     0.000106
      f-1     :     0.000430
      f+2     :     0.000068
      f-2     :     0.000035
      f+3     :     0.000415
      f-3     :     0.000098
 10 H s       :     0.546311  s :     0.546311
      pz      :     0.025328  p :     0.048561
      px      :     0.012215
      py      :     0.011018
 11 H s       :     0.566614  s :     0.566614
      pz      :     0.009195  p :     0.052577
      px      :     0.014940
      py      :     0.028442
 12 O s       :     3.811736  s :     3.811736
      pz      :     1.527167  p :     4.921714
      px      :     1.517326
      py      :     1.877222
      dz2     :     0.011421  d :     0.024587
      dxz     :     0.002925
      dyz     :     0.002423
      dx2y2   :     0.002968
      dxy     :     0.004850
      f0      :     0.000186  f :     0.001440
      f+1     :     0.000452
      f-1     :     0.000125
      f+2     :     0.000077
      f-2     :     0.000041
      f+3     :     0.000115
      f-3     :     0.000444
 13 H s       :     0.618032  s :     0.618032
      pz      :     0.018390  p :     0.044676
      px      :     0.012063
      py      :     0.014223
 14 H s       :     0.551267  s :     0.551267
      pz      :     0.009351  p :     0.053794
      px      :     0.029038
      py      :     0.015405
 15 O s       :     3.802965  s :     3.802965
      pz      :     1.610443  p :     4.940215
      px      :     1.476419
      py      :     1.853354
      dz2     :     0.010429  d :     0.023587
      dxz     :     0.002533
      dyz     :     0.002086
      dx2y2   :     0.003449
      dxy     :     0.005091
      f0      :     0.000168  f :     0.001385
      f+1     :     0.000439
      f-1     :     0.000112
      f+2     :     0.000069
      f-2     :     0.000036
      f+3     :     0.000108
      f-3     :     0.000453
 16 H s       :     0.545149  s :     0.545149
      pz      :     0.025031  p :     0.048381
      px      :     0.010887
      py      :     0.012463
 17 H s       :     0.581186  s :     0.581186
      pz      :     0.009188  p :     0.041729
      px      :     0.018763
      py      :     0.013778
 18 O s       :     3.808859  s :     3.808859
      pz      :     1.707548  p :     4.940251
      px      :     1.810189
      py      :     1.422514
      dz2     :     0.003560  d :     0.022740
      dxz     :     0.005380
      dyz     :     0.004208
      dx2y2   :     0.002221
      dxy     :     0.007370
      f0      :     0.000078  f :     0.001421
      f+1     :     0.000177
      f-1     :     0.000309
      f+2     :     0.000069
      f-2     :     0.000348
      f+3     :     0.000352
      f-3     :     0.000088
 19 H s       :     0.610883  s :     0.610883
      pz      :     0.016901  p :     0.045852
      px      :     0.015017
      py      :     0.013934
 20 H s       :     0.541730  s :     0.541730
      pz      :     0.010080  p :     0.056642
      px      :     0.013987
      py      :     0.032575
 21 O s       :     3.805622  s :     3.805622
      pz      :     1.557011  p :     4.921137
      px      :     1.815717
      py      :     1.548410
      dz2     :     0.011359  d :     0.024739
      dxz     :     0.002887
      dyz     :     0.001200
      dx2y2   :     0.002123
      dxy     :     0.007169
      f0      :     0.000249  f :     0.001444
      f+1     :     0.000160
      f-1     :     0.000370
      f+2     :     0.000056
      f-2     :     0.000055
      f+3     :     0.000488
      f-3     :     0.000066
 22 H s       :     0.561499  s :     0.561499
      pz      :     0.024392  p :     0.048745
      px      :     0.012869
      py      :     0.011484
 23 H s       :     0.595866  s :     0.595866
      pz      :     0.010619  p :     0.050643
      px      :     0.016873
      py      :     0.023151


                     *******************************
                     * LOEWDIN POPULATION ANALYSIS *
                     *******************************

----------------------
LOEWDIN ATOMIC CHARGES
----------------------
   0 O :   -0.296968
   1 H :    0.169920
   2 H :    0.193592
   3 O :   -0.320440
   4 H :    0.163414
   5 H :    0.196818
   6 O :   -0.299280
   7 H :    0.159376
   8 H :    0.156409
   9 O :   -0.316139
  10 H :    0.160201
  11 H :    0.148509
  12 O :   -0.369801
  13 H :    0.157404
  14 H :    0.151911
  15 O :   -0.296265
  16 H :    0.162708
  17 H :    0.181147
  18 O :   -0.349112
  19 H :    0.152017
  20 H :    0.153847
  21 O :   -0.357784
  22 H :    0.155564
  23 H :    0.142952

-------------------------------
LOEWDIN REDUCED ORBITAL CHARGES
-------------------------------
  0 O s       :     3.462252  s :     3.462252
      pz      :     1.686429  p :     4.801302
      px      :     1.365000
      py      :     1.749873
      dz2     :     0.005358  d :     0.031353
      dxz     :     0.006491
      dyz     :     0.005287
      dx2y2   :     0.004220
      dxy     :     0.009997
      f0      :     0.000087  f :     0.002062
      f+1     :     0.000446
      f-1     :     0.000271
      f+2     :     0.000033
      f-2     :     0.000593
      f+3     :     0.000090
      f-3     :     0.000541
  1 H s       :     0.665879  s :     0.665879
      pz      :     0.066661  p :     0.164201
      px      :     0.044636
      py      :     0.052903
  2 H s       :     0.657446  s :     0.657446
      pz      :     0.033237  p :     0.148962
      px      :     0.072177
      py      :     0.043547
  3 O s       :     3.466415  s :     3.466415
      pz      :     1.711105  p :     4.820932
      px      :     1.742832
      py      :     1.366995
      dz2     :     0.004912  d :     0.031039
      dxz     :     0.005405
      dyz     :     0.007183
      dx2y2   :     0.004199
      dxy     :     0.009339
      f0      :     0.000078  f :     0.002055
      f+1     :     0.000272
      f-1     :     0.000451
      f+2     :     0.000033
      f-2     :     0.000615
      f+3     :     0.000516
      f-3     :     0.000089
  4 H s       :     0.673121  s :     0.673121
      pz      :     0.066374  p :     0.163465
      px      :     0.052638
      py      :     0.044453
  5 H s       :     0.654120  s :     0.654120
      pz      :     0.032968  p :     0.149062
      px      :     0.043282
      py      :     0.072812
  6 O s       :     3.446729  s :     3.446729
      pz      :     1.539383  p :     4.820492
      px      :     1.552067
      py      :     1.729042
      dz2     :     0.014951  d :     0.030040
      dxz     :     0.001847
      dyz     :     0.001744
      dx2y2   :     0.003366
      dxy     :     0.008131
      f0      :     0.000422  f :     0.002019
      f+1     :     0.000544
      f-1     :     0.000320
      f+2     :     0.000019
      f-2     :     0.000048
      f+3     :     0.000025
      f-3     :     0.000640
  7 H s       :     0.668702  s :     0.668702
      pz      :     0.093030  p :     0.171921
      px      :     0.037049
      py      :     0.041842
  8 H s       :     0.668415  s :     0.668415
      pz      :     0.030879  p :     0.175176
      px      :     0.086451
      py      :     0.057846
  9 O s       :     3.449447  s :     3.449447
      pz      :     1.564615  p :     4.836321
      px      :     1.788488
      py      :     1.483218
      dz2     :     0.013327  d :     0.028474
      dxz     :     0.001176
      dyz     :     0.003415
      dx2y2   :     0.004720
      dxy     :     0.005837
      f0      :     0.000328  f :     0.001897
      f+1     :     0.000189
      f-1     :     0.000684
      f+2     :     0.000035
      f-2     :     0.000043
      f+3     :     0.000550
      f-3     :     0.000067
 10 H s       :     0.664538  s :     0.664538
      pz      :     0.095756  p :     0.175261
      px      :     0.042418
      py      :     0.037087
 11 H s       :     0.665736  s :     0.665736
      pz      :     0.030888  p :     0.185754
      px      :     0.052666
      py      :     0.102201
 12 O s       :     3.470478  s :     3.470478
      pz      :     1.538557  p :     4.867091
      px      :     1.488893
      py      :     1.839641
      dz2     :     0.014762  d :     0.030199
      dxz     :     0.004390
      dyz     :     0.001614
      dx2y2   :     0.003723
      dxy     :     0.005710
      f0      :     0.000394  f :     0.002033
      f+1     :     0.000750
      f-1     :     0.000193
      f+2     :     0.000048
      f-2     :     0.000047
      f+3     :     0.000065
      f-3     :     0.000537
 13 H s       :     0.683929  s :     0.683929
      pz      :     0.078417  p :     0.158667
      px      :     0.036808
      py      :     0.043443
 14 H s       :     0.662014  s :     0.662014
      pz      :     0.028896  p :     0.186075
      px      :     0.104473
      py      :     0.052706
 15 O s       :     3.455709  s :     3.455709
      pz      :     1.561877  p :     4.807903
      px      :     1.458015
      py      :     1.788011
      dz2     :     0.014168  d :     0.030657
      dxz     :     0.003606
      dyz     :     0.001267
      dx2y2   :     0.005156
      dxy     :     0.006461
      f0      :     0.000337  f :     0.001996
      f+1     :     0.000696
      f-1     :     0.000200
      f+2     :     0.000036
      f-2     :     0.000042
      f+3     :     0.000072
      f-3     :     0.000613
 16 H s       :     0.664374  s :     0.664374
      pz      :     0.094570  p :     0.172917
      px      :     0.035872
      py      :     0.042475
 17 H s       :     0.663494  s :     0.663494
      pz      :     0.030376  p :     0.155359
      px      :     0.075755
      py      :     0.049228
 18 O s       :     3.460774  s :     3.460774
      pz      :     1.675824  p :     4.857273
      px      :     1.782088
      py      :     1.399361
      dz2     :     0.004516  d :     0.029090
      dxz     :     0.005635
      dyz     :     0.006801
      dx2y2   :     0.003180
      dxy     :     0.008958
      f0      :     0.000082  f :     0.001976
      f+1     :     0.000261
      f-1     :     0.000425
      f+2     :     0.000034
      f-2     :     0.000619
      f+3     :     0.000472
      f-3     :     0.000084
 19 H s       :     0.683151  s :     0.683151
      pz      :     0.065673  p :     0.164832
      px      :     0.053321
      py      :     0.045839
 20 H s       :     0.648563  s :     0.648563
      pz      :     0.033280  p :     0.197590
      px      :     0.047771
      py      :     0.116540
 21 O s       :     3.460642  s :     3.460642
      pz      :     1.537717  p :     4.864750
      px      :     1.790285
      py      :     1.536748
      dz2     :     0.014765  d :     0.030350
      dxz     :     0.002217
      dyz     :     0.001808
      dx2y2   :     0.002251
      dxy     :     0.009309
      f0      :     0.000436  f :     0.002042
      f+1     :     0.000305
      f-1     :     0.000545
      f+2     :     0.000023
      f-2     :     0.000046
      f+3     :     0.000684
      f-3     :     0.000002
 22 H s       :     0.672374  s :     0.672374
      pz      :     0.093461  p :     0.172062
      px      :     0.042005
      py      :     0.036596
 23 H s       :     0.684996  s :     0.684996
      pz      :     0.031742  p :     0.172052
      px      :     0.057725
      py      :     0.082585


                      *****************************
                      * MAYER POPULATION ANALYSIS *
                      *****************************

  NA   - Mulliken gross atomic population
  ZA   - Total nuclear charge
  QA   - Mulliken gross atomic charge
  VA   - Mayer's total valence
  BVA  - Mayer's bonded valence
  FA   - Mayer's free valence

  ATOM       NA         ZA         QA         VA         BVA        FA
  0 O      8.7443     8.0000    -0.7443     1.7533     1.7533    -0.0000
  1 H      0.6210     1.0000     0.3790     0.8725     0.8725    -0.0000
  2 H      0.6181     1.0000     0.3819     0.8689     0.8689    -0.0000
  3 O      8.7370     8.0000    -0.7370     1.7581     1.7581     0.0000
  4 H      0.6384     1.0000     0.3616     0.8845     0.8845    -0.0000
  5 H      0.6079     1.0000     0.3921     0.8615     0.8615     0.0000
  6 O      8.7579     8.0000    -0.7579     1.7266     1.7266     0.0000
  7 H      0.6026     1.0000     0.3974     0.8636     0.8636     0.0000
  8 H      0.6137     1.0000     0.3863     0.8842     0.8842    -0.0000
  9 O      8.7951     8.0000    -0.7951     1.6764     1.6764     0.0000
 10 H      0.5949     1.0000     0.4051     0.8723     0.8723     0.0000
 11 H      0.6192     1.0000     0.3808     0.8903     0.8903     0.0000
 12 O      8.7595     8.0000    -0.7595     1.7080     1.7080     0.0000
 13 H      0.6627     1.0000     0.3373     0.9025     0.9025     0.0000
 14 H      0.6051     1.0000     0.3949     0.8820     0.8820    -0.0000
 15 O      8.7682     8.0000    -0.7682     1.7224     1.7224     0.0000
 16 H      0.5935     1.0000     0.4065     0.8642     0.8642     0.0000
 17 H      0.6229     1.0000     0.3771     0.8767     0.8767     0.0000
 18 O      8.7733     8.0000    -0.7733     1.6848     1.6848    -0.0000
 19 H      0.6567     1.0000     0.3433     0.8988     0.8988     0.0000
 20 H      0.5984     1.0000     0.4016     0.8777     0.8777    -0.0000
 21 O      8.7529     8.0000    -0.7529     1.7327     1.7327     0.0000
 22 H      0.6102     1.0000     0.3898     0.8751     0.8751    -0.0000
 23 H      0.6465     1.0000     0.3535     0.9011     0.9011     0.0000

  Mayer bond orders larger than 0.100000
B(  0-O ,  1-H ) :   0.8636 B(  0-O ,  2-H ) :   0.8565 B(  3-O ,  4-H ) :   0.8770 
B(  3-O ,  5-H ) :   0.8490 B(  6-O ,  7-H ) :   0.8433 B(  6-O ,  8-H ) :   0.8373 
B(  9-O , 10-H ) :   0.8217 B(  9-O , 11-H ) :   0.8246 B( 12-O , 13-H ) :   0.8954 
B( 12-O , 14-H ) :   0.8187 B( 15-O , 16-H ) :   0.8273 B( 15-O , 17-H ) :   0.8592 
B( 18-O , 19-H ) :   0.8902 B( 18-O , 20-H ) :   0.7879 B( 21-O , 22-H ) :   0.8480 
B( 21-O , 23-H ) :   0.8792 

-------
TIMINGS
-------

Total SCF time: 0 days 0 hours 0 min 27 sec 

Total time                  ....      27.874 sec
Sum of individual times     ....      27.576 sec  ( 98.9%)

Fock matrix formation       ....      26.991 sec  ( 96.8%)
Diagonalization             ....       0.142 sec  (  0.5%)
Density matrix formation    ....       0.015 sec  (  0.1%)
Population analysis         ....       0.015 sec  (  0.1%)
Initial guess               ....       0.195 sec  (  0.7%)
Orbital Transformation      ....       0.000 sec  (  0.0%)
Orbital Orthonormalization  ....       0.000 sec  (  0.0%)
DIIS solution               ....       0.058 sec  (  0.2%)
SOSCF solution              ....       0.064 sec  (  0.2%)


           ************************************************************
           *        Program running with 6 parallel MPI-processes     *
           *              working on a common directory               *
           ************************************************************

------------------------------------------------------------------------------
                                ORCA  MP2 
------------------------------------------------------------------------------

Freezing NCore=16 chemical core electrons
MP2 will be done in the AO integral direct mode
The Q1-step will be done using symmetric double matrices
Dimension of the basis                    ...  344
Memory devoted for MP2                    ... 8000 MB   
Memory needed for all in one shot         ...  935 MB
Number of MOs that can be treated together...   50      
MP2 density construction                  ... relaxed
The MP2 gradient is requested => amplitudes will be stored on disk
Total number of MOs              ...   32
Number of MOs treated per batch  ...    6 
Number of batches necessary      ...    1 
OPERATORS   0/  0 PASS   0
-----------------------------------------------
 MP2 CORRELATION ENERGY   :     -2.072348395 Eh
-----------------------------------------------


---------------------
MP2 DENSITY FORMATION
---------------------

Completing the external part of the density      ... done
Storing the unrelaxed density                    ... done

Calculating G(D)                                 ... done
Completing the Lagrangian                        ... done
Solving the Z-vector equations                   ... 

------------------------------------------------------------------------------
                           ORCA CP-SCF CALCULATION
------------------------------------------------------------------------------

Input orbitals are from        ... 12h2o.su.etal.mol1,2,3,4,6,7,10,11-orca.engrad-mp2.def2tzvp.frozencore.gbw
Input Perturbation             ... 12h2o.su.etal.mol1,2,3,4,6,7,10,11-orca.engrad-mp2.def2tzvp.frozencore.pin.tmp
Wavefunction output            ... 12h2o.su.etal.mol1,2,3,4,6,7,10,11-orca.engrad-mp2.def2tzvp.frozencore.pout.tmp
Perturbation mode              ... Real perturbation (singlet)
Solver                         ... POPLE
Max. number of iterations      ... 128
Convergence tolerance          ... 1.000e-08
Integral handling              ... Direct
Number of perturbations        ... 1
Number of operators            ... 1
Orbital ranges used for CP-SCF:
 Operator 0:  Orbitals   0... 39  to  40...343
Variables per vector in CP-SCF ... 12160
Number of vectors sought       ... 1
     CP-SCF ITERATION   0: 
     CP-SCF ITERATION   1:      0.001021623806
     CP-SCF ITERATION   2:      0.000027833186
     CP-SCF ITERATION   3:      0.000001742472
     CP-SCF ITERATION   4:      0.000000121237
     CP-SCF ITERATION   5:      0.000000009593
                                                 ... done
Finalizing the relaxed density                   ... done
Transforming P to the AO basis                   ... done
Storing the relaxed density                      ... done

------------------------------------
ENERGY WEIGHTED DENSITY FINALIZATION
------------------------------------

Gathering the parts of the W-matrix              ...                                                      done
Forming the Z-density                            ... done
Transforming Z to the AO basis                   ... done
Calculating G(Z)                                 ... done
Finalizing the W-matrix                          ...                                                      done
Transforming W to the AO basis and storing       ... done

                *********************************************
                * UNRELAXED MP2 DENSITY POPULATION ANALYSIS *
                *********************************************

------------------------------------------------------------------------------
                           ORCA POPULATION ANALYSIS
------------------------------------------------------------------------------
Input electron density              ... 12h2o.su.etal.mol1,2,3,4,6,7,10,11-orca.engrad-mp2.def2tzvp.frozencore.pmp2ur
BaseName (.gbw .S,...)              ... 12h2o.su.etal.mol1,2,3,4,6,7,10,11-orca.engrad-mp2.def2tzvp.frozencore

                    ********************************
                    * MULLIKEN POPULATION ANALYSIS *
                    ********************************

-----------------------
MULLIKEN ATOMIC CHARGES
-----------------------
   0 O :   -0.738585
   1 H :    0.376742
   2 H :    0.379067
   3 O :   -0.731378
   4 H :    0.359415
   5 H :    0.389319
   6 O :   -0.750756
   7 H :    0.394441
   8 H :    0.382947
   9 O :   -0.787672
  10 H :    0.401862
  11 H :    0.376213
  12 O :   -0.753725
  13 H :    0.334797
  14 H :    0.390514
  15 O :   -0.761494
  16 H :    0.403554
  17 H :    0.374167
  18 O :   -0.767072
  19 H :    0.340975
  20 H :    0.396726
  21 O :   -0.747105
  22 H :    0.386670
  23 H :    0.350380
Sum of atomic charges:    0.0000000

--------------------------------
MULLIKEN REDUCED ORBITAL CHARGES
--------------------------------
  0 O s       :     3.802522  s :     3.802522
      pz      :     1.719922  p :     4.880819
      px      :     1.373628
      py      :     1.787268
      dz2     :     0.009467  d :     0.051198
      dxz     :     0.009756
      dyz     :     0.010979
      dx2y2   :     0.008035
      dxy     :     0.012962
      f0      :     0.000457  f :     0.004046
      f+1     :     0.000695
      f-1     :     0.000547
      f+2     :     0.000433
      f-2     :     0.000713
      f+3     :     0.000465
      f-3     :     0.000737
  1 H s       :     0.576875  s :     0.576875
      pz      :     0.017376  p :     0.046384
      px      :     0.013667
      py      :     0.015341
  2 H s       :     0.578925  s :     0.578925
      pz      :     0.011257  p :     0.042009
      px      :     0.017941
      py      :     0.012811
  3 O s       :     3.804070  s :     3.804070
      pz      :     1.724152  p :     4.872075
      px      :     1.770144
      py      :     1.377779
      dz2     :     0.009760  d :     0.051175
      dxz     :     0.010842
      dyz     :     0.010295
      dx2y2   :     0.008020
      dxy     :     0.012259
      f0      :     0.000462  f :     0.004059
      f+1     :     0.000550
      f-1     :     0.000711
      f+2     :     0.000429
      f-2     :     0.000720
      f+3     :     0.000725
      f-3     :     0.000462
  4 H s       :     0.593622  s :     0.593622
      pz      :     0.017748  p :     0.046962
      px      :     0.015537
      py      :     0.013677
  5 H s       :     0.568337  s :     0.568337
      pz      :     0.011567  p :     0.042344
      px      :     0.012666
      py      :     0.018111
  6 O s       :     3.786955  s :     3.786955
      pz      :     1.556533  p :     4.908044
      px      :     1.577215
      py      :     1.774296
      dz2     :     0.016994  d :     0.051795
      dxz     :     0.006735
      dyz     :     0.007943
      dx2y2   :     0.008044
      dxy     :     0.012078
      f0      :     0.000617  f :     0.003963
      f+1     :     0.000749
      f-1     :     0.000529
      f+2     :     0.000415
      f-2     :     0.000424
      f+3     :     0.000425
      f-3     :     0.000805
  7 H s       :     0.556233  s :     0.556233
      pz      :     0.024505  p :     0.049326
      px      :     0.011846
      py      :     0.012974
  8 H s       :     0.565936  s :     0.565936
      pz      :     0.010626  p :     0.051117
      px      :     0.024266
      py      :     0.016225
  9 O s       :     3.794189  s :     3.794189
      pz      :     1.603733  p :     4.939020
      px      :     1.835864
      py      :     1.499422
      dz2     :     0.015606  d :     0.050528
      dxz     :     0.007725
      dyz     :     0.007992
      dx2y2   :     0.008900
      dxy     :     0.010305
      f0      :     0.000556  f :     0.003935
      f+1     :     0.000486
      f-1     :     0.000804
      f+2     :     0.000437
      f-2     :     0.000406
      f+3     :     0.000776
      f-3     :     0.000471
 10 H s       :     0.548136  s :     0.548136
      pz      :     0.025412  p :     0.050003
      px      :     0.013011
      py      :     0.011580
 11 H s       :     0.569526  s :     0.569526
      pz      :     0.010016  p :     0.054262
      px      :     0.015642
      py      :     0.028604
 12 O s       :     3.806743  s :     3.806743
      pz      :     1.518016  p :     4.891455
      px      :     1.508151
      py      :     1.865289
      dz2     :     0.016506  d :     0.051521
      dxz     :     0.008294
      dyz     :     0.007933
      dx2y2   :     0.008492
      dxy     :     0.010296
      f0      :     0.000565  f :     0.004005
      f+1     :     0.000818
      f-1     :     0.000493
      f+2     :     0.000439
      f-2     :     0.000407
      f+3     :     0.000482
      f-3     :     0.000802
 13 H s       :     0.618814  s :     0.618814
      pz      :     0.018541  p :     0.046389
      px      :     0.012737
      py      :     0.015111
 14 H s       :     0.554030  s :     0.554030
      pz      :     0.010162  p :     0.055455
      px      :     0.029185
      py      :     0.016109
 15 O s       :     3.797918  s :     3.797918
      pz      :     1.600290  p :     4.908207
      px      :     1.467412
      py      :     1.840505
      dz2     :     0.015903  d :     0.051387
      dxz     :     0.007994
      dyz     :     0.007841
      dx2y2   :     0.009040
      dxy     :     0.010609
      f0      :     0.000558  f :     0.003982
      f+1     :     0.000809
      f-1     :     0.000491
      f+2     :     0.000435
      f-2     :     0.000404
      f+3     :     0.000477
      f-3     :     0.000808
 16 H s       :     0.546617  s :     0.546617
      pz      :     0.025136  p :     0.049830
      px      :     0.011428
      py      :     0.013265
 17 H s       :     0.582588  s :     0.582588
      pz      :     0.009987  p :     0.043245
      px      :     0.018761
      py      :     0.014497
 18 O s       :     3.803925  s :     3.803925
      pz      :     1.696523  p :     4.908862
      px      :     1.798663
      py      :     1.413676
      dz2     :     0.009222  d :     0.050281
      dxz     :     0.010829
      dyz     :     0.009710
      dx2y2   :     0.007770
      dxy     :     0.012749
      f0      :     0.000451  f :     0.004004
      f+1     :     0.000542
      f-1     :     0.000675
      f+2     :     0.000439
      f-2     :     0.000714
      f+3     :     0.000719
      f-3     :     0.000463
 19 H s       :     0.611503  s :     0.611503
      pz      :     0.017390  p :     0.047522
      px      :     0.015744
      py      :     0.014389
 20 H s       :     0.544998  s :     0.544998
      pz      :     0.010890  p :     0.058276
      px      :     0.014711
      py      :     0.032675
 21 O s       :     3.800818  s :     3.800818
      pz      :     1.547424  p :     4.890545
      px      :     1.804125
      py      :     1.538995
      dz2     :     0.016543  d :     0.051724
      dxz     :     0.008396
      dyz     :     0.006663
      dx2y2   :     0.007687
      dxy     :     0.012436
      f0      :     0.000630  f :     0.004019
      f+1     :     0.000534
      f-1     :     0.000739
      f+2     :     0.000416
      f-2     :     0.000421
      f+3     :     0.000843
      f-3     :     0.000435
 22 H s       :     0.563040  s :     0.563040
      pz      :     0.024441  p :     0.050290
      px      :     0.013701
      py      :     0.012148
 23 H s       :     0.597263  s :     0.597263
      pz      :     0.011454  p :     0.052357
      px      :     0.017521
      py      :     0.023381


                     *******************************
                     * LOEWDIN POPULATION ANALYSIS *
                     *******************************

----------------------
LOEWDIN ATOMIC CHARGES
----------------------
   0 O :   -0.292576
   1 H :    0.168785
   2 H :    0.191813
   3 O :   -0.316610
   4 H :    0.162294
   5 H :    0.195121
   6 O :   -0.295019
   7 H :    0.157415
   8 H :    0.154212
   9 O :   -0.311561
  10 H :    0.158058
  11 H :    0.145771
  12 O :   -0.367093
  13 H :    0.155856
  14 H :    0.149305
  15 O :   -0.291405
  16 H :    0.160713
  17 H :    0.179284
  18 O :   -0.345744
  19 H :    0.150678
  20 H :    0.151175
  21 O :   -0.354835
  22 H :    0.153561
  23 H :    0.140802

-------------------------------
LOEWDIN REDUCED ORBITAL CHARGES
-------------------------------
  0 O s       :     3.458482  s :     3.458482
      pz      :     1.674885  p :     4.769553
      px      :     1.356806
      py      :     1.737862
      dz2     :     0.011054  d :     0.059715
      dxz     :     0.012105
      dyz     :     0.011077
      dx2y2   :     0.009806
      dxy     :     0.015674
      f0      :     0.000471  f :     0.004825
      f+1     :     0.000856
      f-1     :     0.000658
      f+2     :     0.000409
      f-2     :     0.001001
      f+3     :     0.000475
      f-3     :     0.000954
  1 H s       :     0.664146  s :     0.664146
      pz      :     0.067787  p :     0.167070
      px      :     0.045418
      py      :     0.053866
  2 H s       :     0.656248  s :     0.656248
      pz      :     0.034060  p :     0.151939
      px      :     0.073348
      py      :     0.044531
  3 O s       :     3.462648  s :     3.462648
      pz      :     1.700488  p :     4.790175
      px      :     1.730779
      py      :     1.358908
      dz2     :     0.010437  d :     0.058985
      dxz     :     0.011094
      dyz     :     0.012694
      dx2y2   :     0.009752
      dxy     :     0.015008
      f0      :     0.000456  f :     0.004802
      f+1     :     0.000657
      f-1     :     0.000858
      f+2     :     0.000408
      f-2     :     0.001021
      f+3     :     0.000929
      f-3     :     0.000473
  4 H s       :     0.671244  s :     0.671244
      pz      :     0.067578  p :     0.166461
      px      :     0.053602
      py      :     0.045281
  5 H s       :     0.652964  s :     0.652964
      pz      :     0.033776  p :     0.151915
      px      :     0.044210
      py      :     0.073929
  6 O s       :     3.443011  s :     3.443011
      pz      :     1.529652  p :     4.788394
      px      :     1.542318
      py      :     1.716423
      dz2     :     0.020907  d :     0.058783
      dxz     :     0.007323
      dyz     :     0.007340
      dx2y2   :     0.009068
      dxy     :     0.014145
      f0      :     0.000849  f :     0.004831
      f+1     :     0.000971
      f-1     :     0.000723
      f+2     :     0.000389
      f-2     :     0.000425
      f+3     :     0.000408
      f-3     :     0.001066
  7 H s       :     0.667790  s :     0.667790
      pz      :     0.094340  p :     0.174795
      px      :     0.037817
      py      :     0.042638
  8 H s       :     0.667784  s :     0.667784
      pz      :     0.031643  p :     0.178004
      px      :     0.087604
      py      :     0.058757
  9 O s       :     3.445782  s :     3.445782
      pz      :     1.553973  p :     4.803224
      px      :     1.775529
      py      :     1.473722
      dz2     :     0.019478  d :     0.057837
      dxz     :     0.006903
      dyz     :     0.009042
      dx2y2   :     0.010624
      dxy     :     0.011790
      f0      :     0.000752  f :     0.004718
      f+1     :     0.000585
      f-1     :     0.001129
      f+2     :     0.000411
      f-2     :     0.000420
      f+3     :     0.000970
      f-3     :     0.000452
 10 H s       :     0.663970  s :     0.663970
      pz      :     0.096962  p :     0.177973
      px      :     0.043164
      py      :     0.037846
 11 H s       :     0.665574  s :     0.665574
      pz      :     0.031762  p :     0.188656
      px      :     0.053555
      py      :     0.103338
 12 O s       :     3.466781  s :     3.466781
      pz      :     1.529036  p :     4.837253
      px      :     1.479932
      py      :     1.828284
      dz2     :     0.020513  d :     0.058266
      dxz     :     0.009771
      dyz     :     0.007057
      dx2y2   :     0.009437
      dxy     :     0.011489
      f0      :     0.000804  f :     0.004793
      f+1     :     0.001185
      f-1     :     0.000577
      f+2     :     0.000417
      f-2     :     0.000418
      f+3     :     0.000443
      f-3     :     0.000949
 13 H s       :     0.682133  s :     0.682133
      pz      :     0.080121  p :     0.162011
      px      :     0.037648
      py      :     0.044242
 14 H s       :     0.661916  s :     0.661916
      pz      :     0.029707  p :     0.188779
      px      :     0.105529
      py      :     0.053543
 15 O s       :     3.451923  s :     3.451923
      pz      :     1.551266  p :     4.775165
      px      :     1.448748
      py      :     1.775152
      dz2     :     0.020225  d :     0.059523
      dxz     :     0.009124
      dyz     :     0.006944
      dx2y2   :     0.010942
      dxy     :     0.012288
      f0      :     0.000759  f :     0.004793
      f+1     :     0.001136
      f-1     :     0.000595
      f+2     :     0.000410
      f-2     :     0.000416
      f+3     :     0.000452
      f-3     :     0.001025
 16 H s       :     0.663653  s :     0.663653
      pz      :     0.095802  p :     0.175634
      px      :     0.036592
      py      :     0.043241
 17 H s       :     0.662299  s :     0.662299
      pz      :     0.031210  p :     0.158417
      px      :     0.077047
      py      :     0.050161
 18 O s       :     3.457135  s :     3.457135
      pz      :     1.664327  p :     4.826094
      px      :     1.770927
      py      :     1.390840
      dz2     :     0.010268  d :     0.057758
      dxz     :     0.011423
      dyz     :     0.012516
      dx2y2   :     0.008841
      dxy     :     0.014710
      f0      :     0.000466  f :     0.004756
      f+1     :     0.000646
      f-1     :     0.000840
      f+2     :     0.000411
      f-2     :     0.001030
      f+3     :     0.000891
      f-3     :     0.000472
 19 H s       :     0.681238  s :     0.681238
      pz      :     0.066943  p :     0.168084
      px      :     0.054339
      py      :     0.046801
 20 H s       :     0.648850  s :     0.648850
      pz      :     0.034113  p :     0.199975
      px      :     0.048634
      py      :     0.117228
 21 O s       :     3.456989  s :     3.456989
      pz      :     1.528152  p :     4.834544
      px      :     1.779142
      py      :     1.527251
      dz2     :     0.020637  d :     0.058489
      dxz     :     0.007673
      dyz     :     0.007228
      dx2y2   :     0.007794
      dxy     :     0.015157
      f0      :     0.000858  f :     0.004813
      f+1     :     0.000702
      f-1     :     0.000969
      f+2     :     0.000389
      f-2     :     0.000420
      f+3     :     0.001099
      f-3     :     0.000376
 22 H s       :     0.671485  s :     0.671485
      pz      :     0.094791  p :     0.174954
      px      :     0.042810
      py      :     0.037353
 23 H s       :     0.683950  s :     0.683950
      pz      :     0.032558  p :     0.175248
      px      :     0.058754
      py      :     0.083936


                      *****************************
                      * MAYER POPULATION ANALYSIS *
                      *****************************

  NA   - Mulliken gross atomic population
  ZA   - Total nuclear charge
[...]
      f+1     :     0.000534
      f-1     :     0.000657
      f+2     :     0.000439
      f-2     :     0.000695
      f+3     :     0.000702
      f-3     :     0.000461
 19 H s       :     0.617234  s :     0.617234
      pz      :     0.017519  p :     0.048306
      px      :     0.016354
      py      :     0.014433
 20 H s       :     0.570269  s :     0.570269
      pz      :     0.011596  p :     0.058395
      px      :     0.015236
      py      :     0.031563
 21 O s       :     3.798861  s :     3.798861
      pz      :     1.542821  p :     4.871994
      px      :     1.796235
      py      :     1.532939
      dz2     :     0.015351  d :     0.049748
      dxz     :     0.008368
      dyz     :     0.006637
      dx2y2   :     0.007637
      dxy     :     0.011755
      f0      :     0.000613  f :     0.003950
      f+1     :     0.000525
      f-1     :     0.000718
      f+2     :     0.000417
      f-2     :     0.000420
      f+3     :     0.000821
      f-3     :     0.000436
 22 H s       :     0.576407  s :     0.576407
      pz      :     0.023591  p :     0.050764
      px      :     0.014555
      py      :     0.012619
 23 H s       :     0.610736  s :     0.610736
      pz      :     0.012209  p :     0.053061
      px      :     0.018025
      py      :     0.022827


                     *******************************
                     * LOEWDIN POPULATION ANALYSIS *
                     *******************************

----------------------
LOEWDIN ATOMIC CHARGES
----------------------
   0 O :   -0.286956
   1 H :    0.170382
   2 H :    0.192873
   3 O :   -0.313758
   4 H :    0.164337
   5 H :    0.195939
   6 O :   -0.286944
   7 H :    0.154226
   8 H :    0.149688
   9 O :   -0.302001
  10 H :    0.153139
  11 H :    0.139289
  12 O :   -0.368953
  13 H :    0.157369
  14 H :    0.141884
  15 O :   -0.282805
  16 H :    0.156661
  17 H :    0.179617
  18 O :   -0.342890
  19 H :    0.152679
  20 H :    0.143276
  21 O :   -0.354282
  22 H :    0.149857
  23 H :    0.137373

-------------------------------
LOEWDIN REDUCED ORBITAL CHARGES
-------------------------------
  0 O s       :     3.460216  s :     3.460216
      pz      :     1.669594  p :     4.763205
      px      :     1.362021
      py      :     1.731589
      dz2     :     0.010997  d :     0.058692
      dxz     :     0.011754
      dyz     :     0.011070
      dx2y2   :     0.009621
      dxy     :     0.015249
      f0      :     0.000474  f :     0.004844
      f+1     :     0.000862
      f-1     :     0.000659
      f+2     :     0.000409
      f-2     :     0.001002
      f+3     :     0.000478
      f-3     :     0.000959
  1 H s       :     0.662882  s :     0.662882
      pz      :     0.067670  p :     0.166736
      px      :     0.044641
      py      :     0.054425
  2 H s       :     0.655298  s :     0.655298
      pz      :     0.034701  p :     0.151829
      px      :     0.071896
      py      :     0.045231
  3 O s       :     3.464133  s :     3.464133
      pz      :     1.699707  p :     4.787010
      px      :     1.723356
      py      :     1.363947
      dz2     :     0.010286  d :     0.057796
      dxz     :     0.011052
      dyz     :     0.012308
      dx2y2   :     0.009545
      dxy     :     0.014605
      f0      :     0.000458  f :     0.004819
      f+1     :     0.000657
      f-1     :     0.000864
      f+2     :     0.000408
      f-2     :     0.001022
      f+3     :     0.000934
      f-3     :     0.000476
  4 H s       :     0.669415  s :     0.669415
      pz      :     0.067651  p :     0.166249
      px      :     0.054026
      py      :     0.044571
  5 H s       :     0.652436  s :     0.652436
      pz      :     0.034474  p :     0.151625
      px      :     0.044764
      py      :     0.072388
  6 O s       :     3.443336  s :     3.443336
      pz      :     1.531167  p :     4.780545
      px      :     1.543579
      py      :     1.705799
      dz2     :     0.020454  d :     0.058206
      dxz     :     0.007223
      dyz     :     0.007384
      dx2y2   :     0.009161
      dxy     :     0.013984
      f0      :     0.000852  f :     0.004856
      f+1     :     0.000978
      f-1     :     0.000725
      f+2     :     0.000391
      f-2     :     0.000425
      f+3     :     0.000409
      f-3     :     0.001076
  7 H s       :     0.670732  s :     0.670732
      pz      :     0.093532  p :     0.175042
      px      :     0.038280
      py      :     0.043230
  8 H s       :     0.671733  s :     0.671733
      pz      :     0.032118  p :     0.178579
      px      :     0.087345
      py      :     0.059116
  9 O s       :     3.446574  s :     3.446574
      pz      :     1.552664  p :     4.793131
      px      :     1.764851
      py      :     1.475616
      dz2     :     0.019296  d :     0.057540
      dxz     :     0.006979
      dyz     :     0.008886
      dx2y2   :     0.010647
      dxy     :     0.011733
      f0      :     0.000757  f :     0.004756
      f+1     :     0.000588
      f-1     :     0.001141
      f+2     :     0.000413
      f-2     :     0.000419
      f+3     :     0.000983
      f-3     :     0.000455
 10 H s       :     0.668583  s :     0.668583
      pz      :     0.096502  p :     0.178277
      px      :     0.043786
      py      :     0.037990
 11 H s       :     0.671298  s :     0.671298
      pz      :     0.032321  p :     0.189413
      px      :     0.054115
      py      :     0.102977
 12 O s       :     3.468250  s :     3.468250
      pz      :     1.530576  p :     4.838550
      px      :     1.482785
      py      :     1.825190
      dz2     :     0.019907  d :     0.057329
      dxz     :     0.009527
      dyz     :     0.007107
      dx2y2   :     0.009386
      dxy     :     0.011401
      f0      :     0.000801  f :     0.004823
      f+1     :     0.001199
      f-1     :     0.000577
      f+2     :     0.000420
      f-2     :     0.000417
      f+3     :     0.000446
      f-3     :     0.000964
 13 H s       :     0.680353  s :     0.680353
      pz      :     0.079492  p :     0.162278
      px      :     0.037736
      py      :     0.045050
 14 H s       :     0.668799  s :     0.668799
      pz      :     0.030114  p :     0.189317
      px      :     0.104973
      py      :     0.054230
 15 O s       :     3.452935  s :     3.452935
      pz      :     1.549826  p :     4.766280
      px      :     1.451254
      py      :     1.765200
      dz2     :     0.019913  d :     0.058775
      dxz     :     0.008937
      dyz     :     0.007029
      dx2y2   :     0.010819
      dxy     :     0.012076
      f0      :     0.000762  f :     0.004815
      f+1     :     0.001143
      f-1     :     0.000597
      f+2     :     0.000412
      f-2     :     0.000415
      f+3     :     0.000454
      f-3     :     0.001032
 16 H s       :     0.667520  s :     0.667520
      pz      :     0.095255  p :     0.175819
      px      :     0.036568
      py      :     0.043995
 17 H s       :     0.661973  s :     0.661973
      pz      :     0.031727  p :     0.158410
      px      :     0.075965
      py      :     0.050718
 18 O s       :     3.458700  s :     3.458700
      pz      :     1.658697  p :     4.822247
      px      :     1.769313
      py      :     1.394238
      dz2     :     0.010320  d :     0.057147
      dxz     :     0.011353
      dyz     :     0.012161
      dx2y2   :     0.008859
      dxy     :     0.014454
      f0      :     0.000469  f :     0.004796
      f+1     :     0.000647
      f-1     :     0.000852
      f+2     :     0.000412
      f-2     :     0.001032
      f+3     :     0.000908
      f-3     :     0.000476
 19 H s       :     0.679106  s :     0.679106
      pz      :     0.066908  p :     0.168215
      px      :     0.054916
      py      :     0.046391
 20 H s       :     0.656588  s :     0.656588
      pz      :     0.034671  p :     0.200136
      px      :     0.049182
      py      :     0.116283
 21 O s       :     3.457764  s :     3.457764
      pz      :     1.529341  p :     4.834153
      px      :     1.776611
      py      :     1.528201
      dz2     :     0.020093  d :     0.057528
      dxz     :     0.007702
      dyz     :     0.007116
      dx2y2   :     0.007757
      dxy     :     0.014860
      f0      :     0.000862  f :     0.004836
      f+1     :     0.000701
      f-1     :     0.000977
      f+2     :     0.000390
      f-2     :     0.000420
      f+3     :     0.001109
      f-3     :     0.000376
 22 H s       :     0.674826  s :     0.674826
      pz      :     0.093989  p :     0.175317
      px      :     0.043598
      py      :     0.037731
 23 H s       :     0.686532  s :     0.686532
      pz      :     0.033153  p :     0.176096
      px      :     0.059389
      py      :     0.083554


                      *****************************
                      * MAYER POPULATION ANALYSIS *
                      *****************************

  NA   - Mulliken gross atomic population
  ZA   - Total nuclear charge
  QA   - Mulliken gross atomic charge
  VA   - Mayer's total valence
  BVA  - Mayer's bonded valence
  FA   - Mayer's free valence

  ATOM       NA         ZA         QA         VA         BVA        FA
  0 O      8.7163     8.0000    -0.7163     2.1047     1.7190     0.3857
  1 H      0.6304     1.0000     0.3696     0.8836     0.8395     0.0441
  2 H      0.6279     1.0000     0.3721     0.8823     0.8355     0.0469
  3 O      8.7105     8.0000    -0.7105     2.0942     1.7095     0.3847
  4 H      0.6467     1.0000     0.3533     0.8945     0.8491     0.0454
  5 H      0.6185     1.0000     0.3815     0.8754     0.8296     0.0458
  6 O      8.7176     8.0000    -0.7176     2.0824     1.6981     0.3844
  7 H      0.6180     1.0000     0.3820     0.8857     0.8421     0.0435
  8 H      0.6340     1.0000     0.3660     0.9141     0.8697     0.0443
  9 O      8.7505     8.0000    -0.7505     2.0476     1.6575     0.3901
 10 H      0.6166     1.0000     0.3834     0.9034     0.8605     0.0428
 11 H      0.6459     1.0000     0.3541     0.9279     0.8809     0.0469
 12 O      8.7343     8.0000    -0.7343     2.0295     1.6421     0.3873
 13 H      0.6719     1.0000     0.3281     0.9138     0.8650     0.0488
 14 H      0.6326     1.0000     0.3674     0.9218     0.8769     0.0449
 15 O      8.7308     8.0000    -0.7308     2.0896     1.7018     0.3877
 16 H      0.6119     1.0000     0.3881     0.8906     0.8482     0.0424
 17 H      0.6346     1.0000     0.3654     0.8933     0.8465     0.0467
 18 O      8.7411     8.0000    -0.7411     2.0250     1.6358     0.3891
 19 H      0.6655     1.0000     0.3345     0.9090     0.8615     0.0475
 20 H      0.6287     1.0000     0.3713     0.9160     0.8708     0.0451
 21 O      8.7246     8.0000    -0.7246     2.0637     1.6784     0.3853
 22 H      0.6272     1.0000     0.3728     0.9002     0.8561     0.0440
 23 H      0.6638     1.0000     0.3362     0.9273     0.8803     0.0471

  Mayer bond orders larger than 0.100000
B(  0-O ,  1-H ) :   0.8291 B(  0-O ,  2-H ) :   0.8195 B(  3-O ,  4-H ) :   0.8412 
B(  3-O ,  5-H ) :   0.8135 B(  6-O ,  7-H ) :   0.8103 B(  6-O ,  8-H ) :   0.8023 
B(  6-O , 20-H ) :   0.1110 B(  9-O , 10-H ) :   0.7897 B(  9-O , 11-H ) :   0.7839 
B( 12-O , 13-H ) :   0.8566 B( 12-O , 14-H ) :   0.7833 B( 15-O , 16-H ) :   0.7953 
B( 15-O , 17-H ) :   0.8217 B( 18-O , 19-H ) :   0.8520 B( 18-O , 20-H ) :   0.7509 
B( 21-O , 22-H ) :   0.8154 B( 21-O , 23-H ) :   0.8428 


----------------------------------
MP2 DERIVATIVE INTEGRAL GENERATION
----------------------------------


Input Wavefunction Amplitudes       ... 12h2o.su.etal.mol1,2,3,4,6,7,10,11-orca.engrad-mp2.def2tzvp.frozencore.mp2tsaa.tmp
Input Correlated Electron Density   ... 12h2o.su.etal.mol1,2,3,4,6,7,10,11-orca.engrad-mp2.def2tzvp.frozencore.pmp2re
Input Energy Weighted Density       ... 12h2o.su.etal.mol1,2,3,4,6,7,10,11-orca.engrad-mp2.def2tzvp.frozencore.wmp2.tmp
Input SCF Electron Density          ... 12h2o.su.etal.mol1,2,3,4,6,7,10,11-orca.engrad-mp2.def2tzvp.frozencore.scfp

One-Electron Terms    ...
                        ... One-Electron Terms done
Prescreening matrices              ... done

Batch handling in the gradient evaluation:
Memory available                      ... 8000.0 MB
Memory per occupied orbital in Q2     ...   28.9 MB
Memory per occupied orbital in Q3     ...    0.1 MB
Total memory requirement per |i>      ...   29.0 MB
Max. Number of orbitals possible      ...    275
Number of orbitals treated per batch  ...     32
Number of batches to be done          ...      1
Batch   0: i=    8 ...    39

---------------------------------------
MP2 TOTAL ENERGY:     -610.582946206 Eh
---------------------------------------

The final MP2 gradient
  0:  -0.02494907   0.01218946   0.00247277
  1:   0.00023616   0.00219591  -0.00321534
  2:   0.02538634  -0.00988703  -0.00112641
  3:  -0.00362483  -0.02627519   0.00159761
  4:  -0.00223173  -0.00108721   0.00127295
  5:   0.00668229   0.02514503  -0.00429615
  6:   0.00026921   0.00337923  -0.00241725
  7:   0.00048957   0.00013824   0.00255038
  8:   0.00083161   0.00080351  -0.00027014
  9:   0.00534852   0.00435222  -0.00129456
 10:  -0.00152081   0.00055989   0.00382226
 11:  -0.00227496  -0.00880180   0.00156118
 12:   0.00062279   0.00033743  -0.00982631
 13:   0.00361927   0.00061122   0.00957097
 14:  -0.00569858   0.00080934  -0.00009601
 15:  -0.01493896   0.01046622  -0.00207258
 16:   0.00010165  -0.00065905  -0.00050077
 17:   0.01287321  -0.00639160   0.00262283
 18:   0.00327825   0.00376929  -0.00214076
 19:   0.00028680   0.00096952   0.00047077
 20:  -0.00319589  -0.00904853   0.00217020
 21:   0.00370135   0.00630579  -0.00024915
 22:  -0.00208531   0.00084410  -0.00219339
 23:  -0.00320687  -0.01072598   0.00158689

-----------------------------------
NORM OF THE MP2 GRADIENT:  0.065019
-----------------------------------

-------------------------   --------------------
FINAL SINGLE POINT ENERGY      -610.582946205941
-------------------------   --------------------


                            ***************************************
                            *     ORCA property calculations      *
                            ***************************************

                                    ---------------------
                                    Active property flags
                                    ---------------------
   (+) Dipole Moment


------------------------------------------------------------------------------
                       ORCA ELECTRIC PROPERTIES CALCULATION
------------------------------------------------------------------------------

Dipole Moment Calculation                       ... on
Quadrupole Moment Calculation                   ... off
Polarizability Calculation                      ... off
GBWName                                         ... 12h2o.su.etal.mol1,2,3,4,6,7,10,11-orca.engrad-mp2.def2tzvp.frozencore.gbw
Electron density file                           ... 12h2o.su.etal.mol1,2,3,4,6,7,10,11-orca.engrad-mp2.def2tzvp.frozencore.scfp
The origin for moment calculation is the CENTER OF MASS  = (-1.226157,  0.396895 -0.664134)

-------------
DIPOLE MOMENT
-------------
                                X             Y             Z
Electronic contribution:     -0.24536      -0.30059      -0.06237
Nuclear contribution   :     -0.25565      -2.15417       0.14168
                        -----------------------------------------
Total Dipole Moment    :     -0.50101      -2.45476       0.07932
                        -----------------------------------------
Magnitude (a.u.)       :      2.50662
Magnitude (Debye)      :      6.37132



--------------------
Rotational spectrum 
--------------------
 
Rotational constants in cm-1:     0.036044     0.018145     0.016737 
Rotational constants in MHz :  1080.557150   543.986167   501.776515 

 Dipole components along the rotational axes: 
x,y,z [a.u.] :    -0.306627     2.424291     0.558501 
x,y,z [Debye]:    -0.779383     6.162059     1.419597 

 

                         *** MP2 UNRELAXED DENSITY ***

------------------------------------------------------------------------------
                       ORCA ELECTRIC PROPERTIES CALCULATION
------------------------------------------------------------------------------

Dipole Moment Calculation                       ... on
Quadrupole Moment Calculation                   ... off
Polarizability Calculation                      ... off
GBWName                                         ... 12h2o.su.etal.mol1,2,3,4,6,7,10,11-orca.engrad-mp2.def2tzvp.frozencore.gbw
Electron density file                           ... 12h2o.su.etal.mol1,2,3,4,6,7,10,11-orca.engrad-mp2.def2tzvp.frozencore.pmp2ur
The origin for moment calculation is the CENTER OF MASS  = (-1.226157,  0.396895 -0.664134)

-------------
DIPOLE MOMENT
-------------
                                X             Y             Z
Electronic contribution:     -0.24572      -0.28510      -0.06469
Nuclear contribution   :     -0.25565      -2.15417       0.14168
                        -----------------------------------------
Total Dipole Moment    :     -0.50137      -2.43927       0.07699
                        -----------------------------------------
Magnitude (a.u.)       :      2.49145
Magnitude (Debye)      :      6.33276



--------------------
Rotational spectrum 
--------------------
 
Rotational constants in cm-1:     0.036044     0.018145     0.016737 
Rotational constants in MHz :  1080.557150   543.986167   501.776515 

 Dipole components along the rotational axes: 
x,y,z [a.u.] :    -0.305989     2.410305     0.551468 
x,y,z [Debye]:    -0.777762     6.126509     1.401721 

 

                           *** MP2 RELAXED DENSITY ***

------------------------------------------------------------------------------
                       ORCA ELECTRIC PROPERTIES CALCULATION
------------------------------------------------------------------------------

Dipole Moment Calculation                       ... on
Quadrupole Moment Calculation                   ... off
Polarizability Calculation                      ... off
GBWName                                         ... 12h2o.su.etal.mol1,2,3,4,6,7,10,11-orca.engrad-mp2.def2tzvp.frozencore.gbw
Electron density file                           ... 12h2o.su.etal.mol1,2,3,4,6,7,10,11-orca.engrad-mp2.def2tzvp.frozencore.pmp2re
The origin for moment calculation is the CENTER OF MASS  = (-1.226157,  0.396895 -0.664134)

-------------
DIPOLE MOMENT
-------------
                                X             Y             Z
Electronic contribution:     -0.23856      -0.29257      -0.07003
Nuclear contribution   :     -0.25565      -2.15417       0.14168
                        -----------------------------------------
Total Dipole Moment    :     -0.49422      -2.44673       0.07166
                        -----------------------------------------
Magnitude (a.u.)       :      2.49718
Magnitude (Debye)      :      6.34732



--------------------
Rotational spectrum 
--------------------
 
Rotational constants in cm-1:     0.036044     0.018145     0.016737 
Rotational constants in MHz :  1080.557150   543.986167   501.776515 

 Dipole components along the rotational axes: 
x,y,z [a.u.] :    -0.313528     2.413340     0.559798 
x,y,z [Debye]:    -0.796924     6.134224     1.422894 

 

Timings for individual modules:

Sum of individual times         ...      192.289 sec (=   3.205 min)
GTO integral calculation        ...        1.010 sec (=   0.017 min)   0.5 %
SCF iterations                  ...       28.567 sec (=   0.476 min)  14.9 %
MP2 module                      ...      162.712 sec (=   2.712 min)  84.6 %
                             ****ORCA TERMINATED NORMALLY****
TOTAL RUN TIME: 0 days 0 hours 3 minutes 13 seconds 342 msec
