73
Energy:   -664.36002587
C    2.91258987   0.62328940   2.32407005
H    3.73383578   0.42402975   1.66775386
H    2.11386708  -0.05655202   2.11251239
H    3.22834222   0.49793724   3.33870614
C    2.42572520   2.06895375   2.11284177
N    2.06323233   3.14531657   1.95557271
C    2.83589893   0.11877821  -4.25925165
H    2.95498483  -0.32882005  -5.22381089
H    3.79148238   0.20497779  -3.78561784
H    2.40285289   1.09113799  -4.36827770
C    1.91243935  -0.76055063  -3.39576847
N    1.22488172  -1.41525092  -2.75286599
C   -0.65567991   3.37939208   4.33127405
H   -1.69620431   3.61911289   4.40014403
H   -0.19387521   4.00343837   3.59493056
H   -0.18866677   3.54189113   5.28016386
C   -0.49490566   1.90233335   3.92624421
N   -0.37520193   0.80259599   3.62468109
C   -3.04457694  -0.46071637   1.96081278
H   -3.16640045   0.28557316   2.71785383
H   -2.01849621  -0.76107792   1.91791326
H   -3.65483322  -1.30815700   2.19390236
C   -3.46771928   0.11716274   0.59750566
N   -3.78276798   0.54742000  -0.41753845
C   -0.73801904   2.67273106   0.11298213
H   -0.11140774   3.28479423  -0.50153974
H   -0.69225492   3.01811230   1.12467207
H   -1.74716753   2.72985807  -0.23809466
C   -0.25331669   1.21250401   0.04664502
N    0.10756623   0.12529860  -0.00274597
C    0.46452127  -2.32633698   4.38162719
H   -0.41713633  -1.92196675   4.83336248
H    1.28211308  -1.65197380   4.52885833
H    0.69492905  -3.26969531   4.83094489
C    0.22511270  -2.52117625   2.87287896
N    0.04686214  -2.66624294   1.74954733
C    5.36165055  -1.48112704  -0.85042563
H    5.50647228  -0.42115068  -0.83100970
H    5.47155517  -1.83781477  -1.85321869
H    6.08899004  -1.95204109  -0.22263879
C    3.94820735  -1.81557330  -0.33864049
N    2.89583465  -2.06458375   0.04240681
C    1.29387446  -7.13903676  -1.35141243
H    2.21997113  -7.40574996  -0.88653697
H    1.32769539  -7.39890898  -2.38882348
H    0.49219072  -7.66606430  -0.87765695
C    1.06613555  -5.62261902  -1.20924269
N    0.89657359  -4.49357709  -1.10339085
C    2.70749702   3.93067743  -1.47903275
H    1.93777347   4.00390973  -2.21866972
H    3.56186775   4.49106932  -1.79669717
H    2.34852966   4.32322642  -0.55062184
C    3.10231374   2.45375252  -1.29352647
N    3.39627274   1.35411480  -1.15540862
C   -4.30879792  -2.65311035  -2.01793220
H   -4.34505216  -2.99080263  -3.03259950
H   -4.80373088  -1.70776875  -1.93875059
H   -4.79791465  -3.36571773  -1.38717501
C   -2.84032040  -2.50204892  -1.57935018
N   -1.74697213  -2.38957682  -1.25280593
C   -5.40960785   3.72361249   0.63026471
H   -5.47638649   3.00198718  -0.15694409
H   -5.24794313   4.69473832   0.21112484
H   -6.32059968   3.72451961   1.19150632
C   -4.23502353   3.36321205   1.55873830
N   -3.36049211   3.09487753   2.25002908
C   -1.89515631   0.48536749  -3.60175428
H   -1.52638521  -0.51451225  -3.50610617
H   -2.29980841   0.62398396  -4.58254032
H   -2.66020729   0.65458920  -2.87308419
C   -0.74241094   1.48139177  -3.37655717
N    0.11586038   2.22297712  -3.20888769
Na   0.55493649  -2.17434451  -0.55551914
