73
Energy:   -663.74960069
C    0.13105076   1.61695917   4.46323700
H    0.77080374   1.07276304   5.12615997
H   -0.64988691   2.08496337   5.02538246
H    0.70035036   2.36514374   3.95233887
C   -0.48511579   0.64979038   3.43536380
N   -0.94387979  -0.07031075   2.67006547
C    2.77288390   0.63758299  -1.15260107
H    2.69968188   1.70231800  -1.07591326
H    2.96193048   0.36542721  -2.16999563
H    3.57482265   0.28983641  -0.53545793
C    1.45195965  -0.00264462  -0.68691048
N    0.46847150  -0.47932318  -0.34018268
C   -4.83658235   0.61480427   3.92046471
H   -5.89008033   0.80153067   3.90721960
H   -4.34419544   1.38814004   4.47219473
H   -4.64769948  -0.33039214   4.38503559
C   -4.30085104   0.59340866   2.47681164
N   -3.90197472   0.57747865   1.40194631
C   -2.90266431  -4.96912205   0.10479198
H   -3.26255244  -5.40410076   1.01373326
H   -1.99745418  -5.45738431  -0.19032439
H   -3.63842320  -5.08747328  -0.66303022
C   -2.62857707  -3.47000521   0.32643338
N   -2.42450666  -2.35384459   0.49145547
C    1.02093047   3.88602295   0.56905001
H    1.33905429   4.21855265  -0.39693209
H    1.81684585   3.34908943   1.04140600
H    0.75657413   4.73212220   1.16832531
C   -0.20197985   2.96245960   0.41699387
N   -1.11249218   2.27482470   0.30378116
C    4.72170286  -0.58618533   2.82257151
H    5.43957241  -0.53294080   2.03090965
H    4.37525701  -1.59357915   2.92273171
H    5.17715817  -0.27289859   3.73871068
C    3.53161308   0.33617932   2.49926088
N    2.64553714   1.02292173   2.25854141
C    1.13534395  -2.84088940   2.14170685
H    1.50818083  -1.86828371   1.89689873
H    1.87079985  -3.37250815   2.70861534
H    0.24026282  -2.74458854   2.72002770
C    0.82847803  -3.61418357   0.84577112
N    0.60000240  -4.18993623  -0.11911195
C    3.44550081  -3.63823970  -2.22475944
H    3.21943373  -2.92958135  -2.99391300
H    2.61795860  -4.30487090  -2.09955632
H    4.31549152  -4.19733124  -2.49940811
C    3.70977477  -2.89405217  -0.90266103
N    3.90653874  -2.33997073   0.08170133
C    2.14109617   2.27918004  -5.12271903
H    2.14178656   1.22240691  -5.29043975
H    3.14941963   2.62855275  -5.04447835
H    1.65608245   2.76980285  -5.94061270
C    1.38692634   2.59117834  -3.81677687
N    0.82541262   2.82347525  -2.84444357
C   -3.77548553   4.41777035   1.25053709
H   -4.77534795   4.69647454   1.51034334
H   -3.80046822   3.68733711   0.46903710
H   -3.24037003   5.28132335   0.91464023
C   -3.07063971   3.82505064   2.48482868
N   -2.54584996   3.38374388   3.40381487
C   -2.00139916   1.44284098  -4.24145976
H   -1.17752085   1.02857946  -4.78414945
H   -1.80523385   2.47248642  -4.02640502
H   -2.89157396   1.36471463  -4.83000388
C   -2.18831348   0.66959033  -2.92284440
N   -2.32747970   0.09387007  -1.94107533
C   -0.57224248  -2.80973561  -2.96676136
H   -0.05993535  -3.74857422  -2.93476693
H   -1.42571144  -2.89078102  -3.60701246
H   -0.89026571  -2.54316872  -1.98050460
C    0.37649293  -1.72552013  -3.51079990
N    1.08286956  -0.91827243  -3.91586133
Na  -1.79729949  -0.04000449   0.39903348
