73
Energy:   -663.64364894
C    3.23533207  -2.31123045   3.29075241
H    3.35188812  -3.07853289   4.02734039
H    3.84789930  -1.47282241   3.54907863
H    3.53103318  -2.68760846   2.33377826
C    1.76034841  -1.87186561   3.23614704
N    0.66215604  -1.54473852   3.19549086
C    0.81669731   1.89994194   3.60305930
H    1.53552185   1.22146435   4.01276604
H   -0.03183799   1.35109144   3.25142018
H    0.50645291   2.59040337   4.35930696
C    1.44990497   2.67263000   2.43105195
N    1.92135685   3.24793138   1.55843921
C   -4.10395659   1.43227294  -0.01930654
H   -4.51970560   2.38947758   0.21693956
H   -3.53883675   1.07305112   0.81525822
H   -4.89389270   0.74439759  -0.23777289
C   -3.18201979   1.56165121  -1.24604767
N   -2.49559593   1.65797921  -2.15941220
C   -0.88549414   4.68685673  -0.17292781
H   -1.25295029   5.69162522  -0.15513892
H   -1.15451377   4.22506150  -1.09989745
H    0.17993371   4.69493034  -0.07445243
C   -1.50286558   3.89375974   0.99388395
N   -1.96252667   3.30326299   1.86262834
C    0.92887113   1.57906613  -1.36473665
H    1.48430790   0.85104439  -1.91824774
H    1.60283617   2.28905871  -0.93278671
H    0.25061737   2.08419826  -2.02026121
C    0.13562851   0.87800071  -0.24631212
N   -0.45497668   0.35602563   0.58640578
C    4.77295013   1.90777868  -0.07513734
H    4.43512635   2.80530348   0.39944089
H    4.68777038   2.01180245  -1.13665632
H    5.79552675   1.72996629   0.18489900
C    3.91001153   0.72221221   0.39536148
N    3.26751453  -0.16049591   0.74566924
C    3.58457354  -0.97386756  -5.44930924
H    2.66992291  -1.52900564  -5.43764190
H    4.41267458  -1.65119994  -5.46850805
H    3.61282632  -0.35123820  -6.31904112
C    3.66847750  -0.09615068  -4.18670352
N    3.73094782   0.55734944  -3.24663617
C   -0.67230869   1.27838117  -5.11389153
H   -1.68021079   1.45445868  -4.80079372
H   -0.65118033   1.11066165  -6.17045333
H   -0.07085023   2.13075374  -4.87596758
C   -0.11774173   0.03957037  -4.38629048
N    0.29515858  -0.88278058  -3.84455842
C    2.33596689  -2.46741747  -1.60805482
H    3.16548640  -3.06280921  -1.28820137
H    2.63038907  -1.43964493  -1.65162415
H    2.01906821  -2.78907979  -2.57811032
C    1.17442617  -2.62676956  -0.60954090
N    0.30960631  -2.74541445   0.13389811
C   -3.10003960  -5.91702330   3.69732477
H   -4.15305444  -5.91196825   3.50749756
H   -2.92805696  -5.93389076   4.75327769
H   -2.66125111  -6.78465857   3.25058908
C   -2.46353811  -4.65127379   3.09371560
N   -1.98963382  -3.70886574   2.64430114
C   -3.42537237   1.82620922   4.56665441
H   -3.51677116   1.53218915   5.59139761
H   -4.37901328   2.14471499   4.20056398
H   -2.72580313   2.63199346   4.48782723
C   -2.92815230   0.63123905   3.73213749
N   -2.55794935  -0.25847056   3.11080171
C   -2.72643570  -2.12079928  -2.79043385
H   -2.77201195  -1.16696449  -3.27315757
H   -3.55782019  -2.71814739  -3.10167997
H   -1.81428630  -2.61238529  -3.05731540
C   -2.77708114  -1.92635688  -1.26359817
N   -2.81478897  -1.78158568  -0.12679961
Na  -1.21668569  -1.65470427   1.68830107
