
                                 *****************
                                 * O   R   C   A *
                                 *****************

           --- An Ab Initio, DFT and Semiempirical electronic structure package ---

                  #######################################################
                  #                        -***-                        #
                  #          Department of theory and spectroscopy      #
                  #               Directorship: Frank Neese             #
                  #        Max Planck Institute fuer Kohlenforschung    #
                  #                Kaiser Wilhelm Platz 1               #
                  #                 D-45470 Muelheim/Ruhr               #
                  #                      Germany                        #
                  #                                                     #
                  #                  All rights reserved                #
                  #                        -***-                        #
                  #######################################################


                         Program Version 4.2.0 -  RELEASE  -


 With contributions from (in alphabetic order):
   Daniel Aravena         : Magnetic Suceptibility
   Michael Atanasov       : Ab Initio Ligand Field Theory (pilot matlab implementation)
   Alexander A. Auer      : GIAO ZORA, VPT2
   Ute Becker             : Parallelization
   Giovanni Bistoni       : ED, misc. LED, open-shell LED, HFLED
   Martin Brehm           : Molecular dynamics
   Dmytro Bykov           : SCF Hessian
   Vijay G. Chilkuri      : MRCI spin determinant printing, contributions to CSF-ICE
   Dipayan Datta          : RHF DLPNO-CCSD density
   Achintya Kumar Dutta   : EOM-CC, STEOM-CC
   Dmitry Ganyushin       : Spin-Orbit,Spin-Spin,Magnetic field MRCI
   Miquel Garcia          : C-PCM Hessian, Gaussian charge scheme
   Yang Guo               : DLPNO-NEVPT2, CIM, IAO-localization
   Andreas Hansen         : Spin unrestricted coupled pair/coupled cluster methods
   Benjamin Helmich-Paris : CASSCF linear response (MC-RPA)
   Lee Huntington         : MR-EOM, pCC
   Robert Izsak           : Overlap fitted RIJCOSX, COSX-SCS-MP3, EOM
   Christian Kollmar      : KDIIS, OOCD, Brueckner-CCSD(T), CCSD density
   Simone Kossmann        : Meta GGA functionals, TD-DFT gradient, OOMP2, MP2 Hessian
   Martin Krupicka        : AUTO-CI
   Lucas Lang             : DCDCAS
   Dagmar Lenk            : GEPOL surface, SMD
   Dimitrios Liakos       : Extrapolation schemes; Compound Job, initial MDCI parallelization
   Dimitrios Manganas     : Further ROCIS development; embedding schemes
   Dimitrios Pantazis     : SARC Basis sets
   Taras Petrenko         : DFT Hessian,TD-DFT gradient, ASA, ECA, R-Raman, ABS, FL, XAS/XES, NRVS
   Peter Pinski           : DLPNO-MP2, DLPNO-MP2 Gradient
   Christoph Reimann      : Effective Core Potentials
   Marius Retegan         : Local ZFS, SOC
   Christoph Riplinger    : Optimizer, TS searches, QM/MM, DLPNO-CCSD(T), (RO)-DLPNO pert. Triples
   Tobias Risthaus        : Range-separated hybrids, TD-DFT gradient, RPA, STAB
   Michael Roemelt        : Original ROCIS implementation
   Masaaki Saitow         : Open-shell DLPNO-CCSD energy and density
   Barbara Sandhoefer     : DKH picture change effects
   Avijit Sen             : IP-ROCIS
   Kantharuban Sivalingam : CASSCF convergence, NEVPT2, FIC-MRCI
   Bernardo de Souza      : ESD, SOC TD-DFT
   Georgi Stoychev        : AutoAux, RI-MP2 NMR
   Willem Van den Heuvel  : Paramagnetic NMR
   Boris Wezisla          : Elementary symmetry handling
   Frank Wennmohs         : Technical directorship


 We gratefully acknowledge several colleagues who have allowed us to
 interface, adapt or use parts of their codes:
   Stefan Grimme, W. Hujo, H. Kruse,             : VdW corrections, initial TS optimization,
                  C. Bannwarth                     DFT functionals, gCP, sTDA/sTD-DF
   Ed Valeev, F. Pavosevic, A. Kumar             : LibInt (2-el integral package), F12 methods
   Garnet Chan, S. Sharma, J. Yang, R. Olivares  : DMRG
   Ulf Ekstrom                                   : XCFun DFT Library
   Mihaly Kallay                                 : mrcc  (arbitrary order and MRCC methods)
   Andreas Klamt, Michael Diedenhofen            : otool_cosmo (COSMO solvation model)
   Jiri Pittner, Ondrej Demel                    : Mk-CCSD
   Frank Weinhold                                : gennbo (NPA and NBO analysis)
   Christopher J. Cramer and Donald G. Truhlar   : smd solvation model
   Lars Goerigk                                  : TD-DFT with DH, B97 family of functionals
   V. Asgeirsson, H. Jonsson                     : NEB implementation
   FAccTs GmbH                                   : IRC, NEB, NEB-TS, Multilevel, MM, QM/MM, CI optimization
   S Lehtola, MJT Oliveira, MAL Marques          : LibXC Library


 Your calculation uses the libint2 library for the computation of 2-el integrals
 For citations please refer to: http://libint.valeyev.net

 Your ORCA version has been built with support for libXC version: 4.2.3
 For citations please refer to: https://tddft.org/programs/libxc/

 This ORCA versions uses:
   CBLAS   interface :  Fast vector & matrix operations
   LAPACKE interface :  Fast linear algebra routines
   SCALAPACK package :  Parallel linear algebra routines


----- Orbital basis set information -----
Your calculation utilizes the basis: def2-TZVP
   F. Weigend and R. Ahlrichs, Phys. Chem. Chem. Phys. 7, 3297 (2005).

================================================================================
                                        WARNINGS
                       Please study these warnings very carefully!
================================================================================


WARNING: The frozen-core approximation for MP2-gradient calculations is turned on by default.

INFO   : the flag for use of LIBINT has been found!

================================================================================
                                       INPUT FILE
================================================================================
NAME = 12mecn.remya.etal.2.mol1,3,4-orca.engrad-mp2.def2tzvp.frozencore.inp
|  1> # 12mecn.remya.etal.2.mol1,3,4
|  2> ! MP2 def2-TZVP EnGrad TightSCF
|  3> 
|  4> %pal
|  5>     nprocs 6
|  6> end
|  7> 
|  8> %maxcore 8000
|  9> 
| 10> %scf
| 11>     ConvForced true
| 12> end
| 13> 
| 14> *xyz 0 1
| 15> C  -4.697980000  -0.249690000   1.746215000
| 16> H  -4.927570000   0.755530000   2.111799000
| 17> H  -3.709180000  -0.561560000   2.093253000
| 18> H  -5.432280000  -0.961520000   2.128066000
| 19> C  -4.714100000  -0.247110000   0.301670000
| 20> N  -4.729750000  -0.234960000  -0.865260000
| 21> C  -5.181310000   2.853865000  -1.626100000
| 22> H  -5.488260000   3.811434000  -2.053310000
| 23> H  -5.857590000   2.068112000  -1.968630000
| 24> H  -4.170750000   2.611402000  -1.966640000
| 25> C  -5.187260000   2.919160000  -0.181450000
| 26> N  -5.181700000   2.970641000   0.983640000
| 27> C  -1.509690000  -0.693960000  -1.610140000
| 28> H  -1.327010000  -1.692700000  -2.017370000
| 29> H  -0.742170000  -0.000650000  -1.964400000
| 30> H  -2.491920000  -0.334310000  -1.929350000
| 31> C  -1.473570000  -0.748120000  -0.167200000
| 32> N  -1.447490000  -0.793720000   0.998938000
| 33> *
| 34> 
| 35>                          ****END OF INPUT****
================================================================================

                     *******************************
                     * Energy+Gradient Calculation *
                     *******************************

---------------------------------
CARTESIAN COORDINATES (ANGSTROEM)
---------------------------------
  C     -4.697980   -0.249690    1.746215
  H     -4.927570    0.755530    2.111799
  H     -3.709180   -0.561560    2.093253
  H     -5.432280   -0.961520    2.128066
  C     -4.714100   -0.247110    0.301670
  N     -4.729750   -0.234960   -0.865260
  C     -5.181310    2.853865   -1.626100
  H     -5.488260    3.811434   -2.053310
  H     -5.857590    2.068112   -1.968630
  H     -4.170750    2.611402   -1.966640
  C     -5.187260    2.919160   -0.181450
  N     -5.181700    2.970641    0.983640
  C     -1.509690   -0.693960   -1.610140
  H     -1.327010   -1.692700   -2.017370
  H     -0.742170   -0.000650   -1.964400
  H     -2.491920   -0.334310   -1.929350
  C     -1.473570   -0.748120   -0.167200
  N     -1.447490   -0.793720    0.998938

----------------------------
CARTESIAN COORDINATES (A.U.)
----------------------------
  NO LB      ZA    FRAG     MASS         X           Y           Z
   0 C     6.0000    0    12.011   -8.877896   -0.471846    3.299868
   1 H     1.0000    0     1.008   -9.311758    1.427745    3.990722
   2 H     1.0000    0     1.008   -7.009334   -1.061195    3.955675
   3 H     1.0000    0     1.008  -10.265521   -1.817009    4.021462
   4 C     6.0000    0    12.011   -8.908358   -0.466970    0.570074
   5 N     7.0000    0    14.007   -8.937932   -0.444010   -1.635104
   6 C     6.0000    0    12.011   -9.791257    5.393023   -3.072884
   7 H     1.0000    0     1.008  -10.371308    7.202566   -3.880194
   8 H     1.0000    0     1.008  -11.069241    3.908165   -3.720172
   9 H     1.0000    0     1.008   -7.881575    4.934835   -3.716411
  10 C     6.0000    0    12.011   -9.802501    5.516413   -0.342891
  11 N     7.0000    0    14.007   -9.791994    5.613698    1.858810
  12 C     6.0000    0    12.011   -2.852901   -1.311394   -3.042724
  13 H     1.0000    0     1.008   -2.507685   -3.198739   -3.812277
  14 H     1.0000    0     1.008   -1.402498   -0.001228   -3.712178
  15 H     1.0000    0     1.008   -4.709046   -0.631754   -3.645943
  16 C     6.0000    0    12.011   -2.784644   -1.413742   -0.315962
  17 N     7.0000    0    14.007   -2.735360   -1.499913    1.887719

--------------------------------
INTERNAL COORDINATES (ANGSTROEM)
--------------------------------
 C      0   0   0     0.000000000000     0.00000000     0.00000000
 H      1   0   0     1.093997476028     0.00000000     0.00000000
 H      1   2   0     1.093354338878   110.23188073     0.00000000
 H      1   2   3     1.091654077582   109.94364040   119.12222513
 C      1   2   3     1.444637244371   109.27900475   240.05041290
 N      5   1   2     1.167098183488   179.48927802   358.44615688
 C      6   5   1     3.213039654257   104.39799359     6.47973253
 H      7   6   5     1.092549804980   167.07082291   221.82157082
 H      7   6   5     1.091828382260    57.96034434   237.06456529
 H      7   6   5     1.093612048017    74.37930683   112.94132335
 C      7   6   5     1.446137082722    78.89719288   359.44784141
 N     11   7   6     1.166240076083   179.48782841    75.23464559
 C      6   5   1     3.336811894309   102.05360307   112.84708689
 H     13   6   5     1.093933198555   111.70560639   108.16292756
 H     13   6   5     1.093282147526   131.49629836   255.54745959
 H     13   6   5     1.093626499085    32.13524685   201.45653336
 C     13   6   5     1.444407769157    78.83036115     1.46927785
 N     17  13   6     1.167320590688   179.82285150    38.98509084

---------------------------
INTERNAL COORDINATES (A.U.)
---------------------------
 C      0   0   0     0.000000000000     0.00000000     0.00000000
 H      1   0   0     2.067355620894     0.00000000     0.00000000
 H      1   2   0     2.066140267815   110.23188073     0.00000000
 H      1   2   3     2.062927239608   109.94364040   119.12222513
 C      1   2   3     2.729968754725   109.27900475   240.05041290
 N      5   1   2     2.205495938188   179.48927802   358.44615688
 C      6   5   1     6.071765003974   104.39799359     6.47973253
 H      7   6   5     2.064619919081   167.07082291   221.82157082
 H      7   6   5     2.063256627714    57.96034434   237.06456529
 H      7   6   5     2.066627267510    74.37930683   112.94132335
 C      7   6   5     2.732803038453    78.89719288   359.44784141
 N     11   7   6     2.203874350199   179.48782841    75.23464559
 C      6   5   1     6.305660640654   102.05360307   112.84708689
 H     13   6   5     2.067234154073   111.70560639   108.16292756
 H     13   6   5     2.066003845930   131.49629836   255.54745959
 H     13   6   5     2.066654576069    32.13524685   201.45653336
 C     13   6   5     2.729535109414    78.83036115     1.46927785
 N     17  13   6     2.205916226887   179.82285150    38.98509084

---------------------
BASIS SET INFORMATION
---------------------
There are 3 groups of distinct atoms

 Group   1 Type C   : 11s6p2d1f contracted to 5s3p2d1f pattern {62111/411/11/1}
 Group   2 Type H   : 5s1p contracted to 3s1p pattern {311/1}
 Group   3 Type N   : 11s6p2d1f contracted to 5s3p2d1f pattern {62111/411/11/1}

Atom   0C    basis set group =>   1
Atom   1H    basis set group =>   2
Atom   2H    basis set group =>   2
Atom   3H    basis set group =>   2
Atom   4C    basis set group =>   1
Atom   5N    basis set group =>   3
Atom   6C    basis set group =>   1
Atom   7H    basis set group =>   2
Atom   8H    basis set group =>   2
Atom   9H    basis set group =>   2
Atom  10C    basis set group =>   1
Atom  11N    basis set group =>   3
Atom  12C    basis set group =>   1
Atom  13H    basis set group =>   2
Atom  14H    basis set group =>   2
Atom  15H    basis set group =>   2
Atom  16C    basis set group =>   1
Atom  17N    basis set group =>   3


           ************************************************************
           *        Program running with 6 parallel MPI-processes     *
           *              working on a common directory               *
           ************************************************************
------------------------------------------------------------------------------
                           ORCA GTO INTEGRAL CALCULATION
------------------------------------------------------------------------------

                         BASIS SET STATISTICS AND STARTUP INFO

 # of primitive gaussian shells          ...  234
 # of primitive gaussian functions       ...  486
 # of contracted shells                  ...  135
 # of contracted basis functions         ...  333
 Highest angular momentum                ...    3
 Maximum contraction depth               ...    6
 Integral package used                   ... LIBINT
 Integral threshhold            Thresh   ...  2.500e-11
 Primitive cut-off              TCut     ...  2.500e-12


------------------------------ INTEGRAL EVALUATION ----------------------------


 * One electron integrals 
 Pre-screening matrix                    ... done
 Shell pair data                         ... done (   0.002 sec)



           ************************************************************
           *        Program running with 6 parallel MPI-processes     *
           *              working on a common directory               *
           ************************************************************
-------------------------------------------------------------------------------
                                 ORCA SCF
-------------------------------------------------------------------------------

------------
SCF SETTINGS
------------
Hamiltonian:
 Ab initio Hamiltonian  Method          .... Hartree-Fock(GTOs)


General Settings:
 Integral files         IntName         .... 12mecn.remya.etal.2.mol1,3,4-orca.engrad-mp2.def2tzvp.frozencore
 Hartree-Fock type      HFTyp           .... RHF
 Total Charge           Charge          ....    0
 Multiplicity           Mult            ....    1
 Number of Electrons    NEL             ....   66
 Basis Dimension        Dim             ....  333
 Nuclear Repulsion      ENuc            ....    362.6434991598 Eh

Convergence Acceleration:
 DIIS                   CNVDIIS         .... on
   Start iteration      DIISMaxIt       ....    12
   Startup error        DIISStart       ....  0.200000
   # of expansion vecs  DIISMaxEq       ....     5
   Bias factor          DIISBfac        ....   1.050
   Max. coefficient     DIISMaxC        ....  10.000
 Newton-Raphson         CNVNR           .... off
 SOSCF                  CNVSOSCF        .... on
   Start iteration      SOSCFMaxIt      ....   150
   Startup grad/error   SOSCFStart      ....  0.003300
 Level Shifting         CNVShift        .... on
   Level shift para.    LevelShift      ....    0.2500
   Turn off err/grad.   ShiftErr        ....    0.0010
 Zerner damping         CNVZerner       .... off
 Static damping         CNVDamp         .... on
   Fraction old density DampFac         ....    0.7000
   Max. Damping (<1)    DampMax         ....    0.9800
   Min. Damping (>=0)   DampMin         ....    0.0000
   Turn off err/grad.   DampErr         ....    0.1000
 Fernandez-Rico         CNVRico         .... off

SCF Procedure:
 Maximum # iterations   MaxIter         ....   125
 SCF integral mode      SCFMode         .... Direct
   Integral package                     .... LIBINT
 Reset frequency        DirectResetFreq ....    20
 Integral Threshold     Thresh          ....  2.500e-11 Eh
 Primitive CutOff       TCut            ....  2.500e-12 Eh

Convergence Tolerance:
 Convergence Check Mode ConvCheckMode   .... Total+1el-Energy
 Convergence forced     ConvForced      .... 1
 Energy Change          TolE            ....  1.000e-08 Eh
 1-El. energy change                    ....  1.000e-05 Eh
 Orbital Gradient       TolG            ....  1.000e-05
 Orbital Rotation angle TolX            ....  1.000e-05
 DIIS Error             TolErr          ....  5.000e-07


Diagonalization of the overlap matrix:
Smallest eigenvalue                        ... 1.452e-04
Time for diagonalization                   ...    0.017 sec
Threshold for overlap eigenvalues          ... 1.000e-08
Number of eigenvalues below threshold      ... 0
Time for construction of square roots      ...    0.008 sec
Total time needed                          ...    0.025 sec

-------------------
DFT GRID GENERATION
-------------------

General Integration Accuracy     IntAcc      ...  4.340
Radial Grid Type                 RadialGrid  ... Gauss-Chebyshev
Angular Grid (max. acc.)         AngularGrid ... Lebedev-110
Angular grid pruning method      GridPruning ... 3 (G Style)
Weight generation scheme         WeightScheme... Becke
Basis function cutoff            BFCut       ...    1.0000e-11
Integration weight cutoff        WCut        ...    1.0000e-14
Grids for H and He will be reduced by one unit

# of grid points (after initial pruning)     ...  22188 (   0.0 sec)
# of grid points (after weights+screening)   ...  20662 (   0.0 sec)
nearest neighbour list constructed           ...    0.0 sec
Grid point re-assignment to atoms done       ...    0.0 sec
Grid point division into batches done        ...    0.0 sec
Reduced shell lists constructed in    0.0 sec

Total number of grid points                  ...    20662
Total number of batches                      ...      330
Average number of points per batch           ...       62
Average number of grid points per atom       ...     1148
Average number of shells per batch           ...    76.50 (56.67%)
Average number of basis functions per batch  ...   187.75 (56.38%)
Average number of large shells per batch     ...    56.07 (73.30%)
Average number of large basis fcns per batch ...   133.04 (70.86%)
Maximum spatial batch extension              ...  17.55, 22.36, 17.74 au
Average spatial batch extension              ...   0.69,  0.73,  0.77 au

Time for grid setup =    0.072 sec

------------------------------
INITIAL GUESS: MODEL POTENTIAL
------------------------------
Loading Hartree-Fock densities                     ... done
Calculating cut-offs                               ... done
Setting up the integral package                    ... done
Initializing the effective Hamiltonian             ... done
Starting the Coulomb interaction                   ... done (   0.0 sec)
Reading the grid                                   ... done
Mapping shells                                     ... done
Starting the XC term evaluation                    ... done (   0.0 sec)
Transforming the Hamiltonian                       ... done (   0.0 sec)
Diagonalizing the Hamiltonian                      ... done (   0.0 sec)
Back transforming the eigenvectors                 ... done (   0.0 sec)
Now organizing SCF variables                       ... done
                      ------------------
                      INITIAL GUESS DONE (   0.3 sec)
                      ------------------
--------------
SCF ITERATIONS
--------------
ITER       Energy         Delta-E        Max-DP      RMS-DP      [F,P]     Damp
               ***  Starting incremental Fock matrix formation  ***
  0   -395.4612958454   0.000000000000 0.03668677  0.00083924  0.2693154 0.7000
  1   -395.6280674451  -0.166771599659 0.02634131  0.00066031  0.1877802 0.7000
                               ***Turning on DIIS***
  2   -395.7267123447  -0.098644899619 0.01583574  0.00044700  0.1417756 0.7000
  3   -396.6880661030  -0.961353758306 0.01124598  0.00030403  0.1052612 0.7000
  4   -396.6268894573   0.061176645693 0.02990339  0.00074428  0.0742139 0.0000
  5   -395.9577485331   0.669140924183 0.00503890  0.00010626  0.0059034 0.0000
                      *** Initiating the SOSCF procedure ***
                           *** Shutting down DIIS ***
                      *** Re-Reading the Fockian *** 
                      *** Removing any level shift *** 
ITER      Energy       Delta-E        Grad      Rot      Max-DP    RMS-DP
  6   -395.93918911   0.0185594251  0.001258  0.001258  0.003558  0.000064
               *** Restarting incremental Fock matrix formation ***
  7   -395.93080845   0.0083806618  0.000488  0.000767  0.002341  0.000045
  8   -395.93082784  -0.0000193890  0.000273  0.000504  0.002027  0.000038
  9   -395.93083276  -0.0000049285  0.000126  0.000152  0.000610  0.000010
 10   -395.93083332  -0.0000005531  0.000017  0.000029  0.000081  0.000002
 11   -395.93083335  -0.0000000283  0.000012  0.000036  0.000036  0.000001
 12   -395.93083336  -0.0000000150  0.000006  0.000011  0.000036  0.000001
                  ***Gradient check signals convergence***
              ***Rediagonalizing the Fockian in SOSCF/NRSCF***

               *****************************************************
               *                     SUCCESS                       *
               *           SCF CONVERGED AFTER  13 CYCLES          *
               *****************************************************


----------------
TOTAL SCF ENERGY
----------------

Total Energy       :         -395.93083336 Eh          -10773.82571 eV

Components:
Nuclear Repulsion  :          362.64349916 Eh            9868.03129 eV
Electronic Energy  :         -758.57433252 Eh          -20641.85700 eV
One Electron Energy:        -1254.44183745 Eh          -34135.09779 eV
Two Electron Energy:          495.86750492 Eh           13493.24079 eV

Virial components:
Potential Energy   :         -791.12193583 Eh          -21527.52231 eV
Kinetic Energy     :          395.19110246 Eh           10753.69661 eV
Virial Ratio       :            2.00187183


---------------
SCF CONVERGENCE
---------------

  Last Energy change         ...   -1.9066e-09  Tolerance :   1.0000e-08
  Last MAX-Density change    ...    1.5517e-05  Tolerance :   1.0000e-07
  Last RMS-Density change    ...    2.7922e-07  Tolerance :   5.0000e-09
  Last Orbital Gradient      ...    2.0820e-06  Tolerance :   1.0000e-05
  Last Orbital Rotation      ...    5.1849e-06  Tolerance :   1.0000e-05

             **** THE GBW FILE WAS UPDATED (12mecn.remya.etal.2.mol1,3,4-orca.engrad-mp2.def2tzvp.frozencore.gbw) ****
             **** DENSITY FILE WAS UPDATED (12mecn.remya.etal.2.mol1,3,4-orca.engrad-mp2.def2tzvp.frozencore.scfp) ****
             **** ENERGY FILE WAS UPDATED (12mecn.remya.etal.2.mol1,3,4-orca.engrad-mp2.def2tzvp.frozencore.en.tmp) ****
             **** THE GBW FILE WAS UPDATED (12mecn.remya.etal.2.mol1,3,4-orca.engrad-mp2.def2tzvp.frozencore.gbw) ****
             **** DENSITY FILE WAS UPDATED (12mecn.remya.etal.2.mol1,3,4-orca.engrad-mp2.def2tzvp.frozencore.scfp) ****
----------------
ORBITAL ENERGIES
----------------

  NO   OCC          E(Eh)            E(eV) 
   0   2.0000     -15.571543      -423.7232 
   1   2.0000     -15.571125      -423.7118 
   2   2.0000     -15.569611      -423.6707 
   3   2.0000     -11.285854      -307.1037 
   4   2.0000     -11.282625      -307.0158 
   5   2.0000     -11.282464      -307.0114 
   6   2.0000     -11.275922      -306.8334 
   7   2.0000     -11.274881      -306.8051 
   8   2.0000     -11.259531      -306.3874 
   9   2.0000      -1.220069       -33.1998 
  10   2.0000      -1.215728       -33.0816 
  11   2.0000      -1.213495       -33.0209 
  12   2.0000      -1.038070       -28.2473 
  13   2.0000      -1.037361       -28.2280 
  14   2.0000      -1.026994       -27.9459 
  15   2.0000      -0.696670       -18.9574 
  16   2.0000      -0.694364       -18.8946 
  17   2.0000      -0.685375       -18.6500 
  18   2.0000      -0.630810       -17.1652 
  19   2.0000      -0.630335       -17.1523 
  20   2.0000      -0.626108       -17.0373 
  21   2.0000      -0.622389       -16.9361 
  22   2.0000      -0.612102       -16.6561 
  23   2.0000      -0.608419       -16.5559 
  24   2.0000      -0.561053       -15.2670 
  25   2.0000      -0.556134       -15.1332 
  26   2.0000      -0.555906       -15.1270 
  27   2.0000      -0.463787       -12.6203 
  28   2.0000      -0.458876       -12.4866 
  29   2.0000      -0.458464       -12.4754 
  30   2.0000      -0.457460       -12.4481 
  31   2.0000      -0.456641       -12.4258 
  32   2.0000      -0.453206       -12.3324 
  33   0.0000       0.114909         3.1268 
  34   0.0000       0.143957         3.9173 
  35   0.0000       0.155393         4.2285 
  36   0.0000       0.164814         4.4848 
  37   0.0000       0.173236         4.7140 
  38   0.0000       0.174627         4.7518 
  39   0.0000       0.177999         4.8436 
  40   0.0000       0.186579         5.0771 
  41   0.0000       0.194516         5.2931 
  42   0.0000       0.205044         5.5795 
  43   0.0000       0.216248         5.8844 
  44   0.0000       0.217086         5.9072 
  45   0.0000       0.224555         6.1105 
  46   0.0000       0.230368         6.2686 
  47   0.0000       0.241193         6.5632 
  48   0.0000       0.257576         7.0090 
  49   0.0000       0.267190         7.2706 
  50   0.0000       0.276167         7.5149 
  51   0.0000       0.289035         7.8650 
  52   0.0000       0.315643         8.5891 
  53   0.0000       0.320313         8.7162 
  54   0.0000       0.323097         8.7919 
  55   0.0000       0.324989         8.8434 
  56   0.0000       0.331108         9.0099 
  57   0.0000       0.340856         9.2752 
  58   0.0000       0.356163         9.6917 
  59   0.0000       0.389558        10.6004 
  60   0.0000       0.402701        10.9580 
  61   0.0000       0.406162        11.0522 
  62   0.0000       0.413472        11.2512 
  63   0.0000       0.436487        11.8774 
  64   0.0000       0.456364        12.4183 
  65   0.0000       0.475286        12.9332 
  66   0.0000       0.476622        12.9695 
  67   0.0000       0.483593        13.1592 
  68   0.0000       0.509674        13.8689 
  69   0.0000       0.517736        14.0883 
  70   0.0000       0.529675        14.4132 
  71   0.0000       0.534417        14.5422 
  72   0.0000       0.547611        14.9013 
  73   0.0000       0.561221        15.2716 
  74   0.0000       0.571548        15.5526 
  75   0.0000       0.603612        16.4251 
  76   0.0000       0.608697        16.5635 
  77   0.0000       0.609790        16.5932 
  78   0.0000       0.616399        16.7731 
  79   0.0000       0.623472        16.9655 
  80   0.0000       0.634586        17.2680 
  81   0.0000       0.647501        17.6194 
  82   0.0000       0.660845        17.9825 
  83   0.0000       0.672023        18.2867 
  84   0.0000       0.679014        18.4769 
  85   0.0000       0.689267        18.7559 
  86   0.0000       0.706339        19.2205 
  87   0.0000       0.715558        19.4713 
  88   0.0000       0.721652        19.6371 
  89   0.0000       0.738458        20.0945 
  90   0.0000       0.759586        20.6694 
  91   0.0000       0.764921        20.8146 
  92   0.0000       0.777258        21.1503 
  93   0.0000       0.803175        21.8555 
  94   0.0000       0.815377        22.1875 
  95   0.0000       0.827661        22.5218 
  96   0.0000       0.835249        22.7283 
  97   0.0000       0.857949        23.3460 
  98   0.0000       0.862372        23.4663 
  99   0.0000       0.890277        24.2257 
 100   0.0000       0.910808        24.7843 
 101   0.0000       0.922855        25.1122 
 102   0.0000       0.937945        25.5228 
 103   0.0000       0.946756        25.7625 
 104   0.0000       0.958831        26.0911 
 105   0.0000       1.001704        27.2578 
 106   0.0000       1.027324        27.9549 
 107   0.0000       1.048780        28.5387 
 108   0.0000       1.070521        29.1304 
 109   0.0000       1.083115        29.4731 
 110   0.0000       1.110823        30.2270 
 111   0.0000       1.135231        30.8912 
 112   0.0000       1.149169        31.2705 
 113   0.0000       1.151157        31.3246 
 114   0.0000       1.166227        31.7346 
 115   0.0000       1.187422        32.3114 
 116   0.0000       1.217449        33.1285 
 117   0.0000       1.328713        36.1561 
 118   0.0000       1.337718        36.4011 
 119   0.0000       1.353196        36.8223 
 120   0.0000       1.393410        37.9166 
 121   0.0000       1.394741        37.9528 
 122   0.0000       1.424818        38.7713 
 123   0.0000       1.428859        38.8812 
 124   0.0000       1.440260        39.1915 
 125   0.0000       1.450321        39.4652 
 126   0.0000       1.457808        39.6690 
 127   0.0000       1.461055        39.7573 
 128   0.0000       1.468412        39.9575 
 129   0.0000       1.487483        40.4765 
 130   0.0000       1.490082        40.5472 
 131   0.0000       1.499579        40.8056 
 132   0.0000       1.509100        41.0647 
 133   0.0000       1.519875        41.3579 
 134   0.0000       1.529883        41.6302 
 135   0.0000       1.546750        42.0892 
 136   0.0000       1.564294        42.5666 
 137   0.0000       1.606046        43.7027 
 138   0.0000       1.697654        46.1955 
 139   0.0000       1.709274        46.5117 
 140   0.0000       1.736179        47.2438 
 141   0.0000       1.745811        47.5059 
 142   0.0000       1.756150        47.7873 
 143   0.0000       1.761524        47.9335 
 144   0.0000       1.768961        48.1359 
 145   0.0000       1.775526        48.3145 
 146   0.0000       1.778688        48.4006 
 147   0.0000       1.793737        48.8101 
 148   0.0000       1.806298        49.1519 
 149   0.0000       1.816001        49.4159 
 150   0.0000       1.837130        49.9909 
 151   0.0000       1.846430        50.2439 
 152   0.0000       1.855474        50.4900 
 153   0.0000       1.863817        50.7170 
 154   0.0000       1.869164        50.8625 
 155   0.0000       1.888469        51.3879 
 156   0.0000       1.941985        52.8441 
 157   0.0000       1.946846        52.9764 
 158   0.0000       1.965128        53.4738 
 159   0.0000       1.978452        53.8364 
 160   0.0000       1.986711        54.0612 
 161   0.0000       1.999848        54.4186 
 162   0.0000       2.022772        55.0424 
 163   0.0000       2.043940        55.6184 
 164   0.0000       2.053710        55.8843 
 165   0.0000       2.218238        60.3613 
 166   0.0000       2.234438        60.8022 
 167   0.0000       2.241501        60.9943 
 168   0.0000       2.251125        61.2562 
 169   0.0000       2.257216        61.4220 
 170   0.0000       2.271395        61.8078 
 171   0.0000       2.283116        62.1268 
 172   0.0000       2.315081        62.9966 
 173   0.0000       2.325097        63.2691 
 174   0.0000       2.374562        64.6151 
 175   0.0000       2.386434        64.9382 
 176   0.0000       2.427939        66.0676 
 177   0.0000       2.550918        69.4140 
 178   0.0000       2.558154        69.6109 
 179   0.0000       2.566648        69.8420 
 180   0.0000       2.576584        70.1124 
 181   0.0000       2.589331        70.4593 
 182   0.0000       2.600036        70.7506 
 183   0.0000       2.607710        70.9594 
 184   0.0000       2.619628        71.2837 
 185   0.0000       2.626103        71.4599 
 186   0.0000       2.641303        71.8735 
 187   0.0000       2.645932        71.9995 
 188   0.0000       2.653735        72.2118 
 189   0.0000       2.665925        72.5435 
 190   0.0000       2.684317        73.0440 
 191   0.0000       2.702933        73.5506 
 192   0.0000       2.716141        73.9099 
 193   0.0000       2.748555        74.7920 
 194   0.0000       2.751478        74.8715 
 195   0.0000       2.760775        75.1245 
 196   0.0000       2.763006        75.1852 
 197   0.0000       2.764228        75.2185 
 198   0.0000       2.783347        75.7387 
 199   0.0000       2.819850        76.7320 
 200   0.0000       2.845017        77.4168 
 201   0.0000       2.910332        79.1942 
 202   0.0000       2.911745        79.2326 
 203   0.0000       2.914707        79.3132 
 204   0.0000       2.916672        79.3667 
 205   0.0000       2.922849        79.5348 
 206   0.0000       2.930733        79.7493 
 207   0.0000       2.949039        80.2474 
 208   0.0000       2.954931        80.4078 
 209   0.0000       2.965555        80.6969 
 210   0.0000       2.970503        80.8315 
 211   0.0000       2.998810        81.6018 
 212   0.0000       3.007352        81.8342 
 213   0.0000       3.036946        82.6395 
 214   0.0000       3.044170        82.8361 
 215   0.0000       3.065873        83.4266 
 216   0.0000       3.094519        84.2061 
 217   0.0000       3.098538        84.3155 
 218   0.0000       3.100729        84.3751 
 219   0.0000       3.110069        84.6293 
 220   0.0000       3.142785        85.5195 
 221   0.0000       3.157332        85.9154 
 222   0.0000       3.215350        87.4941 
 223   0.0000       3.226138        87.7877 
 224   0.0000       3.253385        88.5291 
 225   0.0000       3.257120        88.6307 
 226   0.0000       3.262091        88.7660 
 227   0.0000       3.279699        89.2452 
 228   0.0000       3.283934        89.3604 
 229   0.0000       3.315098        90.2084 
 230   0.0000       3.328080        90.5617 
 231   0.0000       3.337581        90.8202 
 232   0.0000       3.340213        90.8918 
 233   0.0000       3.360132        91.4338 
 234   0.0000       3.370397        91.7132 
 235   0.0000       3.394708        92.3747 
 236   0.0000       3.429074        93.3099 
 237   0.0000       3.449524        93.8663 
 238   0.0000       3.451565        93.9219 
 239   0.0000       3.467169        94.3465 
 240   0.0000       3.477343        94.6233 
 241   0.0000       3.489647        94.9581 
 242   0.0000       3.511419        95.5506 
 243   0.0000       3.533077        96.1399 
 244   0.0000       3.568297        97.0983 
 245   0.0000       3.594406        97.8088 
 246   0.0000       3.659533        99.5810 
 247   0.0000       3.662350        99.6576 
 248   0.0000       3.669766        99.8594 
 249   0.0000       3.673633        99.9646 
 250   0.0000       3.679845       100.1337 
 251   0.0000       3.690160       100.4144 
 252   0.0000       3.803543       103.4997 
 253   0.0000       3.806915       103.5914 
 254   0.0000       3.809611       103.6648 
 255   0.0000       3.819604       103.9367 
 256   0.0000       3.832729       104.2939 
 257   0.0000       3.866551       105.2142 
 258   0.0000       3.936945       107.1297 
 259   0.0000       3.946039       107.3772 
 260   0.0000       3.952742       107.5596 
 261   0.0000       3.958498       107.7162 
 262   0.0000       3.967218       107.9535 
 263   0.0000       3.970558       108.0444 
 264   0.0000       3.980452       108.3136 
 265   0.0000       3.987875       108.5156 
 266   0.0000       4.014643       109.2440 
 267   0.0000       4.251591       115.6917 
 268   0.0000       4.252437       115.7147 
 269   0.0000       4.258718       115.8856 
 270   0.0000       4.267801       116.1328 
 271   0.0000       4.300226       117.0151 
 272   0.0000       4.310520       117.2952 
 273   0.0000       4.341294       118.1326 
 274   0.0000       4.344772       118.2273 
 275   0.0000       4.346114       118.2638 
 276   0.0000       4.347122       118.2912 
 277   0.0000       4.352685       118.4426 
 278   0.0000       4.355100       118.5083 
 279   0.0000       4.572828       124.4330 
 280   0.0000       4.587675       124.8370 
 281   0.0000       4.602299       125.2349 
 282   0.0000       4.751050       129.2826 
 283   0.0000       4.758320       129.4805 
 284   0.0000       4.769305       129.7794 
 285   0.0000       4.770456       129.8107 
 286   0.0000       4.791713       130.3891 
 287   0.0000       4.800927       130.6399 
 288   0.0000       4.850751       131.9957 
 289   0.0000       4.871283       132.5543 
 290   0.0000       4.882687       132.8647 
 291   0.0000       4.961448       135.0079 
 292   0.0000       4.967644       135.1765 
 293   0.0000       4.972699       135.3140 
 294   0.0000       4.982706       135.5863 
 295   0.0000       5.011196       136.3616 
 296   0.0000       5.017061       136.5212 
 297   0.0000       5.063752       137.7917 
 298   0.0000       5.068913       137.9321 
 299   0.0000       5.077921       138.1772 
 300   0.0000       5.081716       138.2805 
 301   0.0000       5.104104       138.8897 
 302   0.0000       5.124099       139.4338 
 303   0.0000       5.215256       141.9143 
 304   0.0000       5.223221       142.1311 
 305   0.0000       5.241950       142.6407 
 306   0.0000       5.559245       151.2748 
 307   0.0000       5.561055       151.3240 
 308   0.0000       5.583787       151.9426 
 309   0.0000       5.587457       152.0424 
 310   0.0000       5.598112       152.3324 
 311   0.0000       5.600334       152.3928 
 312   0.0000       6.022483       163.8801 
 313   0.0000       6.025412       163.9598 
 314   0.0000       6.029862       164.0809 
 315   0.0000       6.080597       165.4614 
 316   0.0000       6.082918       165.5246 
 317   0.0000       6.094547       165.8410 
 318   0.0000       6.102240       166.0504 
 319   0.0000       6.172170       167.9533 
 320   0.0000       6.191597       168.4819 
 321   0.0000       6.472595       176.1283 
 322   0.0000       6.478388       176.2859 
 323   0.0000       6.493519       176.6976 
 324   0.0000      23.486728       639.1064 
 325   0.0000      23.515163       639.8801 
 326   0.0000      23.519659       640.0025 
 327   0.0000      24.376279       663.3123 
 328   0.0000      24.394246       663.8012 
 329   0.0000      24.421331       664.5382 
 330   0.0000      33.430962       909.7027 
 331   0.0000      33.469561       910.7531 
 332   0.0000      33.530764       912.4185 

                    ********************************
                    * MULLIKEN POPULATION ANALYSIS *
                    ********************************

-----------------------
MULLIKEN ATOMIC CHARGES
-----------------------
   0 C :   -0.196333
   1 H :    0.193204
   2 H :    0.191847
   3 H :    0.143089
   4 C :   -0.006917
   5 N :   -0.324061
   6 C :   -0.144333
   7 H :    0.158425
   8 H :    0.171113
   9 H :    0.142399
  10 C :   -0.075311
  11 N :   -0.252600
  12 C :   -0.179014
  13 H :    0.152435
  14 H :    0.149803
  15 H :    0.189296
  16 C :   -0.060106
  17 N :   -0.252937
Sum of atomic charges:   -0.0000000

--------------------------------
MULLIKEN REDUCED ORBITAL CHARGES
--------------------------------
  0 C s       :     3.170696  s :     3.170696
      pz      :     0.761918  p :     2.961858
      px      :     1.098945
      py      :     1.100994
      dz2     :     0.017814  d :     0.060295
      dxz     :     0.009924
      dyz     :     0.010392
      dx2y2   :     0.010466
      dxy     :     0.011699
      f0      :     0.001774  f :     0.003484
      f+1     :     0.000177
      f-1     :     0.000182
      f+2     :     0.000048
      f-2     :     0.000074
      f+3     :     0.000495
      f-3     :     0.000734
  1 H s       :     0.783589  s :     0.783589
      pz      :     0.004666  p :     0.023207
      px      :     0.004162
      py      :     0.014379
  2 H s       :     0.784970  s :     0.784970
      pz      :     0.004577  p :     0.023183
      px      :     0.013999
      py      :     0.004607
  3 H s       :     0.834574  s :     0.834574
      pz      :     0.005059  p :     0.022337
      px      :     0.008774
      py      :     0.008503
  4 C s       :     3.257741  s :     3.257741
      pz      :     0.944280  p :     2.612299
      px      :     0.833186
      py      :     0.834833
      dz2     :     0.024074  d :     0.119474
      dxz     :     0.046982
      dyz     :     0.047223
      dx2y2   :     0.000792
      dxy     :     0.000403
      f0      :     0.003996  f :     0.017403
      f+1     :     0.006651
      f-1     :     0.006680
      f+2     :     0.000035
      f-2     :     0.000032
      f+3     :     0.000005
      f-3     :     0.000006
  5 N s       :     3.755952  s :     3.755952
      pz      :     1.271568  p :     3.512968
      px      :     1.123200
      py      :     1.118200
      dz2     :     0.010684  d :     0.052226
      dxz     :     0.020705
      dyz     :     0.020663
      dx2y2   :     0.000127
      dxy     :     0.000047
      f0      :     0.000615  f :     0.002916
      f+1     :     0.001147
      f-1     :     0.001148
      f+2     :     0.000002
      f-2     :     0.000001
      f+3     :     0.000002
      f-3     :     0.000001
  6 C s       :     3.127589  s :     3.127589
      pz      :     0.781001  p :     2.951408
      px      :     1.088329
      py      :     1.082077
      dz2     :     0.016827  d :     0.061865
      dxz     :     0.010341
      dyz     :     0.011934
      dx2y2   :     0.011567
      dxy     :     0.011196
      f0      :     0.001732  f :     0.003471
      f+1     :     0.000191
      f-1     :     0.000205
      f+2     :     0.000065
      f-2     :     0.000078
      f+3     :     0.000776
      f-3     :     0.000424
  7 H s       :     0.819340  s :     0.819340
      pz      :     0.005343  p :     0.022235
      px      :     0.004586
      py      :     0.012307
  8 H s       :     0.806124  s :     0.806124
      pz      :     0.004591  p :     0.022763
      px      :     0.007923
      py      :     0.010249
  9 H s       :     0.835104  s :     0.835104
      pz      :     0.004662  p :     0.022496
      px      :     0.013421
      py      :     0.004413
 10 C s       :     3.252928  s :     3.252928
      pz      :     0.960258  p :     2.690009
      px      :     0.870985
      py      :     0.858767
      dz2     :     0.024482  d :     0.114973
      dxz     :     0.044401
      dyz     :     0.044956
      dx2y2   :     0.000584
      dxy     :     0.000551
      f0      :     0.004084  f :     0.017401
      f+1     :     0.006550
      f-1     :     0.006635
      f+2     :     0.000054
      f-2     :     0.000070
      f+3     :     0.000002
      f-3     :     0.000005
 11 N s       :     3.740532  s :     3.740532
      pz      :     1.274280  p :     3.455535
      px      :     1.084067
      py      :     1.097188
      dz2     :     0.011090  d :     0.053591
      dxz     :     0.021146
      dyz     :     0.021101
      dx2y2   :     0.000167
      dxy     :     0.000088
      f0      :     0.000620  f :     0.002942
      f+1     :     0.001163
      f-1     :     0.001145
      f+2     :     0.000007
      f-2     :     0.000005
      f+3     :     0.000000
      f-3     :     0.000001
 12 C s       :     3.157424  s :     3.157424
      pz      :     0.780560  p :     2.956490
      px      :     1.096926
      py      :     1.079004
      dz2     :     0.017929  d :     0.061619
      dxz     :     0.010467
      dyz     :     0.011221
      dx2y2   :     0.010288
      dxy     :     0.011713
      f0      :     0.001711  f :     0.003480
      f+1     :     0.000213
      f-1     :     0.000202
      f+2     :     0.000067
      f-2     :     0.000057
      f+3     :     0.000352
      f-3     :     0.000879
 13 H s       :     0.825149  s :     0.825149
      pz      :     0.005183  p :     0.022415
      px      :     0.004041
      py      :     0.013192
 14 H s       :     0.827968  s :     0.827968
      pz      :     0.004782  p :     0.022228
      px      :     0.009187
      py      :     0.008259
 15 H s       :     0.787481  s :     0.787481
      pz      :     0.004338  p :     0.023223
      px      :     0.014090
      py      :     0.004795
 16 C s       :     3.243956  s :     3.243956
      pz      :     0.953732  p :     2.683018
      px      :     0.856807
      py      :     0.872479
      dz2     :     0.025166  d :     0.115728
      dxz     :     0.045273
      dyz     :     0.044306
      dx2y2   :     0.000458
      dxy     :     0.000525
      f0      :     0.004089  f :     0.017405
      f+1     :     0.006641
      f-1     :     0.006544
      f+2     :     0.000054
      f-2     :     0.000072
      f+3     :     0.000003
      f-3     :     0.000002
 17 N s       :     3.741253  s :     3.741253
      pz      :     1.275230  p :     3.455076
      px      :     1.097081
      py      :     1.082765
      dz2     :     0.011199  d :     0.053669
      dxz     :     0.021156
      dyz     :     0.021106
      dx2y2   :     0.000138
      dxy     :     0.000071
      f0      :     0.000622  f :     0.002938
      f+1     :     0.001147
      f-1     :     0.001155
      f+2     :     0.000007
      f-2     :     0.000006
      f+3     :     0.000001
      f-3     :     0.000000


                     *******************************
                     * LOEWDIN POPULATION ANALYSIS *
                     *******************************

----------------------
LOEWDIN ATOMIC CHARGES
----------------------
   0 C :   -0.241522
   1 H :    0.150987
   2 H :    0.150561
   3 H :    0.140357
   4 C :   -0.168873
   5 N :   -0.025912
   6 C :   -0.246718
   7 H :    0.140401
   8 H :    0.148129
   9 H :    0.144407
  10 C :   -0.185626
  11 N :   -0.004365
  12 C :   -0.245351
  13 H :    0.144562
  14 H :    0.141642
  15 H :    0.147981
  16 C :   -0.186204
  17 N :   -0.004456

-------------------------------
LOEWDIN REDUCED ORBITAL CHARGES
-------------------------------
  0 C s       :     2.812646  s :     2.812646
      pz      :     1.015667  p :     3.151611
      px      :     1.068645
      py      :     1.067299
      dz2     :     0.080752  d :     0.252347
      dxz     :     0.055493
      dyz     :     0.056903
      dx2y2   :     0.027707
      dxy     :     0.031490
      f0      :     0.007826  f :     0.024918
      f+1     :     0.004814
      f-1     :     0.004746
      f+2     :     0.002003
      f-2     :     0.002289
      f+3     :     0.001311
      f-3     :     0.001929
  1 H s       :     0.785080  s :     0.785080
      pz      :     0.012445  p :     0.063933
      px      :     0.013496
      py      :     0.037991
  2 H s       :     0.785571  s :     0.785571
      pz      :     0.012247  p :     0.063868
      px      :     0.037004
      py      :     0.014617
  3 H s       :     0.798784  s :     0.798784
      pz      :     0.012945  p :     0.060859
      px      :     0.024355
      py      :     0.023558
  4 C s       :     2.842438  s :     2.842438
      pz      :     1.197823  p :     2.798485
      px      :     0.800081
      py      :     0.800581
      dz2     :     0.154862  d :     0.467666
      dxz     :     0.155694
      dyz     :     0.155205
      dx2y2   :     0.001379
      dxy     :     0.000526
      f0      :     0.022743  f :     0.060284
      f+1     :     0.018678
      f-1     :     0.018712
      f+2     :     0.000074
      f-2     :     0.000055
      f+3     :     0.000009
      f-3     :     0.000012
  5 N s       :     3.301065  s :     3.301065
      pz      :     1.495437  p :     3.605481
      px      :     1.056939
      py      :     1.053105
      dz2     :     0.045271  d :     0.105486
      dxz     :     0.029989
      dyz     :     0.029987
      dx2y2   :     0.000183
      dxy     :     0.000057
      f0      :     0.006262  f :     0.013880
      f+1     :     0.003791
      f-1     :     0.003813
      f+2     :     0.000007
      f-2     :     0.000003
      f+3     :     0.000002
      f-3     :     0.000001
  6 C s       :     2.814032  s :     2.814032
      pz      :     1.020369  p :     3.147059
      px      :     1.063300
      py      :     1.063389
      dz2     :     0.078153  d :     0.260466
      dxz     :     0.057184
      dyz     :     0.062545
      dx2y2   :     0.031334
      dxy     :     0.031249
      f0      :     0.007520  f :     0.025161
      f+1     :     0.005160
      f-1     :     0.004709
      f+2     :     0.002354
      f-2     :     0.002137
      f+3     :     0.002109
      f-3     :     0.001172
  7 H s       :     0.798966  s :     0.798966
      pz      :     0.013655  p :     0.060633
      px      :     0.014509
      py      :     0.032470
  8 H s       :     0.789882  s :     0.789882
      pz      :     0.012219  p :     0.061989
      px      :     0.022519
      py      :     0.027251
  9 H s       :     0.795036  s :     0.795036
      pz      :     0.012218  p :     0.060557
      px      :     0.034714
      py      :     0.013625
 10 C s       :     2.840597  s :     2.840597
      pz      :     1.193572  p :     2.829971
      px      :     0.821117
      py      :     0.815282
      dz2     :     0.154803  d :     0.455557
      dxz     :     0.149304
      dyz     :     0.149344
      dx2y2   :     0.001107
      dxy     :     0.000999
      f0      :     0.022914  f :     0.059501
      f+1     :     0.017861
      f-1     :     0.018437
      f+2     :     0.000117
      f-2     :     0.000158
      f+3     :     0.000005
      f-3     :     0.000010
 11 N s       :     3.308004  s :     3.308004
      pz      :     1.494696  p :     3.573080
      px      :     1.037436
      py      :     1.040948
      dz2     :     0.045526  d :     0.109058
      dxz     :     0.031605
      dyz     :     0.031649
      dx2y2   :     0.000179
      dxy     :     0.000099
      f0      :     0.006245  f :     0.014223
      f+1     :     0.003974
      f-1     :     0.003961
      f+2     :     0.000023
      f-2     :     0.000018
      f+3     :     0.000000
      f-3     :     0.000001
 12 C s       :     2.813708  s :     2.813708
      pz      :     1.022485  p :     3.147952
      px      :     1.067988
      py      :     1.057479
      dz2     :     0.079068  d :     0.258422
      dxz     :     0.056024
      dyz     :     0.062320
      dx2y2   :     0.028175
      dxy     :     0.032835
      f0      :     0.007549  f :     0.025269
      f+1     :     0.005251
      f-1     :     0.004866
      f+2     :     0.002231
      f-2     :     0.002086
      f+3     :     0.000949
      f-3     :     0.002338
 13 H s       :     0.794841  s :     0.794841
      pz      :     0.013273  p :     0.060597
      px      :     0.013143
      py      :     0.034181
 14 H s       :     0.797799  s :     0.797799
      pz      :     0.012503  p :     0.060559
      px      :     0.025383
      py      :     0.022673
 15 H s       :     0.787979  s :     0.787979
      pz      :     0.011853  p :     0.064040
      px      :     0.037247
      py      :     0.014940
 16 C s       :     2.839952  s :     2.839952
      pz      :     1.193586  p :     2.829478
      px      :     0.813874
      py      :     0.822019
      dz2     :     0.154686  d :     0.457353
      dxz     :     0.151261
      dyz     :     0.149627
      dx2y2   :     0.000827
      dxy     :     0.000952
      f0      :     0.022883  f :     0.059421
      f+1     :     0.018320
      f-1     :     0.017923
      f+2     :     0.000119
      f-2     :     0.000165
      f+3     :     0.000007
      f-3     :     0.000004
 17 N s       :     3.309009  s :     3.309009
      pz      :     1.494278  p :     3.572390
      px      :     1.041053
      py      :     1.037059
      dz2     :     0.045523  d :     0.108914
      dxz     :     0.031450
      dyz     :     0.031681
      dx2y2   :     0.000178
      dxy     :     0.000081
      f0      :     0.006210  f :     0.014142
      f+1     :     0.003909
      f-1     :     0.003979
      f+2     :     0.000023
      f-2     :     0.000019
      f+3     :     0.000001
      f-3     :     0.000000


                      *****************************
                      * MAYER POPULATION ANALYSIS *
                      *****************************

  NA   - Mulliken gross atomic population
  ZA   - Total nuclear charge
  QA   - Mulliken gross atomic charge
  VA   - Mayer's total valence
  BVA  - Mayer's bonded valence
  FA   - Mayer's free valence

  ATOM       NA         ZA         QA         VA         BVA        FA
  0 C      6.1963     6.0000    -0.1963     3.7604     3.7604    -0.0000
  1 H      0.8068     1.0000     0.1932     0.9620     0.9620    -0.0000
  2 H      0.8082     1.0000     0.1918     0.9618     0.9618     0.0000
  3 H      0.8569     1.0000     0.1431     0.9624     0.9624     0.0000
  4 C      6.0069     6.0000    -0.0069     3.8230     3.8230    -0.0000
  5 N      7.3241     7.0000    -0.3241     2.9442     2.9442     0.0000
  6 C      6.1443     6.0000    -0.1443     3.7994     3.7994     0.0000
  7 H      0.8416     1.0000     0.1584     0.9565     0.9565    -0.0000
  8 H      0.8289     1.0000     0.1711     0.9659     0.9659     0.0000
  9 H      0.8576     1.0000     0.1424     0.9707     0.9707     0.0000
 10 C      6.0753     6.0000    -0.0753     3.8947     3.8947    -0.0000
 11 N      7.2526     7.0000    -0.2526     2.9891     2.9891    -0.0000
 12 C      6.1790     6.0000    -0.1790     3.7871     3.7871    -0.0000
 13 H      0.8476     1.0000     0.1524     0.9650     0.9650    -0.0000
 14 H      0.8502     1.0000     0.1498     0.9611     0.9611    -0.0000
 15 H      0.8107     1.0000     0.1893     0.9600     0.9600    -0.0000
 16 C      6.0601     6.0000    -0.0601     3.8673     3.8673     0.0000
 17 N      7.2529     7.0000    -0.2529     2.9915     2.9915    -0.0000

  Mayer bond orders larger than 0.100000
B(  0-C ,  1-H ) :   0.9505 B(  0-C ,  2-H ) :   0.9510 B(  0-C ,  3-H ) :   0.9621 
B(  0-C ,  4-C ) :   0.9173 B(  4-C ,  5-N ) :   2.9037 B(  6-C ,  7-H ) :   0.9579 
B(  6-C ,  8-H ) :   0.9575 B(  6-C ,  9-H ) :   0.9647 B(  6-C , 10-C ) :   0.9376 
B( 10-C , 11-N ) :   2.9543 B( 12-C , 13-H ) :   0.9610 B( 12-C , 14-H ) :   0.9655 
B( 12-C , 15-H ) :   0.9538 B( 12-C , 16-C ) :   0.9223 B( 16-C , 17-N ) :   2.9565 


-------
TIMINGS
-------

Total SCF time: 0 days 0 hours 0 min 53 sec 

Total time                  ....      53.185 sec
Sum of individual times     ....      52.895 sec  ( 99.5%)

Fock matrix formation       ....      52.317 sec  ( 98.4%)
Diagonalization             ....       0.142 sec  (  0.3%)
Density matrix formation    ....       0.017 sec  (  0.0%)
Population analysis         ....       0.014 sec  (  0.0%)
Initial guess               ....       0.195 sec  (  0.4%)
Orbital Transformation      ....       0.000 sec  (  0.0%)
Orbital Orthonormalization  ....       0.000 sec  (  0.0%)
DIIS solution               ....       0.052 sec  (  0.1%)
SOSCF solution              ....       0.084 sec  (  0.2%)


           ************************************************************
           *        Program running with 6 parallel MPI-processes     *
           *              working on a common directory               *
           ************************************************************

------------------------------------------------------------------------------
                                ORCA  MP2 
------------------------------------------------------------------------------

Freezing NCore=18 chemical core electrons
MP2 will be done in the AO integral direct mode
The Q1-step will be done using symmetric double matrices
Dimension of the basis                    ...  333
Memory devoted for MP2                    ... 8000 MB   
Memory needed for all in one shot         ...  566 MB
Number of MOs that can be treated together...   55      
MP2 density construction                  ... relaxed
The MP2 gradient is requested => amplitudes will be stored on disk
Total number of MOs              ...   24
Number of MOs treated per batch  ...    4 
Number of batches necessary      ...    1 
OPERATORS   0/  0 PASS   0
-----------------------------------------------
 MP2 CORRELATION ENERGY   :     -1.536413781 Eh
-----------------------------------------------


---------------------
MP2 DENSITY FORMATION
---------------------

Completing the external part of the density      ... done
Storing the unrelaxed density                    ... done

Calculating G(D)                                 ... done
Completing the Lagrangian                        ... done
Solving the Z-vector equations                   ... 

------------------------------------------------------------------------------
                           ORCA CP-SCF CALCULATION
------------------------------------------------------------------------------

Input orbitals are from        ... 12mecn.remya.etal.2.mol1,3,4-orca.engrad-mp2.def2tzvp.frozencore.gbw
Input Perturbation             ... 12mecn.remya.etal.2.mol1,3,4-orca.engrad-mp2.def2tzvp.frozencore.pin.tmp
Wavefunction output            ... 12mecn.remya.etal.2.mol1,3,4-orca.engrad-mp2.def2tzvp.frozencore.pout.tmp
Perturbation mode              ... Real perturbation (singlet)
Solver                         ... POPLE
Max. number of iterations      ... 128
Convergence tolerance          ... 1.000e-08
Integral handling              ... Direct
Number of perturbations        ... 1
Number of operators            ... 1
Orbital ranges used for CP-SCF:
 Operator 0:  Orbitals   0... 32  to  33...332
Variables per vector in CP-SCF ... 9900
Number of vectors sought       ... 1
     CP-SCF ITERATION   0: 
     CP-SCF ITERATION   1:      0.001637929007
     CP-SCF ITERATION   2:      0.000252492259
     CP-SCF ITERATION   3:      0.000010653167
     CP-SCF ITERATION   4:      0.000002971386
     CP-SCF ITERATION   5:      0.000001279050
     CP-SCF ITERATION   6:      0.000000144955
     CP-SCF ITERATION   7:      0.000000013672
     CP-SCF ITERATION   8:      0.000000000804
                                                 ... done
Finalizing the relaxed density                   ... done
Transforming P to the AO basis                   ... done
Storing the relaxed density                      ... done

------------------------------------
ENERGY WEIGHTED DENSITY FINALIZATION
------------------------------------

Gathering the parts of the W-matrix              ...                                                      done
Forming the Z-density                            ... done
Transforming Z to the AO basis                   ... done
Calculating G(Z)                                 ... done
Finalizing the W-matrix                          ...                                                      done
Transforming W to the AO basis and storing       ... done

                *********************************************
                * UNRELAXED MP2 DENSITY POPULATION ANALYSIS *
                *********************************************

------------------------------------------------------------------------------
                           ORCA POPULATION ANALYSIS
------------------------------------------------------------------------------
Input electron density              ... 12mecn.remya.etal.2.mol1,3,4-orca.engrad-mp2.def2tzvp.frozencore.pmp2ur
BaseName (.gbw .S,...)              ... 12mecn.remya.etal.2.mol1,3,4-orca.engrad-mp2.def2tzvp.frozencore

                    ********************************
                    * MULLIKEN POPULATION ANALYSIS *
                    ********************************

-----------------------
MULLIKEN ATOMIC CHARGES
-----------------------
   0 C :   -0.207724
   1 H :    0.195085
   2 H :    0.193753
   3 H :    0.145893
   4 C :   -0.019731
   5 N :   -0.306485
   6 C :   -0.158278
   7 H :    0.161143
   8 H :    0.173637
   9 H :    0.145278
  10 C :   -0.085177
  11 N :   -0.236945
  12 C :   -0.191583
  13 H :    0.155150
  14 H :    0.152492
  15 H :    0.191068
  16 C :   -0.070281
  17 N :   -0.237294
Sum of atomic charges:   -0.0000000

--------------------------------
MULLIKEN REDUCED ORBITAL CHARGES
--------------------------------
  0 C s       :     3.168585  s :     3.168585
      pz      :     0.760844  p :     2.945377
      px      :     1.091257
      py      :     1.093276
      dz2     :     0.020289  d :     0.086399
      dxz     :     0.016110
      dyz     :     0.016584
      dx2y2   :     0.016109
      dxy     :     0.017308
      f0      :     0.002171  f :     0.007363
      f+1     :     0.000841
      f-1     :     0.000851
      f+2     :     0.000591
      f-2     :     0.000616
      f+3     :     0.001039
      f-3     :     0.001254
  1 H s       :     0.779017  s :     0.779017
      pz      :     0.005645  p :     0.025898
      px      :     0.005169
      py      :     0.015084
  2 H s       :     0.780362  s :     0.780362
      pz      :     0.005562  p :     0.025886
      px      :     0.014720
      py      :     0.005604
  3 H s       :     0.828902  s :     0.828902
      pz      :     0.006061  p :     0.025205
      px      :     0.009704
      py      :     0.009440
  4 C s       :     3.256913  s :     3.256913
      pz      :     0.935143  p :     2.608082
      px      :     0.835722
      py      :     0.837217
      dz2     :     0.026371  d :     0.134401
      dxz     :     0.048854
      dyz     :     0.049083
      dx2y2   :     0.005235
      dxy     :     0.004858
      f0      :     0.004465  f :     0.020335
      f+1     :     0.007073
      f-1     :     0.007101
      f+2     :     0.000595
      f-2     :     0.000588
      f+3     :     0.000255
      f-3     :     0.000257
  5 N s       :     3.743710  s :     3.743710
      pz      :     1.259217  p :     3.481356
      px      :     1.113541
      py      :     1.108598
      dz2     :     0.015097  d :     0.075743
      dxz     :     0.025080
      dyz     :     0.025014
      dx2y2   :     0.005317
      dxy     :     0.005234
      f0      :     0.001048  f :     0.005676
      f+1     :     0.001599
      f-1     :     0.001599
      f+2     :     0.000425
      f-2     :     0.000423
      f+3     :     0.000291
      f-3     :     0.000290
  6 C s       :     3.126353  s :     3.126353
      pz      :     0.779869  p :     2.936928
      px      :     1.081408
      py      :     1.075651
      dz2     :     0.019370  d :     0.087669
      dxz     :     0.016497
      dyz     :     0.017990
      dx2y2   :     0.017112
      dxy     :     0.016700
      f0      :     0.002129  f :     0.007327
      f+1     :     0.000855
      f-1     :     0.000872
      f+2     :     0.000606
      f-2     :     0.000620
      f+3     :     0.001281
      f-3     :     0.000965
  7 H s       :     0.813780  s :     0.813780
      pz      :     0.006331  p :     0.025077
      px      :     0.005611
      py      :     0.013135
  8 H s       :     0.800827  s :     0.800827
      pz      :     0.005587  p :     0.025536
      px      :     0.008852
      py      :     0.011097
  9 H s       :     0.829383  s :     0.829383
      pz      :     0.005671  p :     0.025339
      px      :     0.014222
      py      :     0.005446
 10 C s       :     3.251927  s :     3.251927
      pz      :     0.951181  p :     2.682561
      px      :     0.871526
      py      :     0.859853
      dz2     :     0.026901  d :     0.130344
      dxz     :     0.046424
      dyz     :     0.046958
      dx2y2   :     0.005036
      dxy     :     0.005027
      f0      :     0.004550  f :     0.020345
      f+1     :     0.006987
      f-1     :     0.007060
      f+2     :     0.000609
      f-2     :     0.000624
      f+3     :     0.000257
      f-3     :     0.000260
 11 N s       :     3.728087  s :     3.728087
      pz      :     1.261952  p :     3.426927
      px      :     1.076255
      py      :     1.088720
      dz2     :     0.015389  d :     0.076260
      dxz     :     0.025288
      dyz     :     0.025316
      dx2y2   :     0.005173
      dxy     :     0.005094
      f0      :     0.001050  f :     0.005671
      f+1     :     0.001611
      f-1     :     0.001594
      f+2     :     0.000425
      f-2     :     0.000423
      f+3     :     0.000283
      f-3     :     0.000284
 12 C s       :     3.155663  s :     3.155663
      pz      :     0.779431  p :     2.941137
      px      :     1.089383
      py      :     1.072322
      dz2     :     0.020421  d :     0.087432
      dxz     :     0.016654
      dyz     :     0.017287
      dx2y2   :     0.015867
      dxy     :     0.017202
      f0      :     0.002111  f :     0.007352
      f+1     :     0.000876
      f-1     :     0.000870
      f+2     :     0.000607
      f-2     :     0.000600
      f+3     :     0.000907
      f-3     :     0.001381
 13 H s       :     0.819613  s :     0.819613
      pz      :     0.006169  p :     0.025236
      px      :     0.005081
      py      :     0.013986
 14 H s       :     0.822422  s :     0.822422
      pz      :     0.005790  p :     0.025087
      px      :     0.010103
      py      :     0.009193
 15 H s       :     0.782992  s :     0.782992
      pz      :     0.005337  p :     0.025940
      px      :     0.014814
      py      :     0.005789
 16 C s       :     3.243153  s :     3.243153
      pz      :     0.944692  p :     2.675636
      px      :     0.858050
      py      :     0.872894
      dz2     :     0.027594  d :     0.131136
      dxz     :     0.047276
      dyz     :     0.046344
      dx2y2   :     0.004918
      dxy     :     0.005004
      f0      :     0.004555  f :     0.020357
      f+1     :     0.007069
      f-1     :     0.006982
      f+2     :     0.000610
      f-2     :     0.000627
      f+3     :     0.000258
      f-3     :     0.000256
 17 N s       :     3.728781  s :     3.728781
      pz      :     1.262880  p :     3.426539
      px      :     1.088622
      py      :     1.075037
      dz2     :     0.015492  d :     0.076311
      dxz     :     0.025365
      dyz     :     0.025239
      dx2y2   :     0.005144
      dxy     :     0.005071
      f0      :     0.001052  f :     0.005664
      f+1     :     0.001596
      f-1     :     0.001602
      f+2     :     0.000425
      f-2     :     0.000423
      f+3     :     0.000283
      f-3     :     0.000283


                     *******************************
                     * LOEWDIN POPULATION ANALYSIS *
                     *******************************

----------------------
LOEWDIN ATOMIC CHARGES
----------------------
   0 C :   -0.249379
   1 H :    0.152566
   2 H :    0.152128
   3 H :    0.142033
   4 C :   -0.175663
   5 N :   -0.016025
   6 C :   -0.254886
   7 H :    0.142087
   8 H :    0.149799
   9 H :    0.146057
  10 C :   -0.191545
  11 N :    0.004680
  12 C :   -0.253380
  13 H :    0.146255
  14 H :    0.143299
  15 H :    0.149492
  16 C :   -0.192082
  17 N :    0.004564

-------------------------------
LOEWDIN REDUCED ORBITAL CHARGES
-------------------------------
  0 C s       :     2.810890  s :     2.810890
      pz      :     1.007111  p :     3.125889
      px      :     1.060064
      py      :     1.058715
      dz2     :     0.085907  d :     0.281615
      dxz     :     0.061604
      dyz     :     0.063019
      dx2y2   :     0.033714
      dxy     :     0.037371
      f0      :     0.008944  f :     0.030984
      f+1     :     0.005887
      f-1     :     0.005822
      f+2     :     0.002671
      f-2     :     0.002965
      f+3     :     0.002020
      f-3     :     0.002677
  1 H s       :     0.778887  s :     0.778887
      pz      :     0.013849  p :     0.068547
      px      :     0.014715
      py      :     0.039982
  2 H s       :     0.779369  s :     0.779369
      pz      :     0.013642  p :     0.068503
      px      :     0.038981
      py      :     0.015880
  3 H s       :     0.792275  s :     0.792275
      pz      :     0.014379  p :     0.065692
      px      :     0.026069
      py      :     0.025244
  4 C s       :     2.838887  s :     2.838887
      pz      :     1.185127  p :     2.782913
      px      :     0.798675
      py      :     0.799112
      dz2     :     0.162120  d :     0.486018
      dxz     :     0.156744
      dyz     :     0.156276
      dx2y2   :     0.005876
      dxy     :     0.005002
      f0      :     0.024376  f :     0.067845
      f+1     :     0.020708
      f-1     :     0.020741
      f+2     :     0.000756
      f-2     :     0.000736
      f+3     :     0.000262
      f-3     :     0.000265
  5 N s       :     3.293336  s :     3.293336
      pz      :     1.479158  p :     3.567175
      px      :     1.045909
      py      :     1.042109
      dz2     :     0.052389  d :     0.137108
      dxz     :     0.037128
      dyz     :     0.037082
      dx2y2   :     0.005335
      dxy     :     0.005175
      f0      :     0.007336  f :     0.018406
      f+1     :     0.004787
      f-1     :     0.004807
      f+2     :     0.000449
      f-2     :     0.000444
      f+3     :     0.000292
      f-3     :     0.000291
  6 C s       :     2.812260  s :     2.812260
      pz      :     1.011858  p :     3.122236
      px      :     1.055117
      py      :     1.055261
      dz2     :     0.083357  d :     0.289194
      dxz     :     0.063126
      dyz     :     0.068526
      dx2y2   :     0.037121
      dxy     :     0.037063
      f0      :     0.008637  f :     0.031195
      f+1     :     0.006223
      f-1     :     0.005774
      f+2     :     0.003032
      f-2     :     0.002812
      f+3     :     0.002855
      f-3     :     0.001863
  7 H s       :     0.792481  s :     0.792481
      pz      :     0.015121  p :     0.065432
      px      :     0.015786
      py      :     0.034526
  8 H s       :     0.783534  s :     0.783534
      pz      :     0.013608  p :     0.066667
      px      :     0.024108
      py      :     0.028951
  9 H s       :     0.788582  s :     0.788582
      pz      :     0.013624  p :     0.065362
      px      :     0.036854
      py      :     0.014883
 10 C s       :     2.837199  s :     2.837199
      pz      :     1.180971  p :     2.812531
      px      :     0.818543
      py      :     0.813016
      dz2     :     0.162081  d :     0.474675
      dxz     :     0.150711
      dyz     :     0.150779
      dx2y2   :     0.005621
      dxy     :     0.005483
      f0      :     0.024538  f :     0.067141
      f+1     :     0.019952
      f-1     :     0.020490
      f+2     :     0.000795
      f-2     :     0.000838
      f+3     :     0.000261
      f-3     :     0.000266
 11 N s       :     3.300221  s :     3.300221
      pz      :     1.478599  p :     3.536823
      px      :     1.027527
      py      :     1.030697
      dz2     :     0.052490  d :     0.139578
      dxz     :     0.038368
      dyz     :     0.038539
      dx2y2   :     0.005143
      dxy     :     0.005037
      f0      :     0.007317  f :     0.018698
      f+1     :     0.004946
      f-1     :     0.004946
      f+2     :     0.000464
      f-2     :     0.000457
      f+3     :     0.000283
      f-3     :     0.000285
 12 C s       :     2.811933  s :     2.811933
      pz      :     1.013941  p :     3.122876
      px      :     1.059515
      py      :     1.049419
      dz2     :     0.084269  d :     0.287252
      dxz     :     0.062042
      dyz     :     0.068250
      dx2y2   :     0.034048
      dxy     :     0.038643
      f0      :     0.008665  f :     0.031319
      f+1     :     0.006327
      f-1     :     0.005928
      f+2     :     0.002903
      f-2     :     0.002757
      f+3     :     0.001634
      f-3     :     0.003105
 13 H s       :     0.788388  s :     0.788388
      pz      :     0.014716  p :     0.065358
      px      :     0.014364
      py      :     0.036278
 14 H s       :     0.791328  s :     0.791328
      pz      :     0.013916  p :     0.065373
      px      :     0.027138
      py      :     0.024320
 15 H s       :     0.781808  s :     0.781808
      pz      :     0.013240  p :     0.068700
      px      :     0.039219
      py      :     0.016240
 16 C s       :     2.836563  s :     2.836563
      pz      :     1.180979  p :     2.812051
      px      :     0.811691
      py      :     0.819381
      dz2     :     0.161976  d :     0.476390
      dxz     :     0.152583
      dyz     :     0.151054
      dx2y2   :     0.005341
      dxy     :     0.005436
      f0      :     0.024509  f :     0.067078
      f+1     :     0.020387
      f-1     :     0.020016
      f+2     :     0.000798
      f-2     :     0.000846
      f+3     :     0.000263
      f-3     :     0.000259
 17 N s       :     3.301216  s :     3.301216
      pz      :     1.478186  p :     3.536218
      px      :     1.030822
      py      :     1.027210
      dz2     :     0.052482  d :     0.139390
      dxz     :     0.038327
      dyz     :     0.038426
      dx2y2   :     0.005137
      dxy     :     0.005017
      f0      :     0.007282  f :     0.018611
      f+1     :     0.004892
      f-1     :     0.004950
      f+2     :     0.000463
      f-2     :     0.000458
      f+3     :     0.000284
      f-3     :     0.000283


                      *****************************
                      * MAYER POPULATION ANALYSIS *
                      *****************************

  NA   - Mulliken gross atomic population
  ZA   - Total nuclear charge
  QA   - Mulliken gross atomic charge
  VA   - Mayer's total valence
  BVA  - Mayer's bonded valence
  FA   - Mayer's free valence

  ATOM       NA         ZA         QA         VA         BVA        FA
  0 C      6.2077     6.0000    -0.2077     3.8789     3.5935     0.2854
  1 H      0.8049     1.0000     0.1951     0.9689     0.9214     0.0475
  2 H      0.8062     1.0000     0.1938     0.9687     0.9212     0.0476
  3 H      0.8541     1.0000     0.1459     0.9703     0.9216     0.0486
  4 C      6.0197     6.0000    -0.0197     3.9240     3.4912     0.4328
  5 N      7.3065     7.0000    -0.3065     3.1581     2.6600     0.4981
  6 C      6.1583     6.0000    -0.1583     3.9185     3.6331     0.2854
  7 H      0.8389     1.0000     0.1611     0.9640     0.9165     0.0475
  8 H      0.8264     1.0000     0.1736     0.9727     0.9255     0.0472
  9 H      0.8547     1.0000     0.1453     0.9782     0.9298     0.0484
 10 C      6.0852     6.0000    -0.0852     3.9948     3.5589     0.4360
 11 N      7.2369     7.0000    -0.2369     3.1929     2.7010     0.4919
 12 C      6.1916     6.0000    -0.1916     3.9056     3.6206     0.2850
 13 H      0.8448     1.0000     0.1552     0.9725     0.9246     0.0478
 14 H      0.8475     1.0000     0.1525     0.9689     0.9207     0.0482
 15 H      0.8089     1.0000     0.1911     0.9672     0.9194     0.0478
 16 C      6.0703     6.0000    -0.0703     3.9683     3.5319     0.4364
 17 N      7.2373     7.0000    -0.2373     3.1952     2.7030     0.4922

  Mayer bond orders larger than 0.100000
B(  0-C ,  1-H ) :   0.9130 B(  0-C ,  2-H ) :   0.9135 B(  0-C ,  3-H ) :   0.9243 
B(  0-C ,  4-C ) :   0.8653 B(  4-C ,  5-N ) :   2.6277 B(  6-C ,  7-H ) :   0.9206 
B(  6-C ,  8-H ) :   0.9201 B(  6-C ,  9-H ) :   0.9267 B(  6-C , 10-C ) :   0.8854 
B( 10-C , 11-N ) :   2.6737 B( 12-C , 13-H ) :   0.9235 B( 12-C , 14-H ) :   0.9278 
B( 12-C , 15-H ) :   0.9161 B( 12-C , 16-C ) :   0.8705 B( 16-C , 17-N ) :   2.6755 



                *******************************************
                * RELAXED MP2 DENSITY POPULATION ANALYSIS *
                *******************************************

------------------------------------------------------------------------------
                           ORCA POPULATION ANALYSIS
------------------------------------------------------------------------------
Input electron density              ... 12mecn.remya.etal.2.mol1,3,4-orca.engrad-mp2.def2tzvp.frozencore.pmp2re
BaseName (.gbw .S,...)              ... 12mecn.remya.etal.2.mol1,3,4-orca.engrad-mp2.def2tzvp.frozencore

                    ********************************
                    * MULLIKEN POPULATION ANALYSIS *
                    ********************************

-----------------------
MULLIKEN ATOMIC CHARGES
-----------------------
   0 C :   -0.293676
   1 H :    0.200917
   2 H :    0.200363
   3 H :    0.160874
   4 C :   -0.064758
   5 N :   -0.203591
   6 C :   -0.264099
   7 H :    0.173805
   8 H :    0.185772
   9 H :    0.161819
  10 C :   -0.116411
  11 N :   -0.140376
  12 C :   -0.286595
  13 H :    0.169528
  14 H :    0.166836
  15 H :    0.196374
  16 C :   -0.104239
  17 N :   -0.142544
Sum of atomic charges:   -0.0000000

--------------------------------
MULLIKEN REDUCED ORBITAL CHARGES
--------------------------------
  0 C s       :     3.199987  s :     3.199987
      pz      :     0.807036  p :     3.011189
      px      :     1.101179
      py      :     1.102974
      dz2     :     0.015901  d :     0.075435
      dxz     :     0.016215
      dyz     :     0.016571
      dx2y2   :     0.012962
      dxy     :     0.013785
      f0      :     0.001913  f :     0.007066
      f+1     :     0.000898
      f-1     :     0.000906
      f+2     :     0.000580
      f-2     :     0.000605
      f+3     :     0.000987
      f-3     :     0.001177
  1 H s       :     0.774320  s :     0.774320
      pz      :     0.005727  p :     0.024763
      px      :     0.005331
      py      :     0.013706
  2 H s       :     0.774879  s :     0.774879
      pz      :     0.005661  p :     0.024758
      px      :     0.013397
      py      :     0.005699
  3 H s       :     0.814967  s :     0.814967
      pz      :     0.006053  p :     0.024158
      px      :     0.009176
      py      :     0.008929
  4 C s       :     3.238387  s :     3.238387
      pz      :     0.951071  p :     2.697726
      px      :     0.872596
      py      :     0.874059
      dz2     :     0.022758  d :     0.109683
      dxz     :     0.038330
      dyz     :     0.038529
      dx2y2   :     0.005234
      dxy     :     0.004831
      f0      :     0.004324  f :     0.018962
      f+1     :     0.006459
      f-1     :     0.006493
      f+2     :     0.000591
      f-2     :     0.000584
      f+3     :     0.000255
      f-3     :     0.000256
  5 N s       :     3.701442  s :     3.701442
      pz      :     1.246731  p :     3.429809
      px      :     1.094039
      py      :     1.089039
      dz2     :     0.013990  d :     0.067129
      dxz     :     0.021330
      dyz     :     0.021221
      dx2y2   :     0.005351
      dxy     :     0.005237
      f0      :     0.000922  f :     0.005211
      f+1     :     0.001431
      f-1     :     0.001428
[...]
      f+1     :     0.006408
      f-1     :     0.006445
      f+2     :     0.000603
      f-2     :     0.000616
      f+3     :     0.000256
      f-3     :     0.000259
 11 N s       :     3.677407  s :     3.677407
      pz      :     1.249641  p :     3.390361
      px      :     1.069289
      py      :     1.071431
      dz2     :     0.014296  d :     0.067404
      dxz     :     0.021367
      dyz     :     0.021480
      dx2y2   :     0.005179
      dxy     :     0.005082
      f0      :     0.000928  f :     0.005203
      f+1     :     0.001438
      f-1     :     0.001423
      f+2     :     0.000424
      f-2     :     0.000422
      f+3     :     0.000283
      f-3     :     0.000284
 12 C s       :     3.190241  s :     3.190241
      pz      :     0.826439  p :     3.012547
      px      :     1.099954
      py      :     1.086154
      dz2     :     0.016116  d :     0.076730
      dxz     :     0.016879
      dyz     :     0.017251
      dx2y2   :     0.012764
      dxy     :     0.013719
      f0      :     0.001868  f :     0.007076
      f+1     :     0.000931
      f-1     :     0.000928
      f+2     :     0.000596
      f-2     :     0.000590
      f+3     :     0.000872
      f-3     :     0.001290
 13 H s       :     0.806350  s :     0.806350
      pz      :     0.006150  p :     0.024123
      px      :     0.005269
      py      :     0.012703
 14 H s       :     0.809151  s :     0.809151
      pz      :     0.005845  p :     0.024013
      px      :     0.009495
      py      :     0.008674
 15 H s       :     0.778834  s :     0.778834
      pz      :     0.005488  p :     0.024792
      px      :     0.013482
      py      :     0.005822
 16 C s       :     3.222357  s :     3.222357
      pz      :     0.970795  p :     2.756997
      px      :     0.890589
      py      :     0.895613
      dz2     :     0.022931  d :     0.105893
      dxz     :     0.036826
      dyz     :     0.036296
      dx2y2   :     0.004892
      dxy     :     0.004949
      f0      :     0.004387  f :     0.018991
      f+1     :     0.006460
      f-1     :     0.006408
      f+2     :     0.000604
      f-2     :     0.000619
      f+3     :     0.000258
      f-3     :     0.000256
 17 N s       :     3.678773  s :     3.678773
      pz      :     1.250462  p :     3.391122
      px      :     1.072091
      py      :     1.068569
      dz2     :     0.014400  d :     0.067454
      dxz     :     0.021522
      dyz     :     0.021320
      dx2y2   :     0.005149
      dxy     :     0.005062
      f0      :     0.000930  f :     0.005195
      f+1     :     0.001423
      f-1     :     0.001430
      f+2     :     0.000424
      f-2     :     0.000422
      f+3     :     0.000284
      f-3     :     0.000283


                     *******************************
                     * LOEWDIN POPULATION ANALYSIS *
                     *******************************

----------------------
LOEWDIN ATOMIC CHARGES
----------------------
   0 C :   -0.280004
   1 H :    0.157375
   2 H :    0.157084
   3 H :    0.149596
   4 C :   -0.198615
   5 N :    0.019705
   6 C :   -0.286005
   7 H :    0.148993
   8 H :    0.155610
   9 H :    0.153011
  10 C :   -0.209953
  11 N :    0.035063
  12 C :   -0.284132
  13 H :    0.153378
  14 H :    0.150574
  15 H :    0.154010
  16 C :   -0.210368
  17 N :    0.034678

-------------------------------
LOEWDIN REDUCED ORBITAL CHARGES
-------------------------------
  0 C s       :     2.816078  s :     2.816078
      pz      :     1.026468  p :     3.161331
      px      :     1.068304
      py      :     1.066559
      dz2     :     0.077611  d :     0.271385
      dxz     :     0.063803
      dyz     :     0.065154
      dx2y2   :     0.030928
      dxy     :     0.033888
      f0      :     0.008325  f :     0.031210
      f+1     :     0.006369
      f-1     :     0.006303
      f+2     :     0.002664
      f-2     :     0.002950
      f+3     :     0.001981
      f-3     :     0.002619
  1 H s       :     0.774003  s :     0.774003
      pz      :     0.014370  p :     0.068622
      px      :     0.015168
      py      :     0.039084
  2 H s       :     0.774307  s :     0.774307
      pz      :     0.014182  p :     0.068609
      px      :     0.038157
      py      :     0.016269
  3 H s       :     0.784194  s :     0.784194
      pz      :     0.014879  p :     0.066211
      px      :     0.026078
      py      :     0.025253
  4 C s       :     2.842168  s :     2.842168
      pz      :     1.172131  p :     2.822189
      px      :     0.824886
      py      :     0.825172
      dz2     :     0.164320  d :     0.467095
      dxz     :     0.146293
      dyz     :     0.145800
      dx2y2   :     0.005755
      dxy     :     0.004927
      f0      :     0.025514  f :     0.067163
      f+1     :     0.019812
      f-1     :     0.019850
      f+2     :     0.000741
      f-2     :     0.000721
      f+3     :     0.000261
      f-3     :     0.000264
  5 N s       :     3.294448  s :     3.294448
      pz      :     1.467457  p :     3.532649
      px      :     1.034426
      py      :     1.030766
      dz2     :     0.052843  d :     0.134303
      dxz     :     0.035503
      dyz     :     0.035421
      dx2y2   :     0.005360
      dxy     :     0.005177
      f0      :     0.007408  f :     0.018895
      f+1     :     0.004997
      f-1     :     0.005013
      f+2     :     0.000449
      f-2     :     0.000444
      f+3     :     0.000292
      f-3     :     0.000291
  6 C s       :     2.817473  s :     2.817473
      pz      :     1.030184  p :     3.158696
      px      :     1.063973
      py      :     1.064539
      dz2     :     0.075630  d :     0.278446
      dxz     :     0.064740
      dyz     :     0.070432
      dx2y2   :     0.033787
      dxy     :     0.033857
      f0      :     0.008093  f :     0.031390
      f+1     :     0.006636
      f-1     :     0.006243
      f+2     :     0.003016
      f-2     :     0.002797
      f+3     :     0.002783
      f-3     :     0.001822
  7 H s       :     0.785179  s :     0.785179
      pz      :     0.015554  p :     0.065828
      px      :     0.016166
      py      :     0.034107
  8 H s       :     0.777559  s :     0.777559
      pz      :     0.014151  p :     0.066831
      px      :     0.024089
      py      :     0.028591
  9 H s       :     0.781248  s :     0.781248
      pz      :     0.014186  p :     0.065741
      px      :     0.036258
      py      :     0.015297
 10 C s       :     2.841664  s :     2.841664
      pz      :     1.170273  p :     2.844251
      px      :     0.836513
      py      :     0.837465
      dz2     :     0.164141  d :     0.457180
      dxz     :     0.141557
      dyz     :     0.140606
      dx2y2   :     0.005494
      dxy     :     0.005383
      f0      :     0.025578  f :     0.066857
      f+1     :     0.019434
      f-1     :     0.019719
      f+2     :     0.000786
      f-2     :     0.000816
      f+3     :     0.000260
      f-3     :     0.000265
 11 N s       :     3.300797  s :     3.300797
      pz      :     1.466104  p :     3.509036
      px      :     1.022906
      py      :     1.020026
      dz2     :     0.053052  d :     0.135985
      dxz     :     0.036063
      dyz     :     0.036688
      dx2y2   :     0.005152
      dxy     :     0.005031
      f0      :     0.007404  f :     0.019118
      f+1     :     0.005084
      f-1     :     0.005139
      f+2     :     0.000465
      f-2     :     0.000458
      f+3     :     0.000283
      f-3     :     0.000285
 12 C s       :     2.817014  s :     2.817014
      pz      :     1.032584  p :     3.159006
      px      :     1.067632
      py      :     1.058791
      dz2     :     0.076410  d :     0.276572
      dxz     :     0.064339
      dyz     :     0.069523
      dx2y2   :     0.031110
      dxy     :     0.035190
      f0      :     0.008122  f :     0.031539
      f+1     :     0.006819
      f-1     :     0.006333
      f+2     :     0.002889
      f-2     :     0.002742
      f+3     :     0.001605
      f-3     :     0.003030
 13 H s       :     0.780878  s :     0.780878
      pz      :     0.015198  p :     0.065745
      px      :     0.014832
      py      :     0.035714
 14 H s       :     0.783607  s :     0.783607
      pz      :     0.014460  p :     0.065819
      px      :     0.027073
      py      :     0.024286
 15 H s       :     0.777258  s :     0.777258
      pz      :     0.013827  p :     0.068732
      px      :     0.038319
      py      :     0.016585
 16 C s       :     2.841038  s :     2.841038
      pz      :     1.170280  p :     2.843519
      px      :     0.836306
      py      :     0.836933
      dz2     :     0.164110  d :     0.459026
      dxz     :     0.142383
      dyz     :     0.141953
      dx2y2   :     0.005251
      dxy     :     0.005329
      f0      :     0.025556  f :     0.066785
      f+1     :     0.019585
      f-1     :     0.019512
      f+2     :     0.000789
      f-2     :     0.000822
      f+3     :     0.000262
      f-3     :     0.000259
 17 N s       :     3.301782  s :     3.301782
      pz      :     1.465675  p :     3.508738
      px      :     1.020201
      py      :     1.022862
      dz2     :     0.053047  d :     0.135771
      dxz     :     0.036474
      dyz     :     0.036094
      dx2y2   :     0.005143
      dxy     :     0.005013
      f0      :     0.007369  f :     0.019031
      f+1     :     0.005089
      f-1     :     0.005083
      f+2     :     0.000463
      f-2     :     0.000459
      f+3     :     0.000284
      f-3     :     0.000283


                      *****************************
                      * MAYER POPULATION ANALYSIS *
                      *****************************

  NA   - Mulliken gross atomic population
  ZA   - Total nuclear charge
  QA   - Mulliken gross atomic charge
  VA   - Mayer's total valence
  BVA  - Mayer's bonded valence
  FA   - Mayer's free valence

  ATOM       NA         ZA         QA         VA         BVA        FA
  0 C      6.2937     6.0000    -0.2937     3.8843     3.6005     0.2839
  1 H      0.7991     1.0000     0.2009     0.9721     0.9253     0.0468
  2 H      0.7996     1.0000     0.2004     0.9712     0.9243     0.0469
  3 H      0.8391     1.0000     0.1609     0.9643     0.9163     0.0480
  4 C      6.0648     6.0000    -0.0648     4.0325     3.6104     0.4222
  5 N      7.2036     7.0000    -0.2036     3.2659     2.7814     0.4846
  6 C      6.2641     6.0000    -0.2641     3.9326     3.6483     0.2843
  7 H      0.8262     1.0000     0.1738     0.9587     0.9118     0.0469
  8 H      0.8142     1.0000     0.1858     0.9683     0.9217     0.0466
  9 H      0.8382     1.0000     0.1618     0.9706     0.9229     0.0477
 10 C      6.1164     6.0000    -0.1164     4.1017     3.6765     0.4251
 11 N      7.1404     7.0000    -0.1404     3.3040     2.8251     0.4789
 12 C      6.2866     6.0000    -0.2866     3.9110     3.6274     0.2836
 13 H      0.8305     1.0000     0.1695     0.9661     0.9189     0.0472
 14 H      0.8332     1.0000     0.1668     0.9628     0.9153     0.0475
 15 H      0.8036     1.0000     0.1964     0.9710     0.9238     0.0472
 16 C      6.1042     6.0000    -0.1042     4.0829     3.6573     0.4256
 17 N      7.1425     7.0000    -0.1425     3.3056     2.8262     0.4794

  Mayer bond orders larger than 0.100000
B(  0-C ,  1-H ) :   0.9015 B(  0-C ,  2-H ) :   0.9021 B(  0-C ,  3-H ) :   0.9141 
B(  0-C ,  4-C ) :   0.8974 B(  4-C ,  5-N ) :   2.7160 B(  6-C ,  7-H ) :   0.9108 
B(  6-C ,  8-H ) :   0.9110 B(  6-C ,  9-H ) :   0.9173 B(  6-C , 10-C ) :   0.9109 
B( 10-C , 11-N ) :   2.7718 B( 12-C , 13-H ) :   0.9143 B( 12-C , 14-H ) :   0.9177 
B( 12-C , 15-H ) :   0.9047 B( 12-C , 16-C ) :   0.8990 B( 16-C , 17-N ) :   2.7726 



----------------------------------
MP2 DERIVATIVE INTEGRAL GENERATION
----------------------------------


Input Wavefunction Amplitudes       ... 12mecn.remya.etal.2.mol1,3,4-orca.engrad-mp2.def2tzvp.frozencore.mp2tsaa.tmp
Input Correlated Electron Density   ... 12mecn.remya.etal.2.mol1,3,4-orca.engrad-mp2.def2tzvp.frozencore.pmp2re
Input Energy Weighted Density       ... 12mecn.remya.etal.2.mol1,3,4-orca.engrad-mp2.def2tzvp.frozencore.wmp2.tmp
Input SCF Electron Density          ... 12mecn.remya.etal.2.mol1,3,4-orca.engrad-mp2.def2tzvp.frozencore.scfp

One-Electron Terms    ...
                        ... One-Electron Terms done
Prescreening matrices              ... done

Batch handling in the gradient evaluation:
Memory available                      ... 8000.0 MB
Memory per occupied orbital in Q2     ...   20.3 MB
Memory per occupied orbital in Q3     ...    0.1 MB
Total memory requirement per |i>      ...   20.4 MB
Max. Number of orbitals possible      ...    391
Number of orbitals treated per batch  ...     24
Number of batches to be done          ...      1
Batch   0: i=    9 ...    32

---------------------------------------
MP2 TOTAL ENERGY:     -397.467247143 Eh
---------------------------------------

The final MP2 gradient
  0:  -0.00105810   0.00194641  -0.00845001
  1:  -0.00101985   0.00256427   0.00055486
  2:   0.00100247  -0.00252569   0.00074596
  3:   0.00067233  -0.00168387   0.00096757
  4:   0.00081575   0.00025718   0.00003300
  5:  -0.00037147  -0.00021973   0.00539311
  6:  -0.00131866   0.00046543   0.00809252
  7:  -0.00085519   0.00147436  -0.00114941
  8:  -0.00170430  -0.00112172  -0.00091700
  9:   0.00303710  -0.00056450   0.00044410
 10:   0.00075983  -0.00063861  -0.00059162
 11:   0.00036189  -0.00031704  -0.00561784
 12:  -0.00042734  -0.00208350   0.00735024
 13:   0.00069527  -0.00370466   0.00062794
 14:   0.00085583   0.00286719   0.00072332
 15:  -0.00179894   0.00269478   0.00002308
 16:   0.00013576   0.00045044  -0.00474085
 17:   0.00021761   0.00013924  -0.00348898

-----------------------------------
NORM OF THE MP2 GRADIENT:  0.019339
-----------------------------------

-------------------------   --------------------
FINAL SINGLE POINT ENERGY      -397.467247143039
-------------------------   --------------------


                            ***************************************
                            *     ORCA property calculations      *
                            ***************************************

                                    ---------------------
                                    Active property flags
                                    ---------------------
   (+) Dipole Moment


------------------------------------------------------------------------------
                       ORCA ELECTRIC PROPERTIES CALCULATION
------------------------------------------------------------------------------

Dipole Moment Calculation                       ... on
Quadrupole Moment Calculation                   ... off
Polarizability Calculation                      ... off
GBWName                                         ... 12mecn.remya.etal.2.mol1,3,4-orca.engrad-mp2.def2tzvp.frozencore.gbw
Electron density file                           ... 12mecn.remya.etal.2.mol1,3,4-orca.engrad-mp2.def2tzvp.frozencore.scfp
The origin for moment calculation is the CENTER OF MASS  = (-7.164660,  1.212072 -0.129222)

-------------
DIPOLE MOMENT
-------------
                                X             Y             Z
Electronic contribution:     -0.01275       0.04763       3.05109
Nuclear contribution   :     -0.02277      -0.07202      -4.63777
                        -----------------------------------------
Total Dipole Moment    :     -0.03552      -0.02438      -1.58668
                        -----------------------------------------
Magnitude (a.u.)       :      1.58726
Magnitude (Debye)      :      4.03450



--------------------
Rotational spectrum 
--------------------
 
Rotational constants in cm-1:     0.059901     0.026021     0.022329 
Rotational constants in MHz :  1795.788779   780.090089   669.415880 

 Dipole components along the rotational axes: 
x,y,z [a.u.] :    -0.015246     1.428050    -0.692702 
x,y,z [Debye]:    -0.038753     3.629816    -1.760708 

 

                         *** MP2 UNRELAXED DENSITY ***

------------------------------------------------------------------------------
                       ORCA ELECTRIC PROPERTIES CALCULATION
------------------------------------------------------------------------------

Dipole Moment Calculation                       ... on
Quadrupole Moment Calculation                   ... off
Polarizability Calculation                      ... off
GBWName                                         ... 12mecn.remya.etal.2.mol1,3,4-orca.engrad-mp2.def2tzvp.frozencore.gbw
Electron density file                           ... 12mecn.remya.etal.2.mol1,3,4-orca.engrad-mp2.def2tzvp.frozencore.pmp2ur
The origin for moment calculation is the CENTER OF MASS  = (-7.164660,  1.212072 -0.129222)

-------------
DIPOLE MOMENT
-------------
                                X             Y             Z
Electronic contribution:     -0.01225       0.04800       3.08686
Nuclear contribution   :     -0.02277      -0.07202      -4.63777
                        -----------------------------------------
Total Dipole Moment    :     -0.03502      -0.02402      -1.55091
                        -----------------------------------------
Magnitude (a.u.)       :      1.55149
Magnitude (Debye)      :      3.94357



--------------------
Rotational spectrum 
--------------------
 
Rotational constants in cm-1:     0.059901     0.026021     0.022329 
Rotational constants in MHz :  1795.788779   780.090089   669.415880 

 Dipole components along the rotational axes: 
x,y,z [a.u.] :    -0.014990     1.395717    -0.677396 
x,y,z [Debye]:    -0.038103     3.547630    -1.721805 

 

                           *** MP2 RELAXED DENSITY ***

------------------------------------------------------------------------------
                       ORCA ELECTRIC PROPERTIES CALCULATION
------------------------------------------------------------------------------

Dipole Moment Calculation                       ... on
Quadrupole Moment Calculation                   ... off
Polarizability Calculation                      ... off
GBWName                                         ... 12mecn.remya.etal.2.mol1,3,4-orca.engrad-mp2.def2tzvp.frozencore.gbw
Electron density file                           ... 12mecn.remya.etal.2.mol1,3,4-orca.engrad-mp2.def2tzvp.frozencore.pmp2re
The origin for moment calculation is the CENTER OF MASS  = (-7.164660,  1.212072 -0.129222)

-------------
DIPOLE MOMENT
-------------
                                X             Y             Z
Electronic contribution:     -0.00759       0.04987       3.18232
Nuclear contribution   :     -0.02277      -0.07202      -4.63777
                        -----------------------------------------
Total Dipole Moment    :     -0.03036      -0.02214      -1.45544
                        -----------------------------------------
Magnitude (a.u.)       :      1.45593
Magnitude (Debye)      :      3.70068



--------------------
Rotational spectrum 
--------------------
 
Rotational constants in cm-1:     0.059901     0.026021     0.022329 
Rotational constants in MHz :  1795.788779   780.090089   669.415880 

 Dipole components along the rotational axes: 
x,y,z [a.u.] :    -0.012552     1.310650    -0.633852 
x,y,z [Debye]:    -0.031904     3.331407    -1.611125 

 

Timings for individual modules:

Sum of individual times         ...      251.660 sec (=   4.194 min)
GTO integral calculation        ...        1.097 sec (=   0.018 min)   0.4 %
SCF iterations                  ...       53.891 sec (=   0.898 min)  21.4 %
MP2 module                      ...      196.671 sec (=   3.278 min)  78.1 %
                             ****ORCA TERMINATED NORMALLY****
TOTAL RUN TIME: 0 days 0 hours 4 minutes 12 seconds 759 msec
