30
Energy:   -145.91788924
O   -0.59685368   1.59852466   1.47508955
H   -0.53030735   0.69407357   1.81562306
C   -1.14911353   2.40578594   2.50264591
H   -1.21709630   3.42096218   2.10229514
H   -0.51836238   2.43615297   3.40486992
H   -2.16114685   2.08633164   2.79677998
O   -0.32847498  -1.11039158   2.14603064
H   -0.75470524  -1.61542465   1.43772799
C    1.06803891  -1.34533247   2.06185512
H    1.53261537  -0.76913615   2.86662324
H    1.49937691  -1.00693372   1.10675767
H    1.33036435  -2.40520993   2.20546032
O    0.89089861  -1.31603177  -1.79553460
H    0.92628854  -0.37298421  -1.57682902
C    2.18053586  -1.70294182  -2.24237926
H    2.12282498  -2.76763169  -2.48443325
H    2.95545671  -1.56966135  -1.47133366
H    2.49605045  -1.16333568  -3.14905070
O   -1.32201134  -2.18721991  -0.27414050
H   -0.58910043  -2.05029558  -0.89261976
C   -2.33721260  -1.24986208  -0.59548217
H   -3.15493265  -1.41797502   0.11060364
H   -2.73293486  -1.38416414  -1.61437578
H   -2.00212091  -0.20638141  -0.48759810
O    0.79515257   1.35056441  -0.95282756
H    0.35753453   1.54576239  -0.11091815
C    0.38313305   2.33268657  -1.88995602
H    0.88525292   2.09784836  -2.83240594
H    0.67416187   3.35242430  -1.59294675
H   -0.70331254   2.31979617  -2.06953094
