30
Energy:   -128.86861665
O   -0.46149992   2.12232173   1.18116943
H   -0.50289237   1.98943449   0.22249799
C    0.90578040   2.23944535   1.54083645
H    0.93412774   2.38862118   2.62362369
H    1.39846331   3.10147902   1.06445549
H    1.48643310   1.33372527   1.30569626
O    0.38313328  -1.98968389   1.50228441
H   -0.50650423  -2.13734584   1.14849871
C    0.24694377  -1.30704670   2.73840441
H    1.25815796  -1.14880730   3.12297088
H   -0.31534734  -1.88862019   3.48565157
H   -0.23489190  -0.32276353   2.62978419
O    1.40066018  -0.73503743  -0.81290753
H    1.20894079  -1.14991155   0.04122736
C    1.27416984  -1.73233023  -1.81387758
H    1.49341192  -1.24804656  -2.76932901
H    0.25775018  -2.15254591  -1.86943997
H    1.98623621  -2.56170967  -1.68020424
O   -2.15922049  -2.17239891   0.25378627
H   -2.91677987  -2.67139427  -0.08611180
C   -2.37591973  -0.80302333  -0.04685591
H   -1.51346188  -0.25551996   0.34287698
H   -3.28139991  -0.40032069   0.43347061
H   -2.44182362  -0.61053104  -1.12915935
O   -0.22505733   1.41682915  -1.57415647
H    0.36248021   0.66581568  -1.40327148
C    0.45966892   2.31155454  -2.43621807
H   -0.21625867   3.15145356  -2.61836286
H    0.71005207   1.85790940  -3.40796479
H    1.38464736   2.70844759  -1.98937566
