30
Energy:   -145.81766815
O    0.41948297  -0.79409756  -1.81587900
H    1.16738927  -0.44814429  -1.30658951
C    0.55988816  -0.33678605  -3.15142621
H   -0.29057881  -0.73552206  -3.71106961
H    1.48335631  -0.69870394  -3.62996498
H    0.53536767   0.76141970  -3.22965803
O   -1.87636284   1.11163397   1.67091787
H   -2.10355480   0.59104098   0.88619497
C   -1.74456047   2.46494555   1.26630735
H   -1.48858877   3.03717175   2.16214264
H   -2.67785724   2.87790195   0.85254234
H   -0.94185098   2.61141591   0.52672555
O    0.70917466   0.06252409   2.13106566
H   -0.16048129   0.48927830   2.13269126
C    0.50008629  -1.34057445   2.11964997
H    1.48962242  -1.80565572   2.11796102
H   -0.03950392  -1.68281732   1.22271655
H   -0.04303812  -1.69682367   3.00896414
O   -2.10703534  -0.46016557  -0.64482839
H   -1.27148817  -0.59960279  -1.11476610
C   -2.85898514  -1.65945625  -0.73867474
H   -3.79673782  -1.48492604  -0.20421771
H   -2.35249982  -2.51683479  -0.26840674
H   -3.10346107  -1.92782782  -1.77837929
O    2.36416843   0.32851407  -0.12135993
H    1.86776091   0.27911464   0.70903910
C    3.66767793   0.79793042   0.18367292
H    4.21314196   0.84758666  -0.76262960
H    4.21588208   0.12216271   0.85864518
H    3.66358556   1.80529759   0.62861332
