42
Energy:   -158.52185598
C   -3.29213547   1.55416376  -0.05292794
H   -3.00636200   0.60260683  -0.45013456
H   -3.29634576   2.28153395  -0.83766610
H   -4.27113174   1.48339719   0.37305033
C   -2.28835141   1.97867681   1.03510065
N   -1.54098855   2.29474607   1.84518740
C    0.56130699   0.47066360  -2.84297147
H    0.82651000  -0.39448834  -3.41400531
H    1.42221393   1.09385612  -2.71899803
H   -0.20296485   1.01614584  -3.35603751
C    0.04052967   0.03381687  -1.46110464
N   -0.34721271  -0.29143538  -0.43224198
C    0.76026803   4.34324803  -0.02580255
H    0.51633782   3.92251791   0.92728946
H    0.65786458   5.40746138   0.01735507
H    1.76906904   4.09197973  -0.27895045
C   -0.19319142   3.77875074  -1.09531547
N   -0.90308533   3.35845685  -1.89161645
C    1.76936464   0.85942750   2.23885466
H    2.53904104   0.86853725   2.98210121
H    1.32973725  -0.11498841   2.19258924
H    1.01851037   1.57772288   2.49413628
C    2.37501074   1.21493899   0.86830573
N    2.82594179   1.47963345  -0.15213025
C   -1.42644122  -1.36637434   2.65470754
H   -1.01161688  -0.39925967   2.46103215
H   -0.69699301  -2.11781027   2.43528000
H   -1.70902998  -1.43354161   3.68452852
C   -2.66662392  -1.58012021   1.76709300
N   -3.58999631  -1.73926373   1.10622363
C   -1.26872188  -3.66899950  -0.84248969
H   -2.08508612  -2.98390144  -0.93783253
H   -0.82868410  -3.56671516   0.12746070
H   -1.62628574  -4.66961995  -0.96821121
C   -0.21246657  -3.36209557  -1.92032766
N    0.57396352  -3.13359165  -2.72282702
C    3.21101267  -2.01363544  -0.88021888
H    2.83532224  -1.10940641  -1.31164297
H    3.18417110  -2.79525354  -1.61045977
H    4.21963597  -1.86226798  -0.55669761
C    2.33869272  -2.40796022   0.32608368
N    1.68921086  -2.70155294   1.22423077
