42
Energy:   -154.53405913
C    3.46102665  -2.34351254   1.09362650
H    4.30228444  -2.74924748   0.57154924
H    3.40700216  -2.77366853   2.07186281
H    3.57041506  -1.28232505   1.17617585
C    2.17055936  -2.66777171   0.31828776
N    1.20974781  -2.90919740  -0.25898718
C    1.09606007   0.19931165  -2.14813820
H    1.45754542  -0.78370566  -2.36701143
H    1.56666879   0.90566272  -2.79967078
H    0.03650785   0.23039118  -2.29402255
C    1.42343039   0.55277357  -0.68543750
N    1.66717246   0.81594203   0.40360966
C   -2.81018868   1.39981945  -4.01544917
H   -3.59731450   2.02334597  -4.38497292
H   -3.18894771   0.77095776  -3.23700607
H   -2.43201572   0.79328036  -4.81168697
C   -1.67647037   2.28046256  -3.45799915
N   -0.83236557   2.93614138  -3.04295227
C   -0.67240688  -1.27128899   2.24468869
H   -0.41612479  -1.13424903   1.21491215
H   -1.56301732  -1.86012608   2.31527917
H    0.12770575  -1.77304404   2.74764071
C   -0.91101275   0.10111580   2.90132584
N   -1.08866567   1.12293355   3.39022204
C   -1.34155626   2.88882458   0.48036441
H   -0.37884379   2.75198873   0.92686283
H   -2.02667715   3.25637424   1.21549413
H   -1.26611070   3.59386327  -0.32096418
C   -1.84966672   1.54203807  -0.06698362
N   -2.22797805   0.53929430  -0.47450912
C    2.28570033   1.94827846   3.68048919
H    2.28631200   2.24479492   2.65239494
H    3.11253582   2.40434654   4.18372281
H    1.37170662   2.26025061   4.14112785
C    2.41026288   0.41610989   3.77292102
N    2.50300536  -0.72465925   3.84174071
C   -1.96783533  -2.85368722  -1.37112913
H   -2.99576246  -3.14974156  -1.34627337
H   -1.77292101  -2.17395848  -0.56808720
H   -1.34523069  -3.71755452  -1.26626808
C   -1.66500429  -2.16256717  -2.71360686
N   -1.43953282  -1.64799687  -3.71314254
