42
Energy:   -157.67470692
C    2.93438087  -2.52988252  -0.77739562
H    3.37770264  -3.41880058  -1.17512753
H    3.60497398  -2.08030820  -0.07519415
H    2.73790671  -1.84238051  -1.57340943
C    1.61394971  -2.88704553  -0.06993811
N    0.63082870  -3.15296964   0.45679617
C   -1.59666498  -2.43709638  -2.28280626
H   -1.63917493  -3.47614320  -2.03086423
H   -2.39405388  -2.20038547  -2.95588721
H   -1.69448847  -1.85017032  -1.39351022
C   -0.24704335  -2.12706668  -2.95660376
N    0.75781129  -1.89623548  -3.45827662
C    1.20528251  -0.67691385   3.02292311
H    1.68183717  -1.25598423   3.78612252
H    0.53378254  -1.29970145   2.46963974
H    0.65873936   0.12540251   3.47289881
C    2.27247350  -0.10187159   2.07317062
N    3.06704570   0.32627351   1.36603673
C   -2.58565884   2.48070961  -0.89535432
H   -3.32435700   3.24925350  -0.98790426
H   -1.79266330   2.66265470  -1.59030261
H   -2.19415372   2.48036017   0.10044823
C   -3.22728234   1.11321649  -1.19515734
N   -3.70500020   0.09505570  -1.41837431
C    0.77466130   3.18680434   1.82186181
H    1.81260441   3.15248297   2.07953664
H    0.35913458   2.20271242   1.88350378
H    0.25992817   3.83445582   2.50046070
C    0.61967763   3.72042512   0.38560664
N    0.50428523   4.11773005  -0.68375062
C    1.92972384   1.16096277  -2.03064882
H    2.85935010   1.16954310  -1.50091155
H    1.69320885   2.15375281  -2.35209508
H    2.01106117   0.51982356  -2.88342302
C    0.81509478   0.64249827  -1.10307315
N   -0.01479722   0.25647789  -0.41245090
C   -2.48018795  -1.38091181   1.53322546
H   -2.63361253  -2.07324528   2.33449661
H   -1.64659776  -1.69837018   0.94225451
H   -3.35730319  -1.34323291   0.92154887
C   -2.19672722   0.01820662   2.11090845
N   -1.98567783   1.05991388   2.54101970
