42
Energy:   -154.01685681
C    0.17077802  -0.36631897  -2.66299118
H    1.19721824  -0.31302169  -2.96044716
H   -0.45527648  -0.13075742  -3.49813525
H   -0.05010166  -1.35528400  -2.31939342
C   -0.08757695   0.64131241  -1.52741568
N   -0.27993397   1.39153977  -0.68192811
C   -3.66508573   0.22557250   0.35572972
H   -3.04757894   1.09617955   0.43075575
H   -3.51359978  -0.39424833   1.21466699
H   -4.69246443   0.52026903   0.30527136
C   -3.29320244  -0.55951629  -0.91585921
N   -3.01631842  -1.14405058  -1.86261497
C   -0.33055511  -0.99045378   2.06672018
H   -0.94614016  -0.22417661   1.64390281
H    0.45973070  -0.54189992   2.63165104
H   -0.92177807  -1.60889139   2.70928491
C    0.26892656  -1.84881598   0.93736814
N    0.71526792  -2.48790566   0.09651420
C    3.72052642  -1.01191464  -0.37381541
H    3.57273580  -1.99371225   0.02509756
H    4.76709096  -0.83650399  -0.51104823
H    3.21872292  -0.93020664  -1.31531217
C    3.14918474   0.03108319   0.60461405
N    2.72379489   0.80764249   1.33309925
C    0.21765569   3.16706651   2.28891492
H    0.25902706   4.13395520   2.74533015
H    0.30448733   3.26973211   1.22739755
H    1.02219091   2.56466710   2.65598048
C   -1.12479251   2.49471150   2.63151028
N   -2.12430621   1.99411263   2.88658809
C   -2.17717590  -4.39755468  -0.90992719
H   -2.73117010  -3.98601304  -1.72762156
H   -2.37325768  -5.44700967  -0.83854614
H   -1.13136668  -4.24037395  -1.07264286
C   -2.60281145  -3.70565784   0.39839736
N   -2.91971647  -3.19050919   1.37250446
C    2.48513211   3.62129730  -0.90824552
H    1.43915602   3.82322230  -1.00854756
H    3.04361564   4.49767502  -1.16311282
H    2.69938711   3.34324903   0.10253786
C    2.87839064   2.46952707  -1.85184134
N    3.17118949   1.61198178  -2.55439131
