42
Energy:   -153.92785785
C   -2.21140507  -2.25892249  -3.10788051
H   -1.14535656  -2.34766724  -3.08410825
H   -2.59010269  -2.74239219  -3.98409068
H   -2.62731951  -2.72154579  -2.23730946
C   -2.60207134  -0.76952706  -3.13397874
N   -2.89294014   0.33939553  -3.15341005
C   -0.65197395  -1.75987056   3.66031604
H    0.37878261  -1.74692539   3.37348246
H   -1.21437500  -2.32209770   2.94442163
H   -0.74812840  -2.21303662   4.62483351
C   -1.18766623  -0.31709221   3.71531074
N   -1.58651347   0.75712185   3.75625679
C    3.32611599   0.72098476  -0.22351037
H    3.25867476   0.09425229  -1.08812488
H    4.29104563   0.60763755   0.22477781
H    3.18408816   1.74180598  -0.51100165
C    2.23881557   0.31692611   0.78946268
N    1.42927099   0.01608607   1.54366716
C    0.89818995  -3.11324929  -0.21321608
H    0.57205079  -2.60707991   0.67127586
H    0.70140799  -4.16066506  -0.11784228
H    0.37075423  -2.72692897  -1.06025048
C    2.40992129  -2.89027117  -0.40439424
N    3.53547400  -2.72425383  -0.54673508
C    0.39311080   3.29453456   2.73142663
H    0.87863310   4.10353104   3.23609777
H    0.75506570   2.36463224   3.11765120
H   -0.66335230   3.35891472   2.88839801
C    0.69389480   3.37588942   1.22327863
N    0.91784217   3.43646180   0.10039390
C   -1.82187105   0.91380451   0.23162245
H   -2.19024939   1.36216146   1.13060722
H   -2.36651346   1.29564092  -0.60650922
H   -0.78338515   1.14488668   0.11739835
C   -2.00244742  -0.61364163   0.30843691
N   -2.13689473  -1.75089471   0.36562877
C    0.08155400   2.24610826  -3.03480169
H    0.78701929   2.93109811  -2.61289196
H   -0.90370198   2.49936574  -2.70309339
H    0.12402963   2.30282872  -4.10245225
C    0.42311089   0.81409590  -2.58282881
N    0.67741551  -0.25210240  -2.24631446
