42
Energy:   -153.94275307
C    0.32268912  -0.72812281   2.79825462
H    0.56405927  -0.32987511   1.83490660
H    0.91223395  -1.60220645   2.98077523
H    0.52992554   0.00512270   3.54945579
C   -1.17147550  -1.09860080   2.84089435
N   -2.28394898  -1.37443850   2.87264157
C    2.34577644   2.42928561   1.70644550
H    3.25877072   2.94576009   1.49526845
H    2.56603014   1.43398059   2.03164591
H    1.81332901   2.94665354   2.47698379
C    1.48107124   2.37382051   0.43333572
N    0.83725891   2.33252422  -0.51455239
C    3.46231348   1.37670045  -2.48672221
H    3.76416145   1.20269091  -1.47503616
H    2.84963395   2.25283426  -2.53045358
H    4.32897268   1.51663259  -3.09845738
C    2.66233574   0.16476652  -2.99941293
N    2.06671595  -0.73757338  -3.38113447
C   -3.99855286  -2.49382032   0.23545926
H   -4.42019088  -2.33573289   1.20609303
H   -2.95575812  -2.71367613   0.33107123
H   -4.49408421  -3.31478518  -0.23926641
C   -4.17935980  -1.22334205  -0.61588899
N   -4.31397879  -0.27741324  -1.24975645
C    2.03945665  -2.96120871  -0.58979710
H    1.18750703  -3.25244356  -0.01164117
H    2.76913407  -3.74352994  -0.56873867
H    1.73947645  -2.78039657  -1.60084504
C    2.64718557  -1.67632253   0.00293644
N    3.09966737  -0.71966636   0.44425350
C   -1.09474617   0.36797620  -2.69248143
H   -0.56797907   1.29429845  -2.59581856
H   -2.13996243   0.56289951  -2.81259374
H   -0.73021870  -0.16208425  -3.54749882
C   -0.87321359  -0.48288993  -1.42814360
N   -0.70827251  -1.11639844  -0.48678662
C   -2.54185485   1.85438279   0.88665966
H   -2.09520223   2.12752314  -0.04650483
H   -3.47320195   2.36873249   1.00039649
H   -2.71312644   0.79833097   0.90453954
C   -1.59775241   2.24091166   2.04029132
N   -0.89482523   2.52869998   2.89922253
