42
Energy:   -154.06373867
C    1.22581080   2.53055377   0.72010212
H    0.60908062   3.38559643   0.53721933
H    0.69594752   1.64295304   0.44386140
H    2.12166218   2.60629129   0.13991833
C    1.58669261   2.46840752   2.21593038
N    1.85538552   2.42213682   3.32964250
C    4.02620905  -0.43767522   2.96182186
H    3.41805935  -1.31648084   3.01430807
H    3.63305897   0.30801477   3.62082000
H    5.02726840  -0.67878609   3.25275968
C    4.02655509   0.10093215   1.51908073
N    4.02681272   0.50194982   0.44489438
C   -2.78223891   2.33529955  -1.38298172
H   -3.65114735   1.81057541  -1.72145313
H   -1.98109537   2.18277311  -2.07566044
H   -3.00074923   3.38053597  -1.31491447
C   -2.37021587   1.80567405   0.00314015
N   -2.06344598   1.41134379   1.03517089
C   -0.79689314   0.07871623   3.92972713
H   -0.35174779   1.00280546   4.23436609
H   -0.89328471  -0.56724237   4.77727963
H   -1.76445072   0.26877914   3.51426654
C    0.09372336  -0.59513369   2.86938353
N    0.75682782  -1.09684559   2.07990952
C   -1.89020024  -2.02813658  -0.12522945
H   -1.32769425  -2.78284718  -0.63405074
H   -2.38702460  -2.46109433   0.71774874
H   -1.22981462  -1.25511851   0.20828663
C   -2.93519620  -1.43134910  -1.08618114
N   -3.71324319  -0.98701370  -1.80165336
C    1.93644798  -1.41979987  -1.36506344
H    1.91312263  -1.59998557  -0.31060186
H    2.91342557  -1.08820172  -1.64871203
H    1.70125654  -2.32395128  -1.88669004
C    0.90239964  -0.33641656  -1.72370619
N    0.13250365   0.47021157  -1.99073202
C   -1.82198210  -0.99506236  -4.67232452
H   -2.88034338  -1.10319242  -4.55795906
H   -1.56950465  -1.03577788  -5.71131272
H   -1.51373709  -0.05400741  -4.26698554
C   -1.10575290  -2.13525368  -3.92494275
N   -0.57248771  -2.98417794  -3.36848305
