42
Energy:   -154.45537860
C    1.30765789  -1.99104109  -2.03522262
H    1.25537375  -2.94899034  -1.56140855
H    2.02162409  -2.02544340  -2.83144360
H    0.34628579  -1.73496942  -2.42903740
C    1.73898829  -0.93134653  -1.00439696
N    2.06013338  -0.14235577  -0.23690040
C   -2.59293238  -3.82656096  -0.14786858
H   -3.40690850  -4.14908405  -0.76294737
H   -2.88708846  -3.86170915   0.88030256
H   -1.75297332  -4.47152970  -0.30078424
C   -2.20696285  -2.38350630  -0.52232921
N   -1.91959099  -1.30908651  -0.80113216
C   -0.97999907   1.88505410  -1.36043994
H   -0.65564310   2.88359943  -1.15404080
H   -0.75177016   1.25612950  -0.52541628
H   -2.03621504   1.88133016  -1.53159210
C   -0.25514551   1.35843529  -2.61298134
N    0.28454091   0.96634365  -3.54555534
C    2.12463185   2.68065031   1.96952158
H    2.21391413   3.68498893   1.61142552
H    2.62219338   2.01583474   1.29472392
H    2.57242396   2.60633484   2.93846871
C    0.63552691   2.29894894   2.06155704
N   -0.47317941   2.01475493   2.13008162
C    0.24946621  -1.43020836   2.43542399
H   -0.31557147  -1.64450373   3.31843594
H   -0.28727539  -0.73034929   1.82961475
H    1.19546008  -1.01233969   2.70997900
C    0.47368111  -2.73047793   1.64130390
N    0.64061930  -3.69858774   1.05004541
C    3.55219947   1.99825312  -2.62193975
H    3.88483232   1.20877506  -1.98086256
H    4.40012126   2.50906205  -3.02814410
H    2.96740726   1.58826933  -3.41870223
C    2.69474538   2.98940032  -1.81323725
N    2.05633184   3.72735446  -1.21112148
C   -3.53404339   0.72920633   1.73535935
H   -3.23688604   1.45093358   2.46727975
H   -4.56731973   0.86928487   1.49532371
H   -2.94278639   0.85267777   0.85214417
C   -3.32555005  -0.68885888   2.29858362
N   -3.17031729  -1.74467289   2.71792970
