7
Energy:   -397.75868666
O   -0.14728386  -0.57311880  -1.32564548
H   -0.67723296  -0.20057582  -2.03034224
H   -0.59027006  -1.39075373  -1.09877947
O    0.26821155   0.59504923   1.21048490
H    0.28294715   1.36805491   1.77482251
H    0.44770138  -0.13662708   1.80096354
H    0.39468336   0.36772733  -0.30300549
