72
Energy:   -317.27455590
C   -2.37090553   3.32656145  -4.21385679
H   -1.32448052   3.53445848  -4.13216415
H   -2.75220221   3.76344213  -5.11310493
H   -2.52327200   2.26777030  -4.23925081
C   -3.10890063   3.92243235  -3.00063748
N   -3.65837152   4.36608532  -2.09734055
C    5.92711062  -1.11517021   0.21139319
H    5.56613628  -0.76501478  -0.73305844
H    6.99702973  -1.12513163   0.20285146
H    5.58267308  -0.46491539   0.98820111
C    5.40249175  -2.54067867   0.46496897
N    5.01188916  -3.60203452   0.65376766
C   -3.02862321  -1.62026306   3.21094227
H   -2.69089271  -1.74174136   4.21895086
H   -2.54930041  -2.34334565   2.58460346
H   -4.08866041  -1.76024655   3.17063290
C   -2.67890740  -0.20325262   2.71963761
N   -2.41852809   0.85177606   2.35383896
C    0.74689849   1.46357731   4.05601880
H    0.66916610   2.04856533   4.94856956
H    0.08345268   1.85563327   3.31370427
H    1.75217519   1.50103149   3.69144365
C    0.36679340   0.00345572   4.36450717
N    0.08378789  -1.08367117   4.59419078
C    3.34738845   1.95819169  -0.43646509
H    4.25667441   2.48076470  -0.64863642
H    2.74125902   1.92481844  -1.31759643
H    3.57421895   0.96103696  -0.12161680
C    2.58460194   2.68926845   0.68392927
N    2.01667271   3.23358832   1.51811380
C    0.06660869   0.12321069   0.19751156
H    0.51629736   0.54897411   1.07009725
H   -0.82968990   0.65774384  -0.03875575
H    0.74884226   0.19007387  -0.62406361
C   -0.27251383  -1.35513413   0.46414332
N   -0.52500596  -2.45582905   0.66266279
C    0.29850878   0.35774833  -3.63941373
H    0.39213245   0.59183998  -4.67928675
H    1.22139295   0.57039443  -3.14145235
H   -0.48306478   0.94884963  -3.20971488
C   -0.03962154  -1.13596675  -3.47791093
N   -0.29137493  -2.24810552  -3.35766476
C   -3.12914420  -2.93659006  -1.67751718
H   -2.21994724  -3.33440624  -1.27751299
H   -2.90080682  -2.16973724  -2.38793809
H   -3.67838478  -3.71781461  -2.16013721
C   -3.97584898  -2.34334657  -0.53613504
N   -4.60625917  -1.90164982   0.31367584
C   -4.62668048   1.62817453  -0.14061085
H   -5.16257654   0.81611743   0.30467430
H   -5.31070773   2.26154336  -0.66582484
H   -4.13365029   2.19184761   0.62364892
C   -3.58049590   1.07408321  -1.12553756
N   -2.80156392   0.66153704  -1.85886026
C   -1.25901533   3.89024076   0.46308719
H   -2.02585076   4.58425014   0.18883442
H   -0.59941059   4.34853311   1.17004462
H   -1.70423235   3.02172705   0.90168134
C   -0.46390218   3.48179744  -0.79093400
N    0.12809569   3.17769282  -1.72460977
C    2.10777659  -3.75364776  -1.22292869
H    1.72398901  -3.83753741  -0.22765496
H    2.94198806  -4.41335546  -1.34030021
H    1.34317175  -4.01738353  -1.92344420
C    2.55996311  -2.30383851  -1.47823342
N    2.89663652  -1.22438963  -1.66831939
C    2.22120934  -3.10783293   2.85031512
H    2.74395092  -3.84461109   2.27690483
H    1.16692100  -3.23851670   2.72265563
H    2.47150684  -3.21740819   3.88484087
C    2.62599876  -1.70162723   2.37038695
N    2.92738288  -0.65464316   2.01305861
