72
Energy:   -318.94589754
C    1.14984658  -0.53772689   0.10504569
H    0.99964283  -1.52839162   0.48044203
H    1.62732274   0.05891378   0.85400197
H    1.76801304  -0.57683852  -0.76744477
C   -0.21088107   0.08566581  -0.25744819
N   -1.22400465   0.54981001  -0.52734137
C    3.54497319   0.28274172   3.05791094
H    4.25411361   0.40820369   3.84928907
H    2.58464072   0.05659830   3.47206042
H    3.48366569   1.18589536   2.48742519
C    3.99473973  -0.87222040   2.14392377
N    4.32961137  -1.73214220   1.46341877
C    0.18769722  -1.72802610  -3.84345457
H    0.79006818  -2.28842345  -4.52756291
H   -0.77455675  -1.55204390  -4.27704038
H    0.07353744  -2.28000479  -2.93395682
C    0.86996568  -0.38031656  -3.54380686
N    1.37794556   0.62311445  -3.32070552
C    1.43072171   3.45215487  -0.77108455
H    0.69768340   4.17522930  -1.06214879
H    1.35094795   2.59027435  -1.40012924
H    2.40830749   3.87597605  -0.86906784
C    1.19357030   3.04194545   0.69420977
N    1.01700029   2.73652590   1.78518799
C   -3.11525535  -2.35474328  -1.21306587
H   -2.93335315  -1.35976884  -1.56211836
H   -3.79602297  -2.32444245  -0.38811957
H   -3.53871304  -2.93825387  -2.00369731
C   -1.78779717  -2.99055530  -0.76007817
N   -0.79944422  -3.46394625  -0.42280824
C    2.44758551  -4.31283696   0.30773558
H    3.33927780  -4.87354370   0.49586582
H    1.60878369  -4.97644111   0.27707412
H    2.30618030  -3.59508714   1.08859335
C    2.57498080  -3.58376638  -1.04275564
N    2.66983238  -3.04094019  -2.04825774
C   -4.42389015   1.44344822  -0.42366894
H   -3.72592909   1.99644430  -1.01691920
H   -5.40181623   1.53142991  -0.84889699
H   -4.13583011   0.41318442  -0.40182827
C   -4.43554095   2.00373007   1.01074679
N   -4.44421550   2.42088538   2.07873451
C   -1.59398312   0.76231084   2.99604771
H   -2.11736710   1.20301582   3.81869497
H   -1.48881345   1.48353752   2.21267647
H   -0.62524152   0.44316365   3.31944203
C   -2.38633227  -0.45067094   2.47407262
N   -2.97627224  -1.35379102   2.08543844
C   -0.88382861  -4.12171953   2.88641489
H   -1.86564624  -3.78098592   2.63178782
H   -0.92233959  -4.66403785   3.80799333
H   -0.51605030  -4.76119855   2.11136341
C    0.05535768  -2.91121432   3.04199849
N    0.75462456  -2.00993817   3.15783756
C   -1.54200286   2.56235923  -3.33481374
H   -2.24069952   3.37115205  -3.38558100
H   -0.78884547   2.69415327  -4.08333453
H   -1.08465781   2.54630251  -2.36761325
C   -2.27862189   1.23172457  -3.57648257
N   -2.82706824   0.24100659  -3.75641599
C    4.73197539  -0.37912707  -1.97232450
H    3.93069290  -0.50881676  -2.66948096
H    4.88653761  -1.29028068  -1.43305767
H    5.62606615  -0.12122406  -2.50051654
C    4.37594615   0.74772366  -0.98487799
N    4.11086621   1.58671526  -0.24967919
C   -1.92137891   4.72248103   2.24438336
H   -1.51410448   5.69384814   2.43272790
H   -1.29713954   3.98022924   2.69636409
H   -2.90563066   4.66175242   2.65966593
C   -1.98940104   4.48012962   0.72509445
N   -2.04004661   4.29968798  -0.40608520
