72
Energy:   -319.33140830
C    1.67377232  -2.99649210  -1.01125842
H    0.84890759  -3.47615972  -0.52709178
H    2.16217205  -3.69437606  -1.65880979
H    1.31712840  -2.16678579  -1.58509780
C    2.67133284  -2.49585406   0.04979510
N    3.41406198  -2.12310627   0.83979767
C    4.85466594   1.01281190   1.00950531
H    5.83749754   0.71516474   1.31008542
H    4.89916774   1.97827667   0.55037957
H    4.46527010   0.30285385   0.31005586
C    3.93651112   1.07346271   2.24437907
N    3.25290312   1.11862000   3.16379871
C   -0.21203521  -0.61889568  -3.84999890
H    0.53488606  -1.36912063  -4.00547018
H   -1.09490131  -0.87577746  -4.39722672
H   -0.44402012  -0.55725367  -2.80727057
C    0.31750951   0.74186919  -4.33938766
N    0.71177963   1.75502049  -4.70375984
C    3.57364075   2.61493315  -2.77321997
H    3.65889841   3.36009513  -2.01009159
H    2.95432785   2.98356963  -3.56407885
H    4.54533373   2.38597959  -3.15830711
C    2.94376841   1.34141566  -2.17907011
N    2.47479983   0.39322401  -1.73669854
C   -2.18536584  -4.41379943  -0.47588611
H   -3.21351898  -4.17870168  -0.29552440
H   -1.57376571  -3.91857918   0.24909753
H   -2.04274722  -5.47153901  -0.40008377
C   -1.79110438  -3.94255628  -1.88800784
N   -1.49755880  -3.59169433  -2.93939666
C    1.53768600  -1.75417583   3.85654783
H    1.05784390  -0.79829514   3.88726991
H    2.52729147  -1.64406262   3.46481425
H    1.58861072  -2.15964385   4.84543684
C    0.73071288  -2.70484105   2.95287199
N    0.12988471  -3.41265451   2.28004425
C   -3.91061187  -1.04124897  -2.49067474
H   -4.14938515  -1.78862428  -3.21821693
H   -2.84795185  -0.93606918  -2.42292535
H   -4.34350928  -0.10749586  -2.78325646
C   -4.47334524  -1.46087468  -1.11996492
N   -4.89232581  -1.77330510  -0.09940915
C    0.56619972   0.54345458   0.96152055
H    0.21742059   0.83121716   1.93128650
H    0.68414195   1.41482193   0.35184223
H    1.50755122   0.04342247   1.05492470
C   -0.45641197  -0.40515529   0.30883024
N   -1.21779286  -1.11143846  -0.17712736
C   -3.11109083  -2.30981550   2.72442152
H   -2.82235203  -3.16734163   3.29554237
H   -2.89350196  -2.47998411   1.69069195
H   -4.16038047  -2.13812549   2.84447521
C   -2.32963009  -1.07780640   3.21744556
N   -1.74779705  -0.16051963   3.58452436
C   -0.22032050   3.55694696  -1.85553470
H   -0.47157046   4.30579661  -1.13373290
H   -0.03417010   4.02140730  -2.80132733
H    0.65680983   3.03387140  -1.53626454
C   -1.38903988   2.56352356  -1.99266594
N   -2.25920458   1.82387469  -2.09476638
C    1.29085008   3.95917675   2.81415656
H    0.95702926   3.00044950   3.15224814
H    0.45233519   4.61789468   2.72537279
H    1.98837825   4.36262191   3.51813494
C    1.97421924   3.81030619   1.44213464
N    2.48301864   3.69946528   0.42060195
C   -3.67336829   1.49286561   1.11772871
H   -3.32110707   0.55268456   0.74776681
H   -4.39336522   1.89685647   0.43707101
H   -4.12841827   1.35130693   2.07574215
C   -2.48916986   2.46831909   1.25101258
N   -1.60748030   3.19458854   1.35024849
