72
Energy:   -317.35396727
C    3.59588826   0.52219453   2.68024912
H    3.04649091   1.38348106   2.99844442
H    4.59852503   0.58241939   3.04901944
H    3.12770919  -0.36075812   3.06248214
C    3.61739019   0.46669867   1.14139959
N    3.63339936   0.42537947  -0.00434384
C    0.28044189  -3.59433538   3.06854150
H    0.69517498  -3.94365312   2.14611331
H    0.46678331  -4.31365154   3.83845073
H    0.73460850  -2.66246061   3.33357207
C   -1.23831918  -3.39750412   2.90660858
N   -2.36910583  -3.25095430   2.78604217
C   -4.94334544   3.12176156  -0.02127714
H   -5.85027482   3.64033674  -0.25248931
H   -5.01921260   2.10644235  -0.35032146
H   -4.12383716   3.59746823  -0.51827657
C   -4.70833200   3.15203967   1.50038377
N   -4.53335381   3.17458311   2.63332948
C   -1.07209816   3.19818217   2.95298466
H   -0.07712090   3.51046409   3.19256855
H   -1.23834112   2.21264609   3.33505926
H   -1.77414332   3.87473233   3.39379251
C   -1.25443613   3.19343840   1.42382464
N   -1.39019504   3.18990644   0.28529550
C    3.09303929  -3.03006025  -0.88022521
H    4.04191557  -3.30106223  -1.29385779
H    2.79026940  -2.08203586  -1.27326367
H    2.36639495  -3.77178372  -1.13855329
C    3.20895393  -2.93693895   0.65258013
N    3.29525764  -2.86760590   1.79382339
C    0.15821977  -0.06638677  -0.07119428
H    0.98642602  -0.64215467  -0.42821798
H    0.24413137   0.93963484  -0.42536769
H   -0.75459210  -0.49409956  -0.42999137
C    0.15634015  -0.07004380   1.46880023
N    0.15494069  -0.07276663   2.61539614
C    4.75252311   0.96132310  -3.16301433
H    3.82100414   1.48739941  -3.18341772
H    5.40981207   1.37111380  -3.90121613
H    5.19719030   1.06080468  -2.19488542
C    4.50722054  -0.52880756  -3.46457240
N    4.32458163  -1.63827757  -3.68909609
C   -3.37503763  -0.14552143   3.31514628
H   -2.38349505  -0.28131714   3.69370014
H   -3.98045920  -0.98309810   3.59232697
H   -3.79425913   0.74910477   3.72599466
C   -3.32739756  -0.03218560   1.78006146
N   -3.29192737   0.05219808   0.63712103
C    1.85887917   3.30437687  -1.22447853
H    0.82264788   3.37635211  -1.48127503
H    2.23977938   2.35595200  -1.54118724
H    2.40211900   4.08739147  -1.71097387
C    2.02020710   3.43885368   0.30113259
N    2.14032307   3.53897778   1.43701941
C   -2.30263864   1.45719516  -2.50750382
H   -1.29014992   1.80206083  -2.53639051
H   -2.69636315   1.58911289  -1.52136092
H   -2.89036165   2.01771899  -3.20413413
C   -2.34731485  -0.03575450  -2.88261094
N   -2.38057833  -1.14732338  -3.16189524
C    0.83947390  -2.07075746  -3.86340396
H    1.72306317  -2.43552110  -4.34415094
H   -0.00034907  -2.20242530  -4.51321936
H    0.67697862  -2.61403298  -2.95601977
C    1.01035516  -0.57435393  -3.54219364
N    1.13758403   0.53978651  -3.30303796
C   -2.98691602  -3.31487688  -0.65309211
H   -3.30943655  -3.85982580  -1.51559507
H   -3.32626552  -2.30254945  -0.72333583
H   -3.39365101  -3.76712425   0.22721355
C   -1.44892086  -3.33665445  -0.57761609
N   -0.30381355  -3.35286884  -0.52142077
