72
Energy:   -317.13530834
C    0.46383984  -0.24842313   1.22064928
H    1.33059550  -0.84041774   1.42844050
H   -0.38912509  -0.68569833   1.69619142
H    0.61125555   0.74326914   1.59443280
C    0.23182265  -0.19433950  -0.30081153
N    0.05907531  -0.15407177  -1.43360826
C    2.77986509   1.81605103   3.45550460
H    3.54816547   1.96117594   4.18595204
H    3.19853921   1.90553006   2.47489022
H    2.35445915   0.84144426   3.57412384
C    1.68377368   2.88110385   3.64483531
N    0.86768380   3.67408409   3.78580062
C    1.30691106  -2.30259616  -4.01144080
H    2.15471053  -2.95487179  -3.98550332
H    0.62981750  -2.62787230  -4.77343742
H    0.81244699  -2.32247372  -3.06275263
C    1.77288162  -0.86704099  -4.31746824
N    2.11981788   0.20179509  -4.54531957
C    1.56071888   3.00092864  -2.55915511
H    0.90826618   3.83647547  -2.70430046
H    1.09179845   2.11357407  -2.93011950
H    2.47652019   3.16764232  -3.08680424
C    1.85658915   2.83554973  -1.05691991
N    2.07687802   2.71241761   0.06156248
C   -1.60968509  -3.47515881  -1.51043987
H   -1.24160688  -4.31096121  -2.06798177
H   -1.32850933  -2.56708362  -2.00160046
H   -2.67634485  -3.53073461  -1.44682080
C   -1.00893173  -3.49919007  -0.09265360
N   -0.56164354  -3.51708243   0.96295271
C    2.80368119  -3.65752063   1.61850692
H    2.97375186  -4.70425523   1.76106508
H    1.91890116  -3.36506339   2.14437016
H    3.64028928  -3.10590802   1.99361963
C    2.62823787  -3.36583435   0.11659522
N    2.49761234  -3.14866066  -1.00164631
C   -3.53120674   0.05874497  -1.16377088
H   -3.66279136   0.92570284  -1.77693458
H   -4.44172850  -0.50275150  -1.13987675
H   -2.74826174  -0.54840087  -1.56783792
C   -3.15820740   0.49294579   0.26589381
N   -2.88049244   0.81622805   1.33034416
C   -2.25947649   2.22041932   4.51065165
H   -2.95934633   2.13969951   3.70531527
H   -1.73470547   3.14984972   4.43532820
H   -2.78266371   2.18078371   5.44317685
C   -1.25446479   1.05595411   4.43600418
N   -0.50618789   0.18895683   4.38042574
C   -2.92106673  -2.18396787   3.23728494
H   -3.12717138  -1.17926952   3.54224770
H   -1.86584041  -2.30934082   3.11207264
H   -3.27475466  -2.86320325   3.98457554
C   -3.63412223  -2.47194843   1.90303645
N   -4.16502447  -2.68636305   0.90962779
C   -1.38724895   1.18228822  -4.37711885
H   -2.21229141   1.75280930  -4.74955787
H   -0.53579067   1.33330013  -5.00728811
H   -1.15498946   1.49898913  -3.38180224
C   -1.75954871  -0.31199514  -4.36662429
N   -2.03674280  -1.42455702  -4.35881061
C    3.93626854  -0.01040200  -1.47180120
H    2.91187386   0.09281988  -1.76311025
H    4.36974380  -0.84517520  -1.98185218
H    4.47116108   0.88046762  -1.72702736
C    4.01690553  -0.23970167   0.04889579
N    4.07694343  -0.41042570   1.18112382
C   -1.09048677   3.72370415   1.09656992
H   -0.21670041   4.34063545   1.12473651
H   -0.88984717   2.79818947   1.59463157
H   -1.89749482   4.22565886   1.58817806
C   -1.47536931   3.44539352  -0.36835623
N   -1.76193187   3.23817861  -1.45906034
