72
Energy:   -318.16220760
C    0.26000516   0.64250228   1.06078807
H   -0.68805419   0.99651226   1.40829431
H    1.02333394   1.34094452   1.33356400
H    0.47065831  -0.30772847   1.50529438
C    0.22269595   0.49537954  -0.47171411
N    0.19491755   0.38583997  -1.61273164
C    2.46473300   0.85067072   4.39626038
H    2.76807748   0.86466412   5.42226549
H    3.25996731   1.22186685   3.78412076
H    2.23062293  -0.15259133   4.10719839
C    1.22054203   1.74023468   4.21663633
N    0.29418530   2.40255548   4.08289806
C    1.51039640  -1.74914218  -4.17573259
H    0.77468978  -1.70853796  -3.39985423
H    2.28385124  -2.43449968  -3.89833072
H    1.05202082  -2.07765403  -5.08505700
C    2.11578648  -0.34836543  -4.38292175
N    2.56652692   0.69457654  -4.53718349
C    1.99774717   3.43231275  -2.65376167
H    1.52726964   4.38105474  -2.80686201
H    1.33612397   2.65155625  -2.96612861
H    2.90040700   3.38528088  -3.22638051
C    2.32797117   3.25822966  -1.15969099
N    2.57383794   3.12861688  -0.04728746
C   -1.63724901  -2.91713853  -1.55681668
H   -0.87847944  -2.36316591  -2.06895265
H   -2.51764569  -2.96090352  -2.16335225
H   -1.28634343  -3.90966196  -1.36534445
C   -1.96723921  -2.22296309  -0.22234040
N   -2.21293191  -1.70611793   0.77123784
C    1.38533061  -3.19310766   1.63137570
H    0.41329918  -2.82874123   1.89078306
H    2.12511756  -2.67616139   2.20616341
H    1.44048067  -4.24129180   1.83914378
C    1.64021466  -2.95293711   0.13172500
N    1.82998741  -2.77411921  -0.98483312
C   -3.43230938   0.99067202  -1.43893898
H   -2.64811784   0.28162797  -1.60386425
H   -3.31298360   1.81664406  -2.10858863
H   -4.37862173   0.52310959  -1.61437386
C   -3.37071642   1.49532441   0.01472270
N   -3.32485766   1.87106105   1.09703989
C   -2.50043833   0.15491869   3.84159961
H   -3.09812375  -0.18094091   3.02009450
H   -2.17750709   1.15886625   3.66075767
H   -3.07974530   0.12307336   4.74064822
C   -1.27122651  -0.76079672   3.99027241
N   -0.35602244  -1.44258847   4.10096607
C   -2.46545423  -4.19361499   3.32285230
H   -3.17722908  -4.88115028   3.72975766
H   -2.96447662  -3.29154080   3.03625522
H   -1.72245080  -3.97143279   4.06006332
C   -1.79217961  -4.82216804   2.08866335
N   -1.29089606  -5.29015435   1.16975358
C   -1.05483022   1.73108551  -4.51837223
H   -1.73481480   2.29536114  -5.12179097
H   -0.08633661   1.73543399  -4.97323519
H   -0.99346933   2.17011142  -3.54451897
C   -1.55838227   0.28082013  -4.39685819
N   -1.93329967  -0.79896837  -4.30638546
C    3.95145027   0.04411323  -1.18434198
H    4.31130746  -0.85853879  -1.63225080
H    4.67854632   0.81902700  -1.30979744
H    3.03539299   0.33503239  -1.65455918
C    3.70548739  -0.19074571   0.31763789
N    3.52235685  -0.36560887   1.43593018
C   -0.65570094   4.23866188   1.30546539
H    0.36361585   4.00095544   1.52770198
H   -1.30218782   3.63258477   1.90515227
H   -0.83575746   5.27158272   1.51889753
C   -0.93315102   3.96644508  -0.18467536
N   -1.13972522   3.76376730  -1.29415289
