72
Energy:   -316.77534319
C    0.29781514  -0.03839878   1.12577494
H    0.06258136  -1.04514853   1.40149254
H   -0.39339352   0.63053721   1.59444787
H    1.29220494   0.19552593   1.44415717
C    0.20002157   0.11112404  -0.40382610
N    0.12720982   0.22245058  -1.54268360
C    2.98700538   1.65525024   3.87051643
H    3.54562361   2.48995592   4.23945039
H    3.25512458   1.46898745   2.85153785
H    3.20642347   0.79025748   4.46089116
C    1.48132078   1.96692070   3.95639663
N    0.36027015   2.19897352   4.02033834
C    1.80309400  -1.63114747  -4.11653786
H    2.59298010  -2.35240005  -4.14437401
H    1.22089923  -1.70508624  -5.01123412
H    1.17862628  -1.81865512  -3.26813935
C    2.40294154  -0.21679300  -4.00984030
N    2.84955529   0.83625819  -3.93039911
C    1.90089026   3.40668174  -1.94443637
H    1.34306836   4.31435313  -2.04377193
H    1.37275726   2.60917545  -2.42397609
H    2.86027730   3.52564172  -2.40304746
C    2.08305371   3.07691231  -0.45122888
N    2.21868267   2.83138398   0.66053197
C   -1.45100567  -2.92685164  -2.47483664
H   -2.48386814  -3.18548597  -2.58068361
H   -0.86076324  -3.54495183  -3.11862630
H   -1.31150756  -1.89973104  -2.74028466
C   -1.01473589  -3.14329555  -1.01387097
N   -0.68991321  -3.30444788   0.07388439
C    1.76608162  -3.65136654   2.31536899
H    0.75036541  -3.45439370   2.58817379
H    2.15456073  -4.43654489   2.92976141
H    1.80838523  -3.94812476   1.28821562
C    2.60795010  -2.37767805   2.51680160
N    3.23475945  -1.42935908   2.66677733
C   -3.40932692   0.44421524  -1.68463653
H   -2.53355227   0.84246768  -2.15294619
H   -4.26367228   1.01620111  -1.98098981
H   -3.54132025  -0.57479457  -1.98312581
C   -3.25019707   0.51440988  -0.15448935
N   -3.13171767   0.56667298   0.98477478
C   -2.36873341   0.41818846   4.45739581
H   -2.38753601   1.03355371   3.58225453
H   -2.02386212   0.99381889   5.29082996
H   -3.35459228   0.05428244   4.65877555
C   -1.41912711  -0.77220450   4.22758618
N   -0.71210205  -1.65850617   4.05648247
C   -3.54363440  -2.80173822   2.08092540
H   -3.79392969  -1.87669913   2.55690348
H   -2.48265398  -2.93859828   2.10303812
H   -4.01825760  -3.60904252   2.59850794
C   -4.02731322  -2.77421208   0.61911245
N   -4.38743409  -2.75371762  -0.46927374
C   -0.66082355   2.02055799  -4.48146663
H   -0.76173594   2.20010665  -3.43147656
H   -1.29287213   2.69463412  -5.02094329
H    0.35690469   2.17494013  -4.77351879
C   -1.07067631   0.56977894  -4.79588810
N   -1.37583032  -0.51039201  -5.02998918
C    4.00801327  -0.05784773  -0.47121888
H    3.78008348   0.64073251  -1.24899381
H    5.06731070  -0.19903088  -0.41778319
H    3.65099149   0.32043021   0.46384279
C    3.32530860  -1.40452273  -0.77450222
N    2.81700394  -2.40718348  -1.00031045
C   -1.28709702   3.64506914   1.49099353
H   -0.25867691   3.75571362   1.76487318
H   -1.68617687   2.76550891   1.95143696
H   -1.83797367   4.50125151   1.82021344
C   -1.40002616   3.51947023  -0.03971609
N   -1.48410704   3.42595613  -1.17939897
