72
Energy:   -316.69733781
C   -4.00785959   1.99505775  -0.86957137
H   -4.72451697   2.55149798  -1.43673682
H   -4.43711447   1.71315811   0.06913622
H   -3.72825869   1.11625103  -1.41217729
C   -2.76101662   2.86475080  -0.62336698
N   -1.83268536   3.51227680  -0.44005661
C    3.47060933   1.68338396   3.55583380
H    4.01752236   2.55574863   3.84698017
H    3.24543573   1.73575262   2.51110730
H    4.05972425   0.81162431   3.75045607
C    2.15965766   1.60714133   4.36031673
N    1.18359456   1.55037522   4.95929084
C    3.18333471  -1.97111147  -3.35836335
H    3.34719032  -0.93896848  -3.58799867
H    3.72021955  -2.58098775  -4.05457070
H    3.52791604  -2.17479109  -2.36605422
C    1.67885008  -2.28571401  -3.45402554
N    0.55869289  -2.51994990  -3.52525038
C   -0.06078725   3.62015758   2.29650588
H    0.21606459   3.74894674   3.32201385
H   -0.54239643   2.67263926   2.17337699
H   -0.73202756   4.40167525   2.00742863
C    1.19999679   3.67371441   1.41380816
N    2.13870781   3.71358989   0.75659957
C   -1.03701268  -3.94484086  -0.95069828
H   -1.46721439  -3.26158302  -1.65282746
H   -1.54021846  -4.88689900  -1.01557877
H    0.00092579  -4.07881242  -1.17348618
C   -1.18745941  -3.37954197   0.47387287
N   -1.29947384  -2.95865125   1.53453084
C    2.21984420  -2.55462266   2.58477853
H    2.45921345  -1.54449350   2.84408841
H    2.95191132  -3.21332390   3.00321551
H    1.25377820  -2.80291447   2.97203394
C    2.21211489  -2.70306184   1.05196867
N    2.20636006  -2.81358156  -0.08927794
C   -0.53823598  -0.04131804  -0.78741767
H   -1.47748807  -0.43382085  -0.45780087
H   -0.06955542  -0.74303999  -1.44531123
H   -0.69915532   0.88089180  -1.30561943
C    0.37064042   0.20625528   0.43088079
N    1.04734021   0.39058487   1.33795937
C   -1.21834648  -0.52840284   3.90859975
H   -0.20401809  -0.56013169   3.56943699
H   -1.56676066  -1.52458665   4.08502100
H   -1.27331376   0.03474788   4.81675115
C   -2.09765492   0.14050815   2.83576483
N   -2.75234003   0.63854278   2.03699047
C   -4.78034122  -1.90503183   1.22465049
H   -5.09288367  -0.94699159   1.58433967
H   -4.02374536  -2.29905905   1.87056406
H   -5.61792451  -2.57069203   1.20884461
C   -4.21395139  -1.75873560  -0.19991960
N   -3.79224841  -1.64981142  -1.26057680
C   -2.26734382  -1.03452236  -4.36190108
H   -3.23355034  -1.22735494  -4.77922679
H   -2.12932609  -1.63709320  -3.48854057
H   -1.51340994  -1.27318481  -5.08268054
C   -2.16047207   0.45376212  -3.98086600
N   -2.08090119   1.56185756  -3.69716807
C    3.85658913   0.58749306  -0.57296951
H    3.06082409  -0.01204771  -0.96310927
H    4.59402955   0.73990261  -1.33313531
H    3.46875565   1.53351678  -0.25749621
C    4.49872444  -0.13054049   0.62856704
N    4.97682337  -0.66514910   1.52316561
C    0.67164833   3.61894252  -2.67482108
H    0.75040243   3.85977642  -1.63525530
H   -0.35876881   3.61580956  -2.96314343
H    1.20104547   4.34869879  -3.25109667
C    1.27939668   2.22652486  -2.92664443
N    1.73189295   1.18980661  -3.11413836
