72
Energy:   -319.14478784
C    3.16303780   3.21401050  -1.32947373
H    3.15706731   4.27666608  -1.45448434
H    3.98179550   2.79514258  -1.87636001
H    3.26939058   2.97760009  -0.29135125
C    1.84016097   2.62769074  -1.85656578
N    0.85521904   2.19114902  -2.24900977
C    4.62158225  -0.90333889   1.23497054
H    5.05334616  -1.38307393   2.08839564
H    5.37578749  -0.75222272   0.49117121
H    3.84417339  -1.51991092   0.83450394
C    4.03355979   0.45703184   1.65356468
N    3.59575035   1.46988969   1.96522704
C    0.77164702   0.11158162   0.55957675
H    0.67176083  -0.39965053   1.49422354
H    0.81992703   1.16627757   0.73331388
H    1.66718853  -0.21071891   0.07067301
C   -0.44299115  -0.20672871  -0.33201321
N   -1.34734447  -0.44372522  -0.99584246
C   -2.02887993   3.27713186  -0.32803570
H   -3.08198995   3.44384353  -0.41785048
H   -1.71175404   2.58577498  -1.08060193
H   -1.50908510   4.20396108  -0.45333539
C   -1.71772840   2.69828650   1.06470361
N   -1.48606195   2.26730982   2.10166133
C   -1.16946766  -3.76646038  -2.10148658
H   -0.67658234  -2.82377727  -2.21686764
H   -1.74356815  -3.97855310  -2.97916785
H   -0.43940182  -4.53549941  -1.95837145
C   -2.10332926  -3.71112300  -0.87819582
N   -2.79863167  -3.66992181   0.03259976
C    0.37163964  -4.11340634   2.06626062
H   -0.69007027  -4.08783153   1.93580691
H    0.63856530  -3.54279808   2.93116293
H    0.69088209  -5.12653862   2.19489319
C    1.05606558  -3.51331011   0.82406674
N    1.56565179  -3.06651118  -0.10080307
C   -4.50789721  -1.35905216  -2.14705162
H   -4.76729241  -1.91509503  -1.27044986
H   -3.53615271  -1.65543692  -2.48286078
H   -5.22548456  -1.55178258  -2.91700128
C   -4.50035833   0.14519680  -1.81723616
N   -4.49474529   1.26517852  -1.57167356
C    0.89013823   0.29685774   4.59490556
H    0.28661617   0.66730806   3.79276601
H    1.50544417   1.08663356   4.97246596
H    0.25829851  -0.06821108   5.37746701
C    1.78255672  -0.84757642   4.07967776
N    2.44700285  -1.69965967   3.69606723
C   -3.62211703  -0.61886905   1.68906623
H   -3.35246020   0.11818125   0.96178208
H   -4.30268762  -0.19091627   2.39516762
H   -4.08979221  -1.44787589   1.20026498
C   -2.35760345  -1.10245331   2.42306329
N   -1.41611562  -1.46250377   2.96955746
C   -1.80951829   1.24725554  -4.08090848
H   -1.90469037   1.42120704  -3.02944125
H   -2.67692988   1.62045574  -4.58411602
H   -0.93977577   1.75062977  -4.44841554
C   -1.67589618  -0.26471919  -4.34105760
N   -1.57640844  -1.39045309  -4.53475045
C    1.76649040  -1.31061970  -3.15275789
H    0.86476851  -0.78257314  -2.92261739
H    1.68297942  -2.32277097  -2.81589764
H    1.92660723  -1.29886089  -4.21064418
C    2.95404278  -0.63079350  -2.44624838
N    3.83822951  -0.12463200  -1.92021995
C    1.50746361   3.86122100   3.00033057
H    2.55884516   3.89913275   3.19541956
H    1.17809949   2.84331046   3.01695878
H    0.98521659   4.41737742   3.75056199
C    1.21994304   4.47123828   1.61584119
N    1.00587090   4.92542387   0.58502592
