72
Energy:   -317.06419785
C   -2.14755828   1.53249653  -2.97530939
H   -1.90119527   2.56934672  -3.07095011
H   -2.88485384   1.27223462  -3.70576000
H   -1.26895508   0.94147746  -3.12910137
C   -2.70551519   1.26541513  -1.56500744
N   -3.12093947   1.06656088  -0.51497353
C   -1.42263285   3.66291816   1.36658142
H   -0.62903965   3.50390560   2.06645642
H   -2.08483832   2.82258016   1.38124593
H   -1.96245523   4.54712458   1.63429374
C   -0.83479122   3.82863994  -0.04712948
N   -0.39711640   3.95202734  -1.09970151
C   -3.87076584  -0.38539120   2.77842178
H   -3.63249390  -0.27229785   1.74143743
H   -3.87851086   0.57532727   3.24944103
H   -4.83547786  -0.83796254   2.87542182
C   -2.81408626  -1.27951469   3.45338212
N   -2.02734029  -1.94523027   3.95592077
C   -4.80863495  -1.98062599  -0.90188243
H   -5.58612654  -2.62489491  -0.54787033
H   -4.76968524  -2.02238175  -1.97035726
H   -5.00848473  -0.97640565  -0.59123686
C   -3.45805001  -2.43859068  -0.32068653
N   -2.45247814  -2.77956621   0.11204024
C    0.07981042  -4.06096058   2.09432023
H    0.16622861  -3.87589396   1.04399532
H   -0.93486394  -3.91337947   2.40018763
H    0.37266555  -5.06846623   2.30424240
C    0.99431454  -3.08966792   2.86365292
N    1.67520443  -2.36649638   3.43645607
C    3.78034526  -0.69864946   1.27175443
H    4.00613862   0.14319882   0.65110234
H    4.68836606  -1.10502393   1.66578122
H    3.14909739  -0.38824658   2.07802689
C    3.05702421  -1.77215621   0.43749434
N    2.51847880  -2.57143079  -0.18365022
C    1.55094727   2.47090947  -3.89709424
H    0.96510735   2.62811329  -3.01563027
H    1.29379091   3.20498185  -4.63187819
H    2.58964624   2.55713909  -3.65508599
C    1.26928119   1.06402933  -4.45651581
N    1.05956798   0.01654312  -4.87303059
C    0.64389128   0.43483471   5.01929482
H    0.96609002   0.86484088   5.94459632
H    1.43843936   0.48959139   4.30473612
H    0.37521503  -0.58893351   5.17617305
C   -0.57669856   1.21060093   4.49019443
N   -1.48548317   1.78819415   4.09625513
C    2.85674074   3.33609163  -0.17357084
H    2.56058799   4.36299385  -0.22519978
H    2.44171791   2.80304726  -1.00334120
H    3.92426120   3.27071272  -0.20558266
C    2.34386959   2.71940115   1.14106068
N    1.96201370   2.26024706   2.11986360
C    3.63167168  -1.27876217  -3.10288567
H    2.61632024  -1.46813802  -2.82342471
H    4.25077264  -2.08305420  -2.76417130
H    3.69979364  -1.20031327  -4.16782898
C    4.10393228   0.03847133  -2.45987259
N    4.45555176   1.01921155  -1.98112012
C   -0.28284516  -0.17529055   1.18183581
H    0.46414668  -0.09749396   1.94397167
H   -0.64815979  -1.18019629   1.14172637
H   -1.09103407   0.48935901   1.40537721
C    0.33101393   0.20245572  -0.17907740
N    0.78805992   0.48370500  -1.19233914
C   -0.12191029  -2.66591705  -2.75334485
H    0.60017026  -2.44835059  -3.51239998
H   -0.18686127  -3.72506769  -2.61593896
H    0.17602325  -2.20472319  -1.83495772
C   -1.49648968  -2.11843836  -3.18042634
N   -2.51992651  -1.71081560  -3.49840793
