72
Energy:   -318.27501373
C    1.09224796   0.30871401  -0.49939048
H    1.19613608   0.96093548  -1.34124237
H    1.17477433  -0.70771827  -0.82335638
H    1.86262340   0.51981013   0.21254997
C   -0.28481675   0.52908512   0.15385477
N   -1.31010402   0.69316143   0.64022554
C    4.31891675  -1.01544236   1.34743494
H    3.51473887  -1.61285920   1.72332221
H    4.18512351  -0.00056181   1.65890872
H    5.24726921  -1.38620129   1.72900881
C    4.33276046  -1.08266248  -0.19103502
N    4.34306772  -1.13271091  -1.33649583
C    2.01082105  -2.47073904  -3.29087656
H    3.04848956  -2.70290482  -3.41022187
H    1.42645866  -3.12238027  -3.90633038
H    1.73146353  -2.60217378  -2.26638479
C    1.76046465  -1.00954727  -3.70781815
N    1.57406294   0.07837642  -4.01825011
C   -2.68777506   3.92403486  -0.09578787
H   -2.68697332   4.93727817  -0.43964474
H   -3.66985887   3.51249706  -0.20089315
H   -1.99640369   3.34979212  -0.67643406
C   -2.27051964   3.88450896   1.38608109
N   -1.95985401   3.85508013   2.48939989
C    0.16053413  -5.42884299  -1.65964985
H   -0.07984625  -4.78451730  -2.47938265
H    0.20976274  -6.44075324  -2.00390743
H    1.10700798  -5.14541155  -1.24885434
C   -0.92656700  -5.30772519  -0.57561037
N   -1.73596321  -5.21754749   0.23150631
C   -0.48025261  -2.61999830   2.38454028
H   -0.04741115  -2.62305538   3.36307955
H   -1.21031380  -3.39915075   2.31503329
H   -0.94890282  -1.67503512   2.20478861
C    0.62202954  -2.85424232   1.33491949
N    1.44272871  -3.02864763   0.55342911
C   -4.53520008   1.03328466   1.85133278
H   -4.05964449   1.09041750   0.89452408
H   -4.45549566   1.97858795   2.34625500
H   -5.56777026   0.78428518   1.72211528
C   -3.84822901  -0.05110282   2.70208219
N   -3.33674782  -0.85847858   3.33550379
C   -0.67729648   1.16123074   4.20097570
H   -0.44490225   2.05052233   4.74874717
H   -1.06251879   0.42053307   4.87020647
H   -1.41095901   1.38359876   3.45452353
C    0.59858960   0.62732193   3.52373417
N    1.54854477   0.22980254   3.01949706
C   -3.23087092  -2.13192848  -0.33862847
H   -2.90893500  -1.80886803   0.62930200
H   -3.61963403  -3.12655107  -0.27163410
H   -3.99417489  -1.47412849  -0.69858029
C   -2.03610047  -2.11212125  -1.31008678
N   -1.14653956  -2.09737386  -2.03338165
C   -1.51758952   1.32130391  -3.18835781
H   -1.70406974   1.77412859  -4.13971217
H   -1.08110117   0.35509823  -3.33266166
H   -0.84573089   1.93586927  -2.62638408
C   -2.84439090   1.17567379  -2.42024976
N   -3.83225483   1.06724554  -1.84835840
C    3.79241022   2.24467479  -2.59769341
H    4.44623031   2.93581475  -3.08733104
H    2.77625624   2.49977824  -2.81506960
H    3.99407787   1.25382116  -2.94760532
C    4.02364990   2.30888025  -1.07650773
N    4.19581836   2.35668414   0.05608415
C    1.63279650   3.75400639   1.79790398
H    2.18343459   2.85642000   1.98773691
H    0.80786893   3.81663490   2.47648431
H    2.27253792   4.60065481   1.93507708
C    1.10681796   3.73718075   0.35060876
N    0.71520302   3.72465329  -0.72696833
