72
Energy:   -318.05192532
C    0.15750085  -0.44988409   1.08673021
H   -0.22943074  -1.42078978   0.85754409
H   -0.48772233   0.03440546   1.78961695
H    1.13608860  -0.54638497   1.50857458
C    0.23459743   0.38937000  -0.20218744
N    0.29199934   1.01423282  -1.16184521
C    3.41298507   1.29736629   2.75127614
H    4.40095567   1.49345229   3.11233646
H    3.33642540   0.27016104   2.46164347
H    2.70306360   1.50369996   3.52479861
C    3.12299037   2.19659208   1.53517745
N    2.90707613   2.86610656   0.62973669
C    1.44976100  -2.14688260  -3.04976995
H    1.28603239  -1.63985135  -2.12186239
H    1.98843762  -1.50606569  -3.71616344
H    2.01702422  -3.03705624  -2.87454890
C    0.09367875  -2.51774193  -3.67834316
N   -0.91598613  -2.79386357  -4.14634448
C    1.39906706   3.91954483  -2.62778380
H    1.72266755   3.50133830  -3.55799142
H    1.75606788   3.31400363  -1.82108103
H    1.78772171   4.91148428  -2.52827116
C   -0.13986497   3.96532504  -2.59325291
N   -1.28566982   3.99941049  -2.56754309
C   -2.12258226  -4.15540335  -1.09654598
H   -3.03921138  -4.63574850  -1.36850146
H   -1.80074754  -4.51560741  -0.14178185
H   -1.37470901  -4.37261908  -1.83030481
C   -2.34290177  -2.63300985  -1.02321567
N   -2.50693965  -1.49951869  -0.96861792
C    2.08693319  -3.47355468   2.15981168
H    1.29222632  -3.38128680   2.87032403
H    2.66329209  -2.57210105   2.15027915
H    2.71521547  -4.29572975   2.43218760
C    1.49693320  -3.72045378   0.75890452
N    1.05765139  -3.90428138  -0.28413453
C   -3.31426006   1.75886867  -0.89834354
H   -3.96235331   1.02375664  -1.32786145
H   -2.36607058   1.73132586  -1.39339625
H   -3.74927820   2.72950240  -1.01465550
C   -3.12007304   1.45953400   0.59975197
N   -2.97549197   1.23666573   1.71515218
C   -1.06220070  -0.17860276   4.87288456
H   -1.64380770  -1.01760883   5.19335654
H   -1.48955526   0.23226806   3.98212514
H   -1.05603105   0.56562416   5.64164156
C    0.38107260  -0.63353926   4.58723626
N    1.45565517  -0.97226018   4.37455811
C   -4.01707399  -1.86869808   2.32898368
H   -4.12315050  -1.50946719   1.32668576
H   -4.11644577  -1.05191009   3.01300249
H   -4.77583028  -2.59604845   2.52935688
C   -2.62933769  -2.51444648   2.49868037
N   -1.59610494  -2.99523552   2.62502727
C   -1.51657107   0.65844935  -4.10459582
H   -1.97525615   0.06514522  -4.86781164
H   -2.01171024   1.60497823  -4.04279470
H   -1.59467373   0.15303453  -3.16472619
C   -0.03136508   0.87748969  -4.44779328
N    1.07443829   1.04057518  -4.70331938
C    3.70188998   0.80812218  -2.11374302
H    4.35980964   0.40637837  -2.85579680
H    4.09362500   1.73696256  -1.75499754
H    2.73585357   0.97087965  -2.54407169
C    3.58154195  -0.18475370  -0.94271192
N    3.49193737  -0.92399493  -0.07082604
C   -0.44705818   3.93539945   1.01730193
H   -0.74728194   3.27625643   0.22971298
H    0.42235739   4.48052350   0.71422532
H   -1.24083217   4.62026341   1.23127224
C   -0.12382714   3.11380793   2.27908998
N    0.11683307   2.50209570   3.21854853
