65
Energy:  -1633.29138321
O   -1.15956146   0.89343069  -3.18862283
H   -1.91918601   0.46172246  -2.79768755
H   -0.54068547   0.99180620  -2.46505762
O   -2.06552324   3.39775371  -2.40867900
H   -1.32340717   3.63971263  -1.85464699
H   -1.80224744   2.57224515  -2.81543852
O    4.04293568  -1.22664508  -1.51328411
H    3.97716580  -1.16449609  -0.56037085
H    3.27906028  -1.74144088  -1.77349846
O   -3.85139746   2.39802291  -0.56294813
H   -3.26926590   2.87709123  -1.15273472
H   -3.79153164   1.48797717  -0.85357621
O    0.12106767   3.69411760  -0.84000030
H   -0.06922947   3.73932189   0.09700312
H    0.34475501   2.77649708  -0.99546218
O   -3.16119406  -0.09408615  -1.54316551
H   -3.35109758  -1.03106989  -1.49594306
H   -2.47158273   0.04403543  -0.89386551
O   -0.44857102   3.46616063   1.82790343
H    0.00525459   2.62747090   1.74499566
H   -1.36689775   3.23017009   1.95911444
O   -0.15895466  -4.09133761  -0.92355297
H    0.13585232  -3.94467051  -0.02477076
H    0.44119101  -3.57383368  -1.46043908
O    0.51430914  -3.20679709   1.59603435
H   -0.35823409  -3.04912018   1.95664238
H    0.70423837  -2.42535984   1.07688644
O   -2.32903912  -2.53049562  -0.32329760
H   -1.61661801  -3.09366631  -0.62583153
H   -1.90742355  -1.69323960  -0.12971423
O   -2.14429099  -0.01919770   2.74127148
H   -1.32968091   0.06287214   3.23716139
H   -1.86790028  -0.02439318   1.82485835
O    2.91435192   1.16605042  -2.21582853
H    3.33620372   0.34652026  -1.95767503
H    2.04051241   1.11870486  -1.82802089
O   -3.02993253   2.55439556   2.09576119
H   -3.32214293   2.47658071   1.18758181
H   -2.78858924   1.66296485   2.34742874
O    0.41351337   0.07361430   3.79066394
H    1.03437628  -0.65480565   3.77780001
H    0.56726374   0.53458779   2.96598455
O   -2.06678535  -2.74601928   2.38084527
H   -2.30484943  -2.76302487   1.45387809
H   -2.14077734  -1.82498895   2.63076557
O    2.22589369  -1.98754927   3.37190240
H    1.63565435  -2.52915952   2.84796757
H    2.79165274  -1.55880182   2.72977767
O    1.60900825  -2.33076081  -2.13856595
H    1.40246041  -1.86407364  -1.32876787
H    1.42426120  -1.69893919  -2.83347733
O    3.51149719  -0.88115790   1.15556183
H    3.61096538   0.07079261   1.14424167
H    2.62995592  -1.03440100   0.81551272
O    3.27516623   1.80267950   0.69924299
H    3.18914878   1.86264227  -0.25219661
H    2.37637902   1.71406203   1.01635550
O    1.27061760  -0.30927594  -3.97890011
H    0.40463207   0.06811693  -3.82438307
H    1.87394056   0.28231883  -3.52917922
S    0.25618627   0.22241285   0.13631795
O    0.66256796   1.05387120   1.30406404
O    1.05528952  -1.03506988   0.11985055
O   -1.19208098  -0.11083458   0.24387328
O    0.49896857   0.98168466  -1.12251607
