
                                 *****************
                                 * O   R   C   A *
                                 *****************

           --- An Ab Initio, DFT and Semiempirical electronic structure package ---

                  #######################################################
                  #                        -***-                        #
                  #          Department of theory and spectroscopy      #
                  #               Directorship: Frank Neese             #
                  #        Max Planck Institute fuer Kohlenforschung    #
                  #                Kaiser Wilhelm Platz 1               #
                  #                 D-45470 Muelheim/Ruhr               #
                  #                      Germany                        #
                  #                                                     #
                  #                  All rights reserved                #
                  #                        -***-                        #
                  #######################################################


                         Program Version 4.2.0 -  RELEASE  -


 With contributions from (in alphabetic order):
   Daniel Aravena         : Magnetic Suceptibility
   Michael Atanasov       : Ab Initio Ligand Field Theory (pilot matlab implementation)
   Alexander A. Auer      : GIAO ZORA, VPT2
   Ute Becker             : Parallelization
   Giovanni Bistoni       : ED, misc. LED, open-shell LED, HFLED
   Martin Brehm           : Molecular dynamics
   Dmytro Bykov           : SCF Hessian
   Vijay G. Chilkuri      : MRCI spin determinant printing, contributions to CSF-ICE
   Dipayan Datta          : RHF DLPNO-CCSD density
   Achintya Kumar Dutta   : EOM-CC, STEOM-CC
   Dmitry Ganyushin       : Spin-Orbit,Spin-Spin,Magnetic field MRCI
   Miquel Garcia          : C-PCM Hessian, Gaussian charge scheme
   Yang Guo               : DLPNO-NEVPT2, CIM, IAO-localization
   Andreas Hansen         : Spin unrestricted coupled pair/coupled cluster methods
   Benjamin Helmich-Paris : CASSCF linear response (MC-RPA)
   Lee Huntington         : MR-EOM, pCC
   Robert Izsak           : Overlap fitted RIJCOSX, COSX-SCS-MP3, EOM
   Christian Kollmar      : KDIIS, OOCD, Brueckner-CCSD(T), CCSD density
   Simone Kossmann        : Meta GGA functionals, TD-DFT gradient, OOMP2, MP2 Hessian
   Martin Krupicka        : AUTO-CI
   Lucas Lang             : DCDCAS
   Dagmar Lenk            : GEPOL surface, SMD
   Dimitrios Liakos       : Extrapolation schemes; Compound Job, initial MDCI parallelization
   Dimitrios Manganas     : Further ROCIS development; embedding schemes
   Dimitrios Pantazis     : SARC Basis sets
   Taras Petrenko         : DFT Hessian,TD-DFT gradient, ASA, ECA, R-Raman, ABS, FL, XAS/XES, NRVS
   Peter Pinski           : DLPNO-MP2, DLPNO-MP2 Gradient
   Christoph Reimann      : Effective Core Potentials
   Marius Retegan         : Local ZFS, SOC
   Christoph Riplinger    : Optimizer, TS searches, QM/MM, DLPNO-CCSD(T), (RO)-DLPNO pert. Triples
   Tobias Risthaus        : Range-separated hybrids, TD-DFT gradient, RPA, STAB
   Michael Roemelt        : Original ROCIS implementation
   Masaaki Saitow         : Open-shell DLPNO-CCSD energy and density
   Barbara Sandhoefer     : DKH picture change effects
   Avijit Sen             : IP-ROCIS
   Kantharuban Sivalingam : CASSCF convergence, NEVPT2, FIC-MRCI
   Bernardo de Souza      : ESD, SOC TD-DFT
   Georgi Stoychev        : AutoAux, RI-MP2 NMR
   Willem Van den Heuvel  : Paramagnetic NMR
   Boris Wezisla          : Elementary symmetry handling
   Frank Wennmohs         : Technical directorship


 We gratefully acknowledge several colleagues who have allowed us to
 interface, adapt or use parts of their codes:
   Stefan Grimme, W. Hujo, H. Kruse,             : VdW corrections, initial TS optimization,
                  C. Bannwarth                     DFT functionals, gCP, sTDA/sTD-DF
   Ed Valeev, F. Pavosevic, A. Kumar             : LibInt (2-el integral package), F12 methods
   Garnet Chan, S. Sharma, J. Yang, R. Olivares  : DMRG
   Ulf Ekstrom                                   : XCFun DFT Library
   Mihaly Kallay                                 : mrcc  (arbitrary order and MRCC methods)
   Andreas Klamt, Michael Diedenhofen            : otool_cosmo (COSMO solvation model)
   Jiri Pittner, Ondrej Demel                    : Mk-CCSD
   Frank Weinhold                                : gennbo (NPA and NBO analysis)
   Christopher J. Cramer and Donald G. Truhlar   : smd solvation model
   Lars Goerigk                                  : TD-DFT with DH, B97 family of functionals
   V. Asgeirsson, H. Jonsson                     : NEB implementation
   FAccTs GmbH                                   : IRC, NEB, NEB-TS, Multilevel, MM, QM/MM, CI optimization
   S Lehtola, MJT Oliveira, MAL Marques          : LibXC Library


 Your calculation uses the libint2 library for the computation of 2-el integrals
 For citations please refer to: http://libint.valeyev.net

 Your ORCA version has been built with support for libXC version: 4.2.3
 For citations please refer to: https://tddft.org/programs/libxc/

 This ORCA versions uses:
   CBLAS   interface :  Fast vector & matrix operations
   LAPACKE interface :  Fast linear algebra routines
   SCALAPACK package :  Parallel linear algebra routines


----- Orbital basis set information -----
Your calculation utilizes the basis: def2-TZVP
   F. Weigend and R. Ahlrichs, Phys. Chem. Chem. Phys. 7, 3297 (2005).

================================================================================
                                        WARNINGS
                       Please study these warnings very carefully!
================================================================================


WARNING: The frozen-core approximation for MP2-gradient calculations is turned on by default.

INFO   : the flag for use of LIBINT has been found!

================================================================================
                                       INPUT FILE
================================================================================
NAME = 12h2o.su.etal.mol3,4,7,9,11-orca.engrad-mp2.def2tzvp.frozencore.inp
|  1> # 12h2o.su.etal.mol3,4,7,9,11
|  2> ! MP2 def2-TZVP EnGrad TightSCF
|  3> 
|  4> %pal
|  5>     nprocs 6
|  6> end
|  7> 
|  8> %maxcore 8000
|  9> 
| 10> %scf
| 11>     ConvForced true
| 12> end
| 13> 
| 14> *xyz 0 1
| 15> O  -1.752130000  -0.741530000  -2.896280000
| 16> H  -2.036450000  -0.920500000  -1.984040000
| 17> H  -0.921210000  -1.242140000  -2.984230000
| 18> O  -0.885520000   1.737840000   0.052730000
| 19> H  -1.032320000   2.090180000  -0.841890000
| 20> H  -1.284090000   0.839590000   0.017130000
| 21> O  -1.737840000  -0.885520000  -0.052730000
| 22> H  -2.090180000  -1.032320000   0.841890000
| 23> H  -0.839590000  -1.284090000  -0.017130000
| 24> O   0.741530000  -1.752130000   2.896280000
| 25> H   0.920500000  -2.036450000   1.984040000
| 26> H   1.242140000  -0.921210000   2.984230000
| 27> O  -0.741530000   1.752130000   2.896280000
| 28> H  -0.920500000   2.036450000   1.984040000
| 29> H  -1.242140000   0.921210000   2.984230000
| 30> *
| 31> 
| 32>                          ****END OF INPUT****
================================================================================

                     *******************************
                     * Energy+Gradient Calculation *
                     *******************************

---------------------------------
CARTESIAN COORDINATES (ANGSTROEM)
---------------------------------
  O     -1.752130   -0.741530   -2.896280
  H     -2.036450   -0.920500   -1.984040
  H     -0.921210   -1.242140   -2.984230
  O     -0.885520    1.737840    0.052730
  H     -1.032320    2.090180   -0.841890
  H     -1.284090    0.839590    0.017130
  O     -1.737840   -0.885520   -0.052730
  H     -2.090180   -1.032320    0.841890
  H     -0.839590   -1.284090   -0.017130
  O      0.741530   -1.752130    2.896280
  H      0.920500   -2.036450    1.984040
  H      1.242140   -0.921210    2.984230
  O     -0.741530    1.752130    2.896280
  H     -0.920500    2.036450    1.984040
  H     -1.242140    0.921210    2.984230

----------------------------
CARTESIAN COORDINATES (A.U.)
----------------------------
  NO LB      ZA    FRAG     MASS         X           Y           Z
   0 O     8.0000    0    15.999   -3.311046   -1.401289   -5.473176
   1 H     1.0000    0     1.008   -3.848333   -1.739493   -3.749292
   2 H     1.0000    0     1.008   -1.740835   -2.347304   -5.639377
   3 O     8.0000    0    15.999   -1.673390    3.284042    0.099645
   4 H     1.0000    0     1.008   -1.950802    3.949868   -1.590942
   5 H     1.0000    0     1.008   -2.426578    1.586595    0.032371
   6 O     8.0000    0    15.999   -3.284042   -1.673390   -0.099645
   7 H     1.0000    0     1.008   -3.949868   -1.950802    1.590942
   8 H     1.0000    0     1.008   -1.586595   -2.426578   -0.032371
   9 O     8.0000    0    15.999    1.401289   -3.311046    5.473176
  10 H     1.0000    0     1.008    1.739493   -3.848333    3.749292
  11 H     1.0000    0     1.008    2.347304   -1.740835    5.639377
  12 O     8.0000    0    15.999   -1.401289    3.311046    5.473176
  13 H     1.0000    0     1.008   -1.739493    3.848333    3.749292
  14 H     1.0000    0     1.008   -2.347304    1.740835    5.639377

--------------------------------
INTERNAL COORDINATES (ANGSTROEM)
--------------------------------
 O      0   0   0     0.000000000000     0.00000000     0.00000000
 H      1   0   0     0.972136791249     0.00000000     0.00000000
 H      1   2   0     0.974050112161   103.86323780     0.00000000
 O      2   1   3     3.541164138161   107.84672602    95.40582707
 H      4   2   1     0.972645187106    72.17296994    29.09453504
 H      4   2   1     0.983350632989    33.04029707   190.88793319
 O      6   4   2     1.785153773264   170.81379649    88.00403199
 H      7   6   4     0.972645187106   101.65007623   109.44492584
 H      7   6   4     0.983350632989    99.09581498     3.33484705
 O      9   7   6     3.347679752321   121.30565948    83.11460775
 H     10   9   7     0.972136791249    46.46358234   170.36223581
 H     10   9   7     0.974050112161   101.65702229   268.49406050
 O      4   2   1     2.847229166523   126.48630953   195.00328214
 H     13   4   2     0.972136791249    19.08819947   226.21746260
 H     13   4   2     0.974050112161    93.43428486   350.31374249

---------------------------
INTERNAL COORDINATES (A.U.)
---------------------------
 O      0   0   0     0.000000000000     0.00000000     0.00000000
 H      1   0   0     1.837072300170     0.00000000     0.00000000
 H      1   2   0     1.840687952699   103.86323780     0.00000000
 O      2   1   3     6.691830416388   107.84672602    95.40582707
 H      4   2   1     1.838033029106    72.17296994    29.09453504
 H      4   2   1     1.858263389967    33.04029707   190.88793319
 O      6   4   2     3.373451738406   170.81379649    88.00403199
 H      7   6   4     1.838033029106   101.65007623   109.44492584
 H      7   6   4     1.858263389967    99.09581498     3.33484705
 O      9   7   6     6.326197915960   121.30565948    83.11460775
 H     10   9   7     1.837072300170    46.46358234   170.36223581
 H     10   9   7     1.840687952699   101.65702229   268.49406050
 O      4   2   1     5.380483365242   126.48630953   195.00328214
 H     13   4   2     1.837072300170    19.08819947   226.21746260
 H     13   4   2     1.840687952699    93.43428486   350.31374249

---------------------
BASIS SET INFORMATION
---------------------
There are 2 groups of distinct atoms

 Group   1 Type O   : 11s6p2d1f contracted to 5s3p2d1f pattern {62111/411/11/1}
 Group   2 Type H   : 5s1p contracted to 3s1p pattern {311/1}

Atom   0O    basis set group =>   1
Atom   1H    basis set group =>   2
Atom   2H    basis set group =>   2
Atom   3O    basis set group =>   1
Atom   4H    basis set group =>   2
Atom   5H    basis set group =>   2
Atom   6O    basis set group =>   1
Atom   7H    basis set group =>   2
Atom   8H    basis set group =>   2
Atom   9O    basis set group =>   1
Atom  10H    basis set group =>   2
Atom  11H    basis set group =>   2
Atom  12O    basis set group =>   1
Atom  13H    basis set group =>   2
Atom  14H    basis set group =>   2


           ************************************************************
           *        Program running with 6 parallel MPI-processes     *
           *              working on a common directory               *
           ************************************************************
------------------------------------------------------------------------------
                           ORCA GTO INTEGRAL CALCULATION
------------------------------------------------------------------------------

                         BASIS SET STATISTICS AND STARTUP INFO

 # of primitive gaussian shells          ...  160
 # of primitive gaussian functions       ...  310
 # of contracted shells                  ...   95
 # of contracted basis functions         ...  215
 Highest angular momentum                ...    3
 Maximum contraction depth               ...    6
 Integral package used                   ... LIBINT
 Integral threshhold            Thresh   ...  2.500e-11
 Primitive cut-off              TCut     ...  2.500e-12


------------------------------ INTEGRAL EVALUATION ----------------------------


 * One electron integrals 
 Pre-screening matrix                    ... done
 Shell pair data                         ... done (   0.001 sec)



           ************************************************************
           *        Program running with 6 parallel MPI-processes     *
           *              working on a common directory               *
           ************************************************************
-------------------------------------------------------------------------------
                                 ORCA SCF
-------------------------------------------------------------------------------

------------
SCF SETTINGS
------------
Hamiltonian:
 Ab initio Hamiltonian  Method          .... Hartree-Fock(GTOs)


General Settings:
 Integral files         IntName         .... 12h2o.su.etal.mol3,4,7,9,11-orca.engrad-mp2.def2tzvp.frozencore
 Hartree-Fock type      HFTyp           .... RHF
 Total Charge           Charge          ....    0
 Multiplicity           Mult            ....    1
 Number of Electrons    NEL             ....   50
 Basis Dimension        Dim             ....  215
 Nuclear Repulsion      ENuc            ....    185.1868544017 Eh

Convergence Acceleration:
 DIIS                   CNVDIIS         .... on
   Start iteration      DIISMaxIt       ....    12
   Startup error        DIISStart       ....  0.200000
   # of expansion vecs  DIISMaxEq       ....     5
   Bias factor          DIISBfac        ....   1.050
   Max. coefficient     DIISMaxC        ....  10.000
 Newton-Raphson         CNVNR           .... off
 SOSCF                  CNVSOSCF        .... on
   Start iteration      SOSCFMaxIt      ....   150
   Startup grad/error   SOSCFStart      ....  0.003300
 Level Shifting         CNVShift        .... on
   Level shift para.    LevelShift      ....    0.2500
   Turn off err/grad.   ShiftErr        ....    0.0010
 Zerner damping         CNVZerner       .... off
 Static damping         CNVDamp         .... on
   Fraction old density DampFac         ....    0.7000
   Max. Damping (<1)    DampMax         ....    0.9800
   Min. Damping (>=0)   DampMin         ....    0.0000
   Turn off err/grad.   DampErr         ....    0.1000
 Fernandez-Rico         CNVRico         .... off

SCF Procedure:
 Maximum # iterations   MaxIter         ....   125
 SCF integral mode      SCFMode         .... Direct
   Integral package                     .... LIBINT
 Reset frequency        DirectResetFreq ....    20
 Integral Threshold     Thresh          ....  2.500e-11 Eh
 Primitive CutOff       TCut            ....  2.500e-12 Eh

Convergence Tolerance:
 Convergence Check Mode ConvCheckMode   .... Total+1el-Energy
 Convergence forced     ConvForced      .... 1
 Energy Change          TolE            ....  1.000e-08 Eh
 1-El. energy change                    ....  1.000e-05 Eh
 Orbital Gradient       TolG            ....  1.000e-05
 Orbital Rotation angle TolX            ....  1.000e-05
 DIIS Error             TolErr          ....  5.000e-07


Diagonalization of the overlap matrix:
Smallest eigenvalue                        ... 4.256e-03
Time for diagonalization                   ...    0.009 sec
Threshold for overlap eigenvalues          ... 1.000e-08
Number of eigenvalues below threshold      ... 0
Time for construction of square roots      ...    0.006 sec
Total time needed                          ...    0.015 sec

-------------------
DFT GRID GENERATION
-------------------

General Integration Accuracy     IntAcc      ...  4.340
Radial Grid Type                 RadialGrid  ... Gauss-Chebyshev
Angular Grid (max. acc.)         AngularGrid ... Lebedev-110
Angular grid pruning method      GridPruning ... 3 (G Style)
Weight generation scheme         WeightScheme... Becke
Basis function cutoff            BFCut       ...    1.0000e-11
Integration weight cutoff        WCut        ...    1.0000e-14
Grids for H and He will be reduced by one unit

# of grid points (after initial pruning)     ...  16520 (   0.0 sec)
# of grid points (after weights+screening)   ...  15749 (   0.0 sec)
nearest neighbour list constructed           ...    0.0 sec
Grid point re-assignment to atoms done       ...    0.0 sec
Grid point division into batches done        ...    0.0 sec
Reduced shell lists constructed in    0.0 sec

Total number of grid points                  ...    15749
Total number of batches                      ...      253
Average number of points per batch           ...       62
Average number of grid points per atom       ...     1050
Average number of shells per batch           ...    45.61 (48.01%)
Average number of basis functions per batch  ...    93.84 (43.65%)
Average number of large shells per batch     ...    32.57 (71.40%)
Average number of large basis fcns per batch ...    66.70 (71.08%)
Maximum spatial batch extension              ...  15.87, 22.98, 15.27 au
Average spatial batch extension              ...   0.80,  0.87,  0.66 au

Time for grid setup =    0.041 sec

------------------------------
INITIAL GUESS: MODEL POTENTIAL
------------------------------
Loading Hartree-Fock densities                     ... done
Calculating cut-offs                               ... done
Setting up the integral package                    ... done
Initializing the effective Hamiltonian             ... done
Starting the Coulomb interaction                   ... done (   0.0 sec)
Reading the grid                                   ... done
Mapping shells                                     ... done
Starting the XC term evaluation                    ... done (   0.0 sec)
Transforming the Hamiltonian                       ... done (   0.0 sec)
Diagonalizing the Hamiltonian                      ... done (   0.0 sec)
Back transforming the eigenvectors                 ... done (   0.0 sec)
Now organizing SCF variables                       ... done
                      ------------------
                      INITIAL GUESS DONE (   0.1 sec)
                      ------------------
--------------
SCF ITERATIONS
--------------
ITER       Energy         Delta-E        Max-DP      RMS-DP      [F,P]     Damp
               ***  Starting incremental Fock matrix formation  ***
  0   -379.8301977904   0.000000000000 0.04352799  0.00108051  0.3451623 0.7000
  1   -380.0154415793  -0.185243788866 0.02879928  0.00074601  0.2169653 0.7000
                               ***Turning on DIIS***
  2   -380.1127311777  -0.097289598460 0.01649235  0.00041215  0.1637915 0.7000
  3   -380.9438707402  -0.831139562459 0.00730350  0.00018410  0.1218721 0.7000
  4   -380.7709769404   0.172893799763 0.01627506  0.00042526  0.0862027 0.0000
  5   -380.3356492583   0.435327682109 0.00222124  0.00006887  0.0058581 0.0000
                      *** Initiating the SOSCF procedure ***
                           *** Shutting down DIIS ***
                      *** Re-Reading the Fockian *** 
                      *** Removing any level shift *** 
ITER      Energy       Delta-E        Grad      Rot      Max-DP    RMS-DP
  6   -380.30716918   0.0284800830  0.000854  0.000854  0.001326  0.000041
               *** Restarting incremental Fock matrix formation ***
  7   -380.29973992   0.0074292572  0.000262  0.000372  0.000608  0.000018
  8   -380.29974716  -0.0000072429  0.000124  0.000301  0.000430  0.000015
  9   -380.29974884  -0.0000016784  0.000069  0.000048  0.000094  0.000003
 10   -380.29974898  -0.0000001430  0.000010  0.000006  0.000018  0.000000
                  ***Gradient check signals convergence***
              ***Rediagonalizing the Fockian in SOSCF/NRSCF***

               *****************************************************
               *                     SUCCESS                       *
               *           SCF CONVERGED AFTER  11 CYCLES          *
               *****************************************************


----------------
TOTAL SCF ENERGY
----------------

Total Energy       :         -380.29974899 Eh          -10348.48228 eV

Components:
Nuclear Repulsion  :          185.18685440 Eh            5039.19050 eV
Electronic Energy  :         -565.48660339 Eh          -15387.67277 eV
One Electron Energy:         -893.26551744 Eh          -24306.99047 eV
Two Electron Energy:          327.77891405 Eh            8919.31770 eV

Virial components:
Potential Energy   :         -760.06808607 Eh          -20682.50410 eV
Kinetic Energy     :          379.76833708 Eh           10334.02182 eV
Virial Ratio       :            2.00139931


---------------
SCF CONVERGENCE
---------------

  Last Energy change         ...   -3.1315e-09  Tolerance :   1.0000e-08
  Last MAX-Density change    ...    4.8940e-06  Tolerance :   1.0000e-07
  Last RMS-Density change    ...    1.4960e-07  Tolerance :   5.0000e-09
  Last Orbital Gradient      ...    1.8824e-06  Tolerance :   1.0000e-05
  Last Orbital Rotation      ...    2.1925e-06  Tolerance :   1.0000e-05

             **** THE GBW FILE WAS UPDATED (12h2o.su.etal.mol3,4,7,9,11-orca.engrad-mp2.def2tzvp.frozencore.gbw) ****
             **** DENSITY FILE WAS UPDATED (12h2o.su.etal.mol3,4,7,9,11-orca.engrad-mp2.def2tzvp.frozencore.scfp) ****
             **** ENERGY FILE WAS UPDATED (12h2o.su.etal.mol3,4,7,9,11-orca.engrad-mp2.def2tzvp.frozencore.en.tmp) ****
             **** THE GBW FILE WAS UPDATED (12h2o.su.etal.mol3,4,7,9,11-orca.engrad-mp2.def2tzvp.frozencore.gbw) ****
             **** DENSITY FILE WAS UPDATED (12h2o.su.etal.mol3,4,7,9,11-orca.engrad-mp2.def2tzvp.frozencore.scfp) ****
----------------
ORBITAL ENERGIES
----------------

  NO   OCC          E(Eh)            E(eV) 
   0   2.0000     -20.636378      -561.5444 
   1   2.0000     -20.583288      -560.0997 
   2   2.0000     -20.560426      -559.4776 
   3   2.0000     -20.557892      -559.4087 
   4   2.0000     -20.537234      -558.8466 
   5   2.0000      -1.419162       -38.6174 
   6   2.0000      -1.362167       -37.0665 
   7   2.0000      -1.344655       -36.5899 
   8   2.0000      -1.339728       -36.4558 
   9   2.0000      -1.318251       -35.8714 
  10   2.0000      -0.777576       -21.1589 
  11   2.0000      -0.724924       -19.7262 
  12   2.0000      -0.721909       -19.6441 
  13   2.0000      -0.711662       -19.3653 
  14   2.0000      -0.687534       -18.7088 
  15   2.0000      -0.654240       -17.8028 
  16   2.0000      -0.606557       -16.5053 
  17   2.0000      -0.599642       -16.3171 
  18   2.0000      -0.575145       -15.6505 
  19   2.0000      -0.564759       -15.3679 
  20   2.0000      -0.547631       -14.9018 
  21   2.0000      -0.527200       -14.3459 
  22   2.0000      -0.509248       -13.8573 
  23   2.0000      -0.503639       -13.7047 
  24   2.0000      -0.483062       -13.1448 
  25   0.0000       0.063538         1.7289 
  26   0.0000       0.123627         3.3641 
  27   0.0000       0.128602         3.4994 
  28   0.0000       0.157080         4.2744 
  29   0.0000       0.173540         4.7223 
  30   0.0000       0.210048         5.7157 
  31   0.0000       0.228201         6.2097 
  32   0.0000       0.254377         6.9220 
  33   0.0000       0.277758         7.5582 
  34   0.0000       0.320108         8.7106 
  35   0.0000       0.434901        11.8343 
  36   0.0000       0.462644        12.5892 
  37   0.0000       0.493390        13.4258 
  38   0.0000       0.504245        13.7212 
  39   0.0000       0.518194        14.1008 
  40   0.0000       0.524891        14.2830 
  41   0.0000       0.557887        15.1809 
  42   0.0000       0.564608        15.3638 
  43   0.0000       0.574451        15.6316 
  44   0.0000       0.588781        16.0215 
  45   0.0000       0.604622        16.4526 
  46   0.0000       0.605788        16.4843 
  47   0.0000       0.624526        16.9942 
  48   0.0000       0.635874        17.3030 
  49   0.0000       0.636724        17.3261 
  50   0.0000       0.665177        18.1004 
  51   0.0000       0.693960        18.8836 
  52   0.0000       0.700440        19.0599 
  53   0.0000       0.737910        20.0796 
  54   0.0000       0.748693        20.3730 
  55   0.0000       0.757799        20.6208 
  56   0.0000       0.767846        20.8942 
  57   0.0000       0.783115        21.3096 
  58   0.0000       0.793770        21.5996 
  59   0.0000       0.834086        22.6966 
  60   0.0000       0.844987        22.9933 
  61   0.0000       0.892127        24.2760 
  62   0.0000       0.951045        25.8792 
  63   0.0000       0.992683        27.0123 
  64   0.0000       1.036423        28.2025 
  65   0.0000       1.335378        36.3375 
  66   0.0000       1.354769        36.8651 
  67   0.0000       1.388387        37.7799 
  68   0.0000       1.410730        38.3879 
  69   0.0000       1.413650        38.4674 
  70   0.0000       1.424313        38.7575 
  71   0.0000       1.434097        39.0238 
  72   0.0000       1.463781        39.8315 
  73   0.0000       1.480054        40.2743 
  74   0.0000       1.499770        40.8108 
  75   0.0000       1.530825        41.6559 
  76   0.0000       1.538125        41.8545 
  77   0.0000       1.570927        42.7471 
  78   0.0000       1.585150        43.1341 
  79   0.0000       1.627194        44.2782 
  80   0.0000       1.773656        48.2636 
  81   0.0000       1.789335        48.6903 
  82   0.0000       1.793772        48.8110 
  83   0.0000       1.826346        49.6974 
  84   0.0000       1.859052        50.5874 
  85   0.0000       1.868431        50.8426 
  86   0.0000       1.900086        51.7040 
  87   0.0000       1.943539        52.8864 
  88   0.0000       1.974583        53.7311 
  89   0.0000       1.996789        54.3354 
  90   0.0000       2.004421        54.5431 
  91   0.0000       2.015249        54.8377 
  92   0.0000       2.086009        56.7632 
  93   0.0000       2.099105        57.1195 
  94   0.0000       2.171079        59.0781 
  95   0.0000       2.252293        61.2880 
  96   0.0000       2.278459        62.0000 
  97   0.0000       2.286382        62.2156 
  98   0.0000       2.309561        62.8464 
  99   0.0000       2.315587        63.0103 
 100   0.0000       2.335414        63.5498 
 101   0.0000       2.340138        63.6784 
 102   0.0000       2.352096        64.0038 
 103   0.0000       2.359328        64.2006 
 104   0.0000       2.365806        64.3768 
 105   0.0000       2.383831        64.8673 
 106   0.0000       2.412549        65.6488 
 107   0.0000       2.436515        66.3009 
 108   0.0000       2.474808        67.3429 
 109   0.0000       2.513083        68.3845 
 110   0.0000       2.552253        69.4503 
 111   0.0000       2.574853        70.0653 
 112   0.0000       2.591472        70.5175 
 113   0.0000       2.623325        71.3843 
 114   0.0000       2.629817        71.5610 
 115   0.0000       2.659304        72.3633 
 116   0.0000       2.667309        72.5812 
 117   0.0000       2.698115        73.4194 
 118   0.0000       2.720022        74.0156 
 119   0.0000       2.755364        74.9773 
 120   0.0000       2.879287        78.3494 
 121   0.0000       2.897524        78.8456 
 122   0.0000       2.928573        79.6905 
 123   0.0000       2.938403        79.9580 
 124   0.0000       2.947262        80.1991 
 125   0.0000       2.972104        80.8751 
 126   0.0000       2.993331        81.4527 
 127   0.0000       3.009012        81.8794 
 128   0.0000       3.021020        82.2061 
 129   0.0000       3.029612        82.4399 
 130   0.0000       3.056204        83.1635 
 131   0.0000       3.096034        84.2474 
 132   0.0000       3.115631        84.7806 
 133   0.0000       3.140861        85.4672 
 134   0.0000       3.157160        85.9107 
 135   0.0000       3.214355        87.4671 
 136   0.0000       3.244027        88.2745 
 137   0.0000       3.250709        88.4563 
 138   0.0000       3.293556        89.6222 
 139   0.0000       3.422354        93.1270 
 140   0.0000       3.983428       108.3946 
 141   0.0000       4.002899       108.9244 
 142   0.0000       4.041566       109.9766 
 143   0.0000       4.061401       110.5163 
 144   0.0000       4.084701       111.1504 
 145   0.0000       4.233140       115.1896 
 146   0.0000       4.288326       116.6913 
 147   0.0000       4.315197       117.4225 
 148   0.0000       4.331383       117.8629 
 149   0.0000       4.347729       118.3077 
 150   0.0000       5.472648       148.9183 
 151   0.0000       5.527428       150.4089 
 152   0.0000       5.546167       150.9189 
 153   0.0000       5.550590       151.0392 
 154   0.0000       5.570224       151.5735 
 155   0.0000       5.599569       152.3720 
 156   0.0000       5.631755       153.2478 
 157   0.0000       5.654595       153.8694 
 158   0.0000       5.655540       153.8951 
 159   0.0000       5.675822       154.4470 
 160   0.0000       5.748895       156.4354 
 161   0.0000       5.776133       157.1766 
 162   0.0000       5.800928       157.8513 
 163   0.0000       5.813559       158.1950 
 164   0.0000       5.823782       158.4732 
 165   0.0000       5.828258       158.5950 
 166   0.0000       5.833487       158.7373 
 167   0.0000       5.844450       159.0356 
 168   0.0000       5.856456       159.3623 
 169   0.0000       5.873859       159.8358 
 170   0.0000       5.874358       159.8494 
 171   0.0000       5.889425       160.2594 
 172   0.0000       5.897746       160.4858 
 173   0.0000       5.903105       160.6317 
 174   0.0000       5.925518       161.2415 
 175   0.0000       6.397832       174.0938 
 176   0.0000       6.461127       175.8162 
 177   0.0000       6.468603       176.0196 
 178   0.0000       6.491863       176.6526 
 179   0.0000       6.514030       177.2558 
 180   0.0000       6.632469       180.4787 
 181   0.0000       6.672838       181.5772 
 182   0.0000       6.675631       181.6532 
 183   0.0000       6.708356       182.5436 
 184   0.0000       6.736481       183.3090 
 185   0.0000       6.808353       185.2647 
 186   0.0000       6.812613       185.3806 
 187   0.0000       6.820887       185.6058 
 188   0.0000       6.840780       186.1471 
 189   0.0000       6.854140       186.5106 
 190   0.0000       6.866924       186.8585 
 191   0.0000       6.879162       187.1915 
 192   0.0000       6.893869       187.5917 
 193   0.0000       6.904622       187.8843 
 194   0.0000       6.906564       187.9371 
 195   0.0000       6.925485       188.4520 
 196   0.0000       6.953661       189.2187 
 197   0.0000       6.976442       189.8386 
 198   0.0000       6.996093       190.3734 
 199   0.0000       7.013575       190.8491 
 200   0.0000       7.321670       199.2328 
 201   0.0000       7.343286       199.8210 
 202   0.0000       7.371342       200.5844 
 203   0.0000       7.392291       201.1545 
 204   0.0000       7.426626       202.0888 
 205   0.0000       7.477226       203.4657 
 206   0.0000       7.491639       203.8579 
 207   0.0000       7.540834       205.1965 
 208   0.0000       7.569192       205.9682 
 209   0.0000       7.579901       206.2596 
 210   0.0000      44.812172      1219.4012 
 211   0.0000      44.893438      1221.6126 
 212   0.0000      44.925623      1222.4884 
 213   0.0000      44.950467      1223.1644 
 214   0.0000      44.999217      1224.4909 

                    ********************************
                    * MULLIKEN POPULATION ANALYSIS *
                    ********************************

-----------------------
MULLIKEN ATOMIC CHARGES
-----------------------
   0 O :   -0.709808
   1 H :    0.381943
   2 H :    0.330714
   3 O :   -0.753419
   4 H :    0.360966
   5 H :    0.373856
   6 O :   -0.733158
   7 H :    0.385384
   8 H :    0.366392
   9 O :   -0.697203
  10 H :    0.329474
  11 H :    0.369509
  12 O :   -0.717901
  13 H :    0.392644
  14 H :    0.320607
Sum of atomic charges:   -0.0000000

--------------------------------
MULLIKEN REDUCED ORBITAL CHARGES
--------------------------------
  0 O s       :     3.812305  s :     3.812305
      pz      :     1.545286  p :     4.870016
      px      :     1.512070
      py      :     1.812659
      dz2     :     0.011877  d :     0.025987
      dxz     :     0.001256
      dyz     :     0.003087
      dx2y2   :     0.002173
      dxy     :     0.007594
      f0      :     0.000253  f :     0.001500
      f+1     :     0.000375
      f-1     :     0.000169
      f+2     :     0.000056
      f-2     :     0.000055
      f+3     :     0.000071
      f-3     :     0.000522
  1 H s       :     0.569315  s :     0.569315
      pz      :     0.023769  p :     0.048742
      px      :     0.011739
      py      :     0.013235
  2 H s       :     0.624130  s :     0.624130
      pz      :     0.011084  p :     0.045156
      px      :     0.018099
      py      :     0.015973
  3 O s       :     3.808377  s :     3.808377
      pz      :     1.547223  p :     4.920117
      px      :     1.878963
      py      :     1.493932
      dz2     :     0.010420  d :     0.023464
      dxz     :     0.002368
      dyz     :     0.002530
      dx2y2   :     0.002966
      dxy     :     0.005180
      f0      :     0.000204  f :     0.001461
      f+1     :     0.000125
      f-1     :     0.000438
      f+2     :     0.000079
      f-2     :     0.000038
      f+3     :     0.000456
      f-3     :     0.000120
  4 H s       :     0.594331  s :     0.594331
      pz      :     0.018650  p :     0.044704
      px      :     0.013932
      py      :     0.012121
  5 H s       :     0.572539  s :     0.572539
      pz      :     0.009359  p :     0.053605
      px      :     0.015944
      py      :     0.028302
  6 O s       :     3.804441  s :     3.804441
      pz      :     1.577626  p :     4.902434
      px      :     1.472244
      py      :     1.852564
      dz2     :     0.011252  d :     0.024843
      dxz     :     0.002658
      dyz     :     0.002202
      dx2y2   :     0.003572
      dxy     :     0.005159
      f0      :     0.000186  f :     0.001440
      f+1     :     0.000456
      f-1     :     0.000118
      f+2     :     0.000070
      f-2     :     0.000038
      f+3     :     0.000111
      f-3     :     0.000461
  7 H s       :     0.571001  s :     0.571001
      pz      :     0.019205  p :     0.043615
      px      :     0.011407
      py      :     0.013003
  8 H s       :     0.591818  s :     0.591818
      pz      :     0.009201  p :     0.041789
      px      :     0.018670
      py      :     0.013918
  9 O s       :     3.816149  s :     3.816149
      pz      :     1.486591  p :     4.853065
      px      :     1.818333
      py      :     1.548141
      dz2     :     0.012379  d :     0.026458
      dxz     :     0.003076
      dyz     :     0.001306
      dx2y2   :     0.002111
      dxy     :     0.007586
      f0      :     0.000271  f :     0.001532
      f+1     :     0.000174
      f-1     :     0.000385
      f+2     :     0.000055
      f-2     :     0.000056
      f+3     :     0.000523
      f-3     :     0.000068
 10 H s       :     0.625209  s :     0.625209
      pz      :     0.018719  p :     0.045317
      px      :     0.014058
      py      :     0.012540
 11 H s       :     0.586443  s :     0.586443
      pz      :     0.010269  p :     0.044048
      px      :     0.015287
      py      :     0.018491
 12 O s       :     3.811451  s :     3.811451
      pz      :     1.560449  p :     4.879383
      px      :     1.810336
      py      :     1.508597
      dz2     :     0.011614  d :     0.025579
      dxz     :     0.002988
      dyz     :     0.001191
      dx2y2   :     0.002184
      dxy     :     0.007601
      f0      :     0.000246  f :     0.001487
      f+1     :     0.000166
      f-1     :     0.000374
      f+2     :     0.000056
      f-2     :     0.000056
      f+3     :     0.000520
      f-3     :     0.000070
 13 H s       :     0.558692  s :     0.558692
      pz      :     0.024549  p :     0.048664
      px      :     0.012657
      py      :     0.011458
 14 H s       :     0.634114  s :     0.634114
      pz      :     0.011263  p :     0.045279
      px      :     0.016159
      py      :     0.017856


                     *******************************
                     * LOEWDIN POPULATION ANALYSIS *
                     *******************************

----------------------
LOEWDIN ATOMIC CHARGES
----------------------
   0 O :   -0.336114
   1 H :    0.154813
   2 H :    0.159159
   3 O :   -0.343289
   4 H :    0.168763
   5 H :    0.149200
   6 O :   -0.283548
   7 H :    0.179388
   8 H :    0.179221
   9 O :   -0.329668
  10 H :    0.156233
  11 H :    0.175089
  12 O :   -0.340689
  13 H :    0.159639
  14 H :    0.151803

-------------------------------
LOEWDIN REDUCED ORBITAL CHARGES
-------------------------------
  0 O s       :     3.468764  s :     3.468764
      pz      :     1.530069  p :     4.832326
      px      :     1.517009
      py      :     1.785247
      dz2     :     0.015839  d :     0.032862
      dxz     :     0.001902
      dyz     :     0.002411
      dx2y2   :     0.002453
      dxy     :     0.010257
      f0      :     0.000449  f :     0.002162
      f+1     :     0.000569
      f-1     :     0.000322
      f+2     :     0.000024
      f-2     :     0.000045
      f+3     :     0.000003
      f-3     :     0.000749
  1 H s       :     0.675910  s :     0.675910
      pz      :     0.091273  p :     0.169277
      px      :     0.035850
      py      :     0.042154
  2 H s       :     0.683812  s :     0.683812
      pz      :     0.031241  p :     0.157029
      px      :     0.071021
      py      :     0.054767
  3 O s       :     3.462900  s :     3.462900
      pz      :     1.529840  p :     4.847946
      px      :     1.840255
      py      :     1.477851
      dz2     :     0.014673  d :     0.030401
      dxz     :     0.001632
      dyz     :     0.003976
      dx2y2   :     0.003872
      dxy     :     0.006248
      f0      :     0.000393  f :     0.002042
      f+1     :     0.000189
      f-1     :     0.000734
      f+2     :     0.000046
      f-2     :     0.000044
      f+3     :     0.000567
      f-3     :     0.000068
  4 H s       :     0.672396  s :     0.672396
      pz      :     0.079491  p :     0.158841
      px      :     0.042972
      py      :     0.036377
  5 H s       :     0.667395  s :     0.667395
      pz      :     0.029508  p :     0.183405
      px      :     0.052614
      py      :     0.101283
  6 O s       :     3.462127  s :     3.462127
      pz      :     1.541460  p :     4.786493
      px      :     1.455297
      py      :     1.789737
      dz2     :     0.015594  d :     0.032829
      dxz     :     0.003849
      dyz     :     0.001390
      dx2y2   :     0.005356
      dxy     :     0.006640
      f0      :     0.000366  f :     0.002099
      f+1     :     0.000744
      f-1     :     0.000206
      f+2     :     0.000040
      f-2     :     0.000043
      f+3     :     0.000074
      f-3     :     0.000626
  7 H s       :     0.661445  s :     0.661445
      pz      :     0.081272  p :     0.159168
      px      :     0.035358
      py      :     0.042538
  8 H s       :     0.666844  s :     0.666844
      pz      :     0.029414  p :     0.153935
      px      :     0.075259
      py      :     0.049262
  9 O s       :     3.473754  s :     3.473754
      pz      :     1.500563  p :     4.819999
      px      :     1.787813
      py      :     1.531623
      dz2     :     0.017175  d :     0.033700
      dxz     :     0.002548
      dyz     :     0.002245
      dx2y2   :     0.002221
      dxy     :     0.009510
      f0      :     0.000508  f :     0.002215
      f+1     :     0.000329
      f-1     :     0.000598
      f+2     :     0.000026
      f-2     :     0.000048
      f+3     :     0.000704
      f-3     :     0.000003
 10 H s       :     0.686232  s :     0.686232
      pz      :     0.079340  p :     0.157535
      px      :     0.042553
      py      :     0.035642
 11 H s       :     0.667801  s :     0.667801
      pz      :     0.029272  p :     0.157110
      px      :     0.054749
      py      :     0.073088
 12 O s       :     3.467723  s :     3.467723
      pz      :     1.539527  p :     4.838534
      px      :     1.783873
      py      :     1.515135
      dz2     :     0.015280  d :     0.032292
      dxz     :     0.002303
      dyz     :     0.001772
      dx2y2   :     0.002499
      dxy     :     0.010438
      f0      :     0.000427  f :     0.002140
      f+1     :     0.000320
      f-1     :     0.000563
      f+2     :     0.000024
      f-2     :     0.000045
      f+3     :     0.000757
      f-3     :     0.000003
 13 H s       :     0.669609  s :     0.669609
      pz      :     0.093668  p :     0.170752
      px      :     0.041493
      py      :     0.035591
 14 H s       :     0.690949  s :     0.690949
      pz      :     0.031701  p :     0.157248
      px      :     0.054962
      py      :     0.070585


                      *****************************
                      * MAYER POPULATION ANALYSIS *
                      *****************************

  NA   - Mulliken gross atomic population
  ZA   - Total nuclear charge
  QA   - Mulliken gross atomic charge
  VA   - Mayer's total valence
  BVA  - Mayer's bonded valence
  FA   - Mayer's free valence

  ATOM       NA         ZA         QA         VA         BVA        FA
  0 O      8.7098     8.0000    -0.7098     1.7699     1.7699     0.0000
  1 H      0.6181     1.0000     0.3819     0.8744     0.8744     0.0000
  2 H      0.6693     1.0000     0.3307     0.9051     0.9051     0.0000
  3 O      8.7534     8.0000    -0.7534     1.7176     1.7176    -0.0000
  4 H      0.6390     1.0000     0.3610     0.8879     0.8879     0.0000
  5 H      0.6261     1.0000     0.3739     0.8948     0.8948    -0.0000
  6 O      8.7332     8.0000    -0.7332     1.7611     1.7611    -0.0000
  7 H      0.6146     1.0000     0.3854     0.8696     0.8696    -0.0000
  8 H      0.6336     1.0000     0.3664     0.8863     0.8863    -0.0000
  9 O      8.6972     8.0000    -0.6972     1.7806     1.7806     0.0000
 10 H      0.6705     1.0000     0.3295     0.9063     0.9063    -0.0000
 11 H      0.6305     1.0000     0.3695     0.8809     0.8809     0.0000
 12 O      8.7179     8.0000    -0.7179     1.7592     1.7592    -0.0000
 13 H      0.6074     1.0000     0.3926     0.8732     0.8732    -0.0000
 14 H      0.6794     1.0000     0.3206     0.9142     0.9142     0.0000

  Mayer bond orders larger than 0.100000
B(  0-O ,  1-H ) :   0.8597 B(  0-O ,  2-H ) :   0.8999 B(  3-O ,  4-H ) :   0.8782 
B(  3-O ,  5-H ) :   0.8365 B(  6-O ,  7-H ) :   0.8581 B(  6-O ,  8-H ) :   0.8668 
B(  9-O , 10-H ) :   0.8996 B(  9-O , 11-H ) :   0.8701 B( 12-O , 13-H ) :   0.8439 
B( 12-O , 14-H ) :   0.9051 

-------
TIMINGS
-------

Total SCF time: 0 days 0 hours 0 min 6 sec 

Total time                  ....       6.546 sec
Sum of individual times     ....       6.371 sec  ( 97.3%)

Fock matrix formation       ....       5.928 sec  ( 90.6%)
Diagonalization             ....       0.110 sec  (  1.7%)
Density matrix formation    ....       0.011 sec  (  0.2%)
Population analysis         ....       0.012 sec  (  0.2%)
Initial guess               ....       0.106 sec  (  1.6%)
Orbital Transformation      ....       0.000 sec  (  0.0%)
Orbital Orthonormalization  ....       0.000 sec  (  0.0%)
DIIS solution               ....       0.042 sec  (  0.6%)
SOSCF solution              ....       0.121 sec  (  1.8%)


           ************************************************************
           *        Program running with 6 parallel MPI-processes     *
           *              working on a common directory               *
           ************************************************************

------------------------------------------------------------------------------
                                ORCA  MP2 
------------------------------------------------------------------------------

Freezing NCore=10 chemical core electrons
MP2 will be done in the AO integral direct mode
The Q1-step will be done using symmetric double matrices
Dimension of the basis                    ...  215
Memory devoted for MP2                    ... 8000 MB   
Memory needed for all in one shot         ...  153 MB
Number of MOs that can be treated together...  209      
MP2 density construction                  ... relaxed
The MP2 gradient is requested => amplitudes will be stored on disk
Total number of MOs              ...   20
Number of MOs treated per batch  ...    4 
Number of batches necessary      ...    1 
OPERATORS   0/  0 PASS   0
-----------------------------------------------
 MP2 CORRELATION ENERGY   :     -1.286910344 Eh
-----------------------------------------------


---------------------
MP2 DENSITY FORMATION
---------------------

Completing the external part of the density      ... done
Storing the unrelaxed density                    ... done

Calculating G(D)                                 ... done
Completing the Lagrangian                        ... done
Solving the Z-vector equations                   ... 

------------------------------------------------------------------------------
                           ORCA CP-SCF CALCULATION
------------------------------------------------------------------------------

Input orbitals are from        ... 12h2o.su.etal.mol3,4,7,9,11-orca.engrad-mp2.def2tzvp.frozencore.gbw
Input Perturbation             ... 12h2o.su.etal.mol3,4,7,9,11-orca.engrad-mp2.def2tzvp.frozencore.pin.tmp
Wavefunction output            ... 12h2o.su.etal.mol3,4,7,9,11-orca.engrad-mp2.def2tzvp.frozencore.pout.tmp
Perturbation mode              ... Real perturbation (singlet)
Solver                         ... POPLE
Max. number of iterations      ... 128
Convergence tolerance          ... 1.000e-08
Integral handling              ... Direct
Number of perturbations        ... 1
Number of operators            ... 1
Orbital ranges used for CP-SCF:
 Operator 0:  Orbitals   0... 24  to  25...214
Variables per vector in CP-SCF ... 4750
Number of vectors sought       ... 1
     CP-SCF ITERATION   0: 
     CP-SCF ITERATION   1:      0.000619024632
     CP-SCF ITERATION   2:      0.000014261160
     CP-SCF ITERATION   3:      0.000000649667
     CP-SCF ITERATION   4:      0.000000052859
     CP-SCF ITERATION   5:      0.000000003938
                                                 ... done
Finalizing the relaxed density                   ... done
Transforming P to the AO basis                   ... done
Storing the relaxed density                      ... done

------------------------------------
ENERGY WEIGHTED DENSITY FINALIZATION
------------------------------------

Gathering the parts of the W-matrix              ...                                                      done
Forming the Z-density                            ... done
Transforming Z to the AO basis                   ... done
Calculating G(Z)                                 ... done
Finalizing the W-matrix                          ...                                                      done
Transforming W to the AO basis and storing       ... done

                *********************************************
                * UNRELAXED MP2 DENSITY POPULATION ANALYSIS *
                *********************************************

------------------------------------------------------------------------------
                           ORCA POPULATION ANALYSIS
------------------------------------------------------------------------------
Input electron density              ... 12h2o.su.etal.mol3,4,7,9,11-orca.engrad-mp2.def2tzvp.frozencore.pmp2ur
BaseName (.gbw .S,...)              ... 12h2o.su.etal.mol3,4,7,9,11-orca.engrad-mp2.def2tzvp.frozencore

                    ********************************
                    * MULLIKEN POPULATION ANALYSIS *
                    ********************************

-----------------------
MULLIKEN ATOMIC CHARGES
-----------------------
   0 O :   -0.704515
   1 H :    0.379162
   2 H :    0.328314
   3 O :   -0.747693
   4 H :    0.358585
   5 H :    0.369612
   6 O :   -0.727047
   7 H :    0.382955
   8 H :    0.363465
   9 O :   -0.692165
  10 H :    0.327073
  11 H :    0.366981
  12 O :   -0.712499
  13 H :    0.389734
  14 H :    0.318039
Sum of atomic charges:   -0.0000000

--------------------------------
MULLIKEN REDUCED ORBITAL CHARGES
--------------------------------
  0 O s       :     3.807512  s :     3.807512
      pz      :     1.535948  p :     4.840411
      px      :     1.503095
      py      :     1.801369
      dz2     :     0.016968  d :     0.052534
      dxz     :     0.006624
      dyz     :     0.008536
      dx2y2   :     0.007630
      dxy     :     0.012775
      f0      :     0.000632  f :     0.004058
      f+1     :     0.000741
      f-1     :     0.000542
      f+2     :     0.000414
      f-2     :     0.000420
      f+3     :     0.000437
      f-3     :     0.000872
  1 H s       :     0.570508  s :     0.570508
      pz      :     0.023847  p :     0.050330
      px      :     0.012398
      py      :     0.014085
  2 H s       :     0.624817  s :     0.624817
      pz      :     0.011906  p :     0.046869
      px      :     0.018293
      py      :     0.016670
  3 O s       :     3.803358  s :     3.803358
      pz      :     1.537812  p :     4.889574
      px      :     1.867044
      py      :     1.484718
      dz2     :     0.015718  d :     0.050725
      dxz     :     0.007954
      dyz     :     0.007968
      dx2y2   :     0.008490
      dxy     :     0.010596
      f0      :     0.000586  f :     0.004036
      f+1     :     0.000497
      f-1     :     0.000806
      f+2     :     0.000442
      f-2     :     0.000405
      f+3     :     0.000813
      f-3     :     0.000487
  4 H s       :     0.595112  s :     0.595112
      pz      :     0.018777  p :     0.046302
      px      :     0.014785
      py      :     0.012740
  5 H s       :     0.575080  s :     0.575080
      pz      :     0.010174  p :     0.055308
      px      :     0.016678
      py      :     0.028456
  6 O s       :     3.799322  s :     3.799322
      pz      :     1.568041  p :     4.871516
      px      :     1.463531
      py      :     1.839944
      dz2     :     0.016540  d :     0.052189
      dxz     :     0.008035
      dyz     :     0.007866
      dx2y2   :     0.009120
      dxy     :     0.010628
      f0      :     0.000570  f :     0.004021
      f+1     :     0.000821
      f-1     :     0.000494
      f+2     :     0.000435
      f-2     :     0.000404
      f+3     :     0.000480
      f-3     :     0.000816
  7 H s       :     0.571940  s :     0.571940
      pz      :     0.019326  p :     0.045105
      px      :     0.011965
      py      :     0.013814
  8 H s       :     0.593204  s :     0.593204
      pz      :     0.009992  p :     0.043331
      px      :     0.018697
      py      :     0.014641
  9 O s       :     3.811373  s :     3.811373
      pz      :     1.477878  p :     4.823946
      px      :     1.806949
      py      :     1.539120
      dz2     :     0.017310  d :     0.052768
      dxz     :     0.008473
      dyz     :     0.006618
      dx2y2   :     0.007560
      dxy     :     0.012807
      f0      :     0.000644  f :     0.004077
      f+1     :     0.000543
      f-1     :     0.000747
      f+2     :     0.000412
      f-2     :     0.000419
      f+3     :     0.000876
      f-3     :     0.000436
 10 H s       :     0.625896  s :     0.625896
      pz      :     0.018834  p :     0.047030
      px      :     0.014943
      py      :     0.013253
 11 H s       :     0.587411  s :     0.587411
      pz      :     0.011028  p :     0.045608
      px      :     0.015948
      py      :     0.018632
 12 O s       :     3.806625  s :     3.806625
      pz      :     1.550963  p :     4.849646
      px      :     1.799017
      py      :     1.499666
      dz2     :     0.016726  d :     0.052182
      dxz     :     0.008443
      dyz     :     0.006581
      dx2y2   :     0.007641
      dxy     :     0.012791
      f0      :     0.000626  f :     0.004046
      f+1     :     0.000540
      f-1     :     0.000740
      f+2     :     0.000415
      f-2     :     0.000420
      f+3     :     0.000870
      f-3     :     0.000436
 13 H s       :     0.560101  s :     0.560101
      pz      :     0.024586  p :     0.050166
      px      :     0.013478
      py      :     0.012102
 14 H s       :     0.634915  s :     0.634915
      pz      :     0.012106  p :     0.047047
      px      :     0.016886
      py      :     0.018055


                     *******************************
                     * LOEWDIN POPULATION ANALYSIS *
                     *******************************

----------------------
LOEWDIN ATOMIC CHARGES
----------------------
   0 O :   -0.333059
   1 H :    0.153003
   2 H :    0.157693
   3 O :   -0.340133
   4 H :    0.167330
   5 H :    0.146642
   6 O :   -0.278863
   7 H :    0.177957
   8 H :    0.177377
   9 O :   -0.326644
  10 H :    0.154727
  11 H :    0.173689
  12 O :   -0.337651
  13 H :    0.157838
  14 H :    0.150094

-------------------------------
LOEWDIN REDUCED ORBITAL CHARGES
-------------------------------
  0 O s       :     3.465012  s :     3.465012
      pz      :     1.520565  p :     4.802600
      px      :     1.507785
      py      :     1.774251
      dz2     :     0.021612  d :     0.060532
      dxz     :     0.007227
      dyz     :     0.007808
      dx2y2   :     0.007904
      dxy     :     0.015982
      f0      :     0.000870  f :     0.004915
      f+1     :     0.000989
      f-1     :     0.000718
      f+2     :     0.000388
      f-2     :     0.000416
      f+3     :     0.000375
      f-3     :     0.001159
  1 H s       :     0.674753  s :     0.674753
      pz      :     0.092668  p :     0.172243
      px      :     0.036592
      py      :     0.042983
  2 H s       :     0.681909  s :     0.681909
      pz      :     0.032019  p :     0.160398
      px      :     0.072508
      py      :     0.055870
  3 O s       :     3.459166  s :     3.459166
      pz      :     1.519727  p :     4.817364
      px      :     1.828907
      py      :     1.468730
      dz2     :     0.020596  d :     0.058790
      dxz     :     0.007154
      dyz     :     0.009436
      dx2y2   :     0.009587
      dxy     :     0.012017
      f0      :     0.000807  f :     0.004812
      f+1     :     0.000577
      f-1     :     0.001171
      f+2     :     0.000417
      f-2     :     0.000417
      f+3     :     0.000978
      f-3     :     0.000445
  4 H s       :     0.670729  s :     0.670729
      pz      :     0.081025  p :     0.161942
      px      :     0.043753
      py      :     0.037164
  5 H s       :     0.667071  s :     0.667071
      pz      :     0.030347  p :     0.186287
      px      :     0.053512
      py      :     0.102429
  6 O s       :     3.458247  s :     3.458247
      pz      :     1.531213  p :     4.754512
      px      :     1.446236
      py      :     1.777064
      dz2     :     0.021508  d :     0.061227
      dxz     :     0.009260
      dyz     :     0.006972
      dx2y2   :     0.011080
      dxy     :     0.012407
      f0      :     0.000782  f :     0.004877
      f+1     :     0.001178
      f-1     :     0.000598
      f+2     :     0.000412
      f-2     :     0.000416
      f+3     :     0.000454
      f-3     :     0.001038
  7 H s       :     0.659998  s :     0.659998
      pz      :     0.082674  p :     0.162046
      px      :     0.036069
      py      :     0.043303
  8 H s       :     0.665603  s :     0.665603
      pz      :     0.030224  p :     0.157020
      px      :     0.076595
      py      :     0.050202
  9 O s       :     3.470008  s :     3.470008
      pz      :     1.491374  p :     4.790581
      px      :     1.776763
      py      :     1.522444
      dz2     :     0.022840  d :     0.061101
      dxz     :     0.007887
      dyz     :     0.007494
      dx2y2   :     0.007655
      dxy     :     0.015226
      f0      :     0.000923  f :     0.004953
      f+1     :     0.000721
      f-1     :     0.001014
      f+2     :     0.000388
      f-2     :     0.000418
      f+3     :     0.001114
      f-3     :     0.000376
 10 H s       :     0.684365  s :     0.684365
      pz      :     0.081099  p :     0.160909
      px      :     0.043397
      py      :     0.036413
 11 H s       :     0.666234  s :     0.666234
      pz      :     0.029983  p :     0.160077
      px      :     0.055743
      py      :     0.074350
 12 O s       :     3.463982  s :     3.463982
      pz      :     1.530027  p :     4.808755
      px      :     1.772845
      py      :     1.505883
      dz2     :     0.021069  d :     0.060021
      dxz     :     0.007702
      dyz     :     0.007112
      dx2y2   :     0.007959
      dxy     :     0.016179
      f0      :     0.000848  f :     0.004893
      f+1     :     0.000717
      f-1     :     0.000984
      f+2     :     0.000388
      f-2     :     0.000416
      f+3     :     0.001167
      f-3     :     0.000374
 13 H s       :     0.668635  s :     0.668635
      pz      :     0.094932  p :     0.173527
      px      :     0.042288
      py      :     0.036307
 14 H s       :     0.689168  s :     0.689168
      pz      :     0.032499  p :     0.160738
      px      :     0.056100
      py      :     0.072139


                      *****************************
                      * MAYER POPULATION ANALYSIS *
                      *****************************

  NA   - Mulliken gross atomic population
  ZA   - Total nuclear charge
  QA   - Mulliken gross atomic charge
  VA   - Mayer's total valence
  BVA  - Mayer's bonded valence
  FA   - Mayer's free valence

  ATOM       NA         ZA         QA         VA         BVA        FA
  0 O      8.7045     8.0000    -0.7045     2.0754     1.6883     0.3870
  1 H      0.6208     1.0000     0.3792     0.8804     0.8358     0.0446
  2 H      0.6717     1.0000     0.3283     0.9113     0.8623     0.0490
  3 O      8.7477     8.0000    -0.7477     2.0298     1.6382     0.3915
  4 H      0.6414     1.0000     0.3586     0.8936     0.8472     0.0465
  5 H      0.6304     1.0000     0.3696     0.9025     0.8549     0.0476
  6 O      8.7270     8.0000    -0.7270     2.0722     1.6812     0.3910
  7 H      0.6170     1.0000     0.3830     0.8752     0.8306     0.0446
  8 H      0.6365     1.0000     0.3635     0.8928     0.8450     0.0478
  9 O      8.6922     8.0000    -0.6922     2.0845     1.6984     0.3861
 10 H      0.6729     1.0000     0.3271     0.9126     0.8635     0.0490
 11 H      0.6330     1.0000     0.3670     0.8868     0.8410     0.0459
 12 O      8.7125     8.0000    -0.7125     2.0662     1.6781     0.3881
 13 H      0.6103     1.0000     0.3897     0.8792     0.8355     0.0437
 14 H      0.6820     1.0000     0.3180     0.9208     0.8705     0.0503

  Mayer bond orders larger than 0.100000
B(  0-O ,  1-H ) :   0.8214 B(  0-O ,  2-H ) :   0.8576 B(  3-O ,  4-H ) :   0.8382 
B(  3-O ,  5-H ) :   0.7980 B(  6-O ,  7-H ) :   0.8198 B(  6-O ,  8-H ) :   0.8264 
B(  9-O , 10-H ) :   0.8573 B(  9-O , 11-H ) :   0.8307 B( 12-O , 13-H ) :   0.8070 
B( 12-O , 14-H ) :   0.8619 


                *******************************************
                * RELAXED MP2 DENSITY POPULATION ANALYSIS *
                *******************************************

------------------------------------------------------------------------------
                           ORCA POPULATION ANALYSIS
------------------------------------------------------------------------------
Input electron density              ... 12h2o.su.etal.mol3,4,7,9,11-orca.engrad-mp2.def2tzvp.frozencore.pmp2re
BaseName (.gbw .S,...)              ... 12h2o.su.etal.mol3,4,7,9,11-orca.engrad-mp2.def2tzvp.frozencore

                    ********************************
                    * MULLIKEN POPULATION ANALYSIS *
                    ********************************

-----------------------
MULLIKEN ATOMIC CHARGES
-----------------------
   0 O :   -0.687223
   1 H :    0.367615
   2 H :    0.322909
   3 O :   -0.725834
   4 H :    0.350078
   5 H :    0.349452
   6 O :   -0.702188
   7 H :    0.374490
   8 H :    0.354551
   9 O :   -0.677105
  10 H :    0.321350
  11 H :    0.358619
  12 O :   -0.694389
  13 H :    0.376116
  14 H :    0.311559
Sum of atomic charges:   -0.0000000

--------------------------------
MULLIKEN REDUCED ORBITAL CHARGES
--------------------------------
  0 O s       :     3.809965  s :     3.809965
      pz      :     1.532145  p :     4.822931
      px      :     1.495292
      py      :     1.795494
      dz2     :     0.015713  d :     0.050341
      dxz     :     0.006586
      dyz     :     0.008515
      dx2y2   :     0.007540
      dxy     :     0.011988
      f0      :     0.000616  f :     0.003986
      f+1     :     0.000719
      f-1     :     0.000532
      f+2     :     0.000415
      f-2     :     0.000419
      f+3     :     0.000438
      f-3     :     0.000848
  1 H s       :     0.581529  s :     0.581529
      pz      :     0.022959  p :     0.050856
      px      :     0.012890
      py      :     0.015007
  2 H s       :     0.629376  s :     0.629376
      pz      :     0.012666  p :     0.047715
      px      :     0.017778
      py      :     0.017270
  3 O s       :     3.805070  s :     3.805070
      pz      :     1.527408  p :     4.868126
      px      :     1.861429
      py      :     1.479289
      dz2     :     0.014565  d :     0.048670
      dxz     :     0.007970
      dyz     :     0.007695
      dx2y2   :     0.008286
      dxy     :     0.010155
      f0      :     0.000574  f :     0.003968
      f+1     :     0.000491
      f-1     :     0.000777
      f+2     :     0.000442
      f-2     :     0.000404
      f+3     :     0.000795
      f-3     :     0.000486
  4 H s       :     0.602946  s :     0.602946
      pz      :     0.018051  p :     0.046976
      px      :     0.015733
      py      :     0.013192
  5 H s       :     0.594753  s :     0.594753
      pz      :     0.010904  p :     0.055796
      px      :     0.017285
      py      :     0.027606
  6 O s       :     3.802714  s :     3.802714
      pz      :     1.560225  p :     4.845491
      px      :     1.459208
      py      :     1.826059
      dz2     :     0.015352  d :     0.050037
      dxz     :     0.007765
      dyz     :     0.007923
      dx2y2   :     0.008844
      dxy     :     0.010153
      f0      :     0.000557  f :     0.003946
      f+1     :     0.000791
      f-1     :     0.000489
      f+2     :     0.000434
      f-2     :     0.000403
      f+3     :     0.000479
      f-3     :     0.000794
  7 H s       :     0.579824  s :     0.579824
      pz      :     0.018590  p :     0.045685
      px      :     0.012358
      py      :     0.014737
  8 H s       :     0.601464  s :     0.601464
      pz      :     0.010723  p :     0.043985
      px      :     0.017911
      py      :     0.015352
  9 O s       :     3.816415  s :     3.816415
      pz      :     1.471792  p :     4.806260
      px      :     1.800355
      py      :     1.534113
      dz2     :     0.015883  d :     0.050430
      dxz     :     0.008442
      dyz     :     0.006548
      dx2y2   :     0.007474
      dxy     :     0.012083
      f0      :     0.000625  f :     0.004001
      f+1     :     0.000533
      f-1     :     0.000724
      f+2     :     0.000413
      f-2     :     0.000418
      f+3     :     0.000851
      f-3     :     0.000436
 10 H s       :     0.630757  s :     0.630757
      pz      :     0.018079  p :     0.047893
      px      :     0.015950
      py      :     0.013865
 11 H s       :     0.595119  s :     0.595119
      pz      :     0.011677  p :     0.046262
      px      :     0.016510
      py      :     0.018075
 12 O s       :     3.808344  s :     3.808344
      pz      :     1.547120  p :     4.832092
      px      :     1.792852
      py      :     1.492119
      dz2     :     0.015497  d :     0.049979
      dxz     :     0.008407
      dyz     :     0.006543
      dx2y2   :     0.007544
      dxy     :     0.011988
      f0      :     0.000609  f :     0.003973
      f+1     :     0.000529
      f-1     :     0.000718
      f+2     :     0.000415
      f-2     :     0.000419
      f+3     :     0.000846
      f-3     :     0.000437
 13 H s       :     0.573272  s :     0.573272
      pz      :     0.023747  p :     0.050611
      px      :     0.014292
      py      :     0.012572
 14 H s       :     0.640458  s :     0.640458
      pz      :     0.012908  p :     0.047983
      px      :     0.017602
      py      :     0.017473


                     *******************************
                     * LOEWDIN POPULATION ANALYSIS *
                     *******************************

----------------------
LOEWDIN ATOMIC CHARGES
----------------------
   0 O :   -0.333764
   1 H :    0.150319
   2 H :    0.160007
   3 O :   -0.339416
   4 H :    0.168360
   5 H :    0.140419
   6 O :   -0.272252
   7 H :    0.178590
   8 H :    0.177611
   9 O :   -0.328489
  10 H :    0.156519
  11 H :    0.174425
  12 O :   -0.338513
  13 H :    0.154586
  14 H :    0.151598

-------------------------------
LOEWDIN REDUCED ORBITAL CHARGES
-------------------------------
  0 O s       :     3.466634  s :     3.466634
      pz      :     1.521339  p :     4.802895
      px      :     1.509345
      py      :     1.772211
      dz2     :     0.020966  d :     0.059303
      dxz     :     0.007105
      dyz     :     0.007846
      dx2y2   :     0.007821
      dxy     :     0.015564
      f0      :     0.000874  f :     0.004932
      f+1     :     0.000996
      f-1     :     0.000716
      f+2     :     0.000390
      f-2     :     0.000416
      f+3     :     0.000375
      f-3     :     0.001165
  1 H s       :     0.677133  s :     0.677133
      pz      :     0.091743  p :     0.172548
      px      :     0.036898
      py      :     0.043907
  2 H s       :     0.679197  s :     0.679197
      pz      :     0.032440  p :     0.160796
      px      :     0.071915
      py      :     0.056441
  3 O s       :     3.460462  s :     3.460462
      pz      :     1.518386  p :     4.816136
      px      :     1.826703
      py      :     1.471047
      dz2     :     0.020131  d :     0.057972
      dxz     :     0.007215
      dyz     :     0.009230
      dx2y2   :     0.009518
      dxy     :     0.011878
      f0      :     0.000808  f :     0.004846
      f+1     :     0.000578
      f-1     :     0.001184
      f+2     :     0.000419
      f-2     :     0.000416
      f+3     :     0.000992
      f-3     :     0.000448
  4 H s       :     0.669680  s :     0.669680
      pz      :     0.080177  p :     0.161959
      px      :     0.044636
      py      :     0.037146
  5 H s       :     0.672588  s :     0.672588
      pz      :     0.030734  p :     0.186994
      px      :     0.054298
      py      :     0.101962
  6 O s       :     3.459956  s :     3.459956
      pz      :     1.530247  p :     4.747110
      px      :     1.449257
      py      :     1.767606
      dz2     :     0.021027  d :     0.060289
      dxz     :     0.009050
      dyz     :     0.007060
      dx2y2   :     0.010956
      dxy     :     0.012196
      f0      :     0.000781  f :     0.004897
      f+1     :     0.001186
      f-1     :     0.000599
      f+2     :     0.000414
      f-2     :     0.000414
      f+3     :     0.000456
      f-3     :     0.001045
  7 H s       :     0.659597  s :     0.659597
      pz      :     0.081819  p :     0.161813
      px      :     0.035906
      py      :     0.044088
  8 H s       :     0.665373  s :     0.665373
      pz      :     0.030646  p :     0.157016
      px      :     0.075530
      py      :     0.050841
  9 O s       :     3.472328  s :     3.472328
      pz      :     1.493183  p :     4.791486
      px      :     1.773982
      py      :     1.524320
      dz2     :     0.021997  d :     0.059709
      dxz     :     0.007916
      dyz     :     0.007338
      dx2y2   :     0.007579
      dxy     :     0.014878
      f0      :     0.000923  f :     0.004967
      f+1     :     0.000718
      f-1     :     0.001022
      f+2     :     0.000390
      f-2     :     0.000418
      f+3     :     0.001122
      f-3     :     0.000376
 10 H s       :     0.682094  s :     0.682094
      pz      :     0.080485  p :     0.161386
      px      :     0.044335
      py      :     0.036566
 11 H s       :     0.665674  s :     0.665674
      pz      :     0.030214  p :     0.159902
      px      :     0.056177
      py      :     0.073511
 12 O s       :     3.465448  s :     3.465448
      pz      :     1.531086  p :     4.809369
      px      :     1.770577
      py      :     1.507706
      dz2     :     0.020450  d :     0.058786
      dxz     :     0.007729
      dyz     :     0.006995
      dx2y2   :     0.007872
      dxy     :     0.015741
      f0      :     0.000852  f :     0.004910
      f+1     :     0.000715
      f-1     :     0.000991
      f+2     :     0.000390
      f-2     :     0.000416
      f+3     :     0.001173
      f-3     :     0.000374
 13 H s       :     0.671769  s :     0.671769
      pz      :     0.094007  p :     0.173644
      px      :     0.043066
      py      :     0.036571
 14 H s       :     0.687017  s :     0.687017
      pz      :     0.032996  p :     0.161385
      px      :     0.056784
      py      :     0.071605


                      *****************************
                      * MAYER POPULATION ANALYSIS *
                      *****************************

  NA   - Mulliken gross atomic population
  ZA   - Total nuclear charge
  QA   - Mulliken gross atomic charge
  VA   - Mayer's total valence
  BVA  - Mayer's bonded valence
  FA   - Mayer's free valence

  ATOM       NA         ZA         QA         VA         BVA        FA
  0 O      8.6872     8.0000    -0.6872     2.0895     1.7077     0.3818
  1 H      0.6324     1.0000     0.3676     0.8959     0.8514     0.0444
  2 H      0.6771     1.0000     0.3229     0.9149     0.8658     0.0491
  3 O      8.7258     8.0000    -0.7258     2.0475     1.6612     0.3863
  4 H      0.6499     1.0000     0.3501     0.9002     0.8537     0.0465
  5 H      0.6505     1.0000     0.3495     0.9296     0.8830     0.0466
  6 O      8.7022     8.0000    -0.7022     2.1136     1.7289     0.3847
  7 H      0.6255     1.0000     0.3745     0.8831     0.8387     0.0444
  8 H      0.6454     1.0000     0.3546     0.9036     0.8563     0.0474
  9 O      8.6771     8.0000    -0.6771     2.0936     1.7128     0.3808
 10 H      0.6787     1.0000     0.3213     0.9169     0.8678     0.0491
 11 H      0.6414     1.0000     0.3586     0.8953     0.8495     0.0457
 12 O      8.6944     8.0000    -0.6944     2.0808     1.6981     0.3827
 13 H      0.6239     1.0000     0.3761     0.8979     0.8545     0.0434
 14 H      0.6884     1.0000     0.3116     0.9269     0.8767     0.0502

  Mayer bond orders larger than 0.100000
B(  0-O ,  1-H ) :   0.8269 B(  0-O ,  2-H ) :   0.8607 B(  3-O ,  4-H ) :   0.8420 
B(  3-O ,  5-H ) :   0.7970 B(  6-O ,  7-H ) :   0.8236 B(  6-O ,  8-H ) :   0.8295 
B(  9-O , 10-H ) :   0.8605 B(  9-O , 11-H ) :   0.8354 B( 12-O , 13-H ) :   0.8126 
B( 12-O , 14-H ) :   0.8645 


----------------------------------
MP2 DERIVATIVE INTEGRAL GENERATION
----------------------------------


Input Wavefunction Amplitudes       ... 12h2o.su.etal.mol3,4,7,9,11-orca.engrad-mp2.def2tzvp.frozencore.mp2tsaa.tmp
Input Correlated Electron Density   ... 12h2o.su.etal.mol3,4,7,9,11-orca.engrad-mp2.def2tzvp.frozencore.pmp2re
Input Energy Weighted Density       ... 12h2o.su.etal.mol3,4,7,9,11-orca.engrad-mp2.def2tzvp.frozencore.wmp2.tmp
Input SCF Electron Density          ... 12h2o.su.etal.mol3,4,7,9,11-orca.engrad-mp2.def2tzvp.frozencore.scfp

One-Electron Terms    ...
                        ... One-Electron Terms done
Prescreening matrices              ... done

Batch handling in the gradient evaluation:
Memory available                      ... 8000.0 MB
Memory per occupied orbital in Q2     ...    7.1 MB
Memory per occupied orbital in Q3     ...    0.1 MB
Total memory requirement per |i>      ...    7.1 MB
Max. Number of orbitals possible      ...   1121
Number of orbitals treated per batch  ...     20
Number of batches to be done          ...      1
Batch   0: i=    5 ...    24

---------------------------------------
MP2 TOTAL ENERGY:     -381.586659329 Eh
---------------------------------------

The final MP2 gradient
  0:  -0.00936135   0.00664474  -0.00429422
  1:  -0.00002644  -0.00159152   0.00646059
  2:   0.01030760  -0.00583926   0.00083279
  3:   0.00599242   0.00540806   0.00940947
  4:  -0.00129301   0.00160417  -0.00924654
  5:  -0.00468701  -0.01176348   0.00333082
  6:  -0.01509674   0.01074604  -0.01180801
  7:   0.00026805   0.00202253   0.00604469
  8:   0.01527261  -0.00638435  -0.00021689
  9:  -0.00334559  -0.00601986   0.01114034
 10:  -0.00149224  -0.00163252  -0.01007464
 11:   0.00584064   0.00634979  -0.00019109
 12:   0.00717157   0.01083223   0.00007025
 13:  -0.00335185   0.00029722  -0.00069089
 14:  -0.00619867  -0.01067377  -0.00076666

-----------------------------------
NORM OF THE MP2 GRADIENT:  0.047264
-----------------------------------

-------------------------   --------------------
FINAL SINGLE POINT ENERGY      -381.586659329356
-------------------------   --------------------


                            ***************************************
                            *     ORCA property calculations      *
                            ***************************************

                                    ---------------------
                                    Active property flags
                                    ---------------------
   (+) Dipole Moment


------------------------------------------------------------------------------
                       ORCA ELECTRIC PROPERTIES CALCULATION
------------------------------------------------------------------------------

Dipole Moment Calculation                       ... on
Quadrupole Moment Calculation                   ... off
Polarizability Calculation                      ... off
GBWName                                         ... 12h2o.su.etal.mol3,4,7,9,11-orca.engrad-mp2.def2tzvp.frozencore.gbw
Electron density file                           ... 12h2o.su.etal.mol3,4,7,9,11-orca.engrad-mp2.def2tzvp.frozencore.scfp
The origin for moment calculation is the CENTER OF MASS  = (-1.642125,  0.004424  1.077204)

-------------
DIPOLE MOMENT
-------------
                                X             Y             Z
Electronic contribution:     -0.13097       0.07020       0.08408
Nuclear contribution   :      0.45542      -1.47399      -0.68611
                        -----------------------------------------
Total Dipole Moment    :      0.32445      -1.40379      -0.60202
                        -----------------------------------------
Magnitude (a.u.)       :      1.56152
Magnitude (Debye)      :      3.96906



--------------------
Rotational spectrum 
--------------------
 
Rotational constants in cm-1:     0.077904     0.034649     0.025718 
Rotational constants in MHz :  2335.510736  1038.752621   771.020422 

 Dipole components along the rotational axes: 
x,y,z [a.u.] :    -0.615900    -1.420738    -0.201258 
x,y,z [Debye]:    -1.565494    -3.611230    -0.511558 

 

                         *** MP2 UNRELAXED DENSITY ***

------------------------------------------------------------------------------
                       ORCA ELECTRIC PROPERTIES CALCULATION
------------------------------------------------------------------------------

Dipole Moment Calculation                       ... on
Quadrupole Moment Calculation                   ... off
Polarizability Calculation                      ... off
GBWName                                         ... 12h2o.su.etal.mol3,4,7,9,11-orca.engrad-mp2.def2tzvp.frozencore.gbw
Electron density file                           ... 12h2o.su.etal.mol3,4,7,9,11-orca.engrad-mp2.def2tzvp.frozencore.pmp2ur
The origin for moment calculation is the CENTER OF MASS  = (-1.642125,  0.004424  1.077204)

-------------
DIPOLE MOMENT
-------------
                                X             Y             Z
Electronic contribution:     -0.13604       0.08388       0.09018
Nuclear contribution   :      0.45542      -1.47399      -0.68611
                        -----------------------------------------
Total Dipole Moment    :      0.31938      -1.39011      -0.59593
                        -----------------------------------------
Magnitude (a.u.)       :      1.54582
Magnitude (Debye)      :      3.92915



--------------------
Rotational spectrum 
--------------------
 
Rotational constants in cm-1:     0.077904     0.034649     0.025718 
Rotational constants in MHz :  2335.510736  1038.752621   771.020422 

 Dipole components along the rotational axes: 
x,y,z [a.u.] :    -0.610290    -1.406449    -0.197473 
x,y,z [Debye]:    -1.551234    -3.574910    -0.501938 

 

                           *** MP2 RELAXED DENSITY ***

------------------------------------------------------------------------------
                       ORCA ELECTRIC PROPERTIES CALCULATION
------------------------------------------------------------------------------

Dipole Moment Calculation                       ... on
Quadrupole Moment Calculation                   ... off
Polarizability Calculation                      ... off
GBWName                                         ... 12h2o.su.etal.mol3,4,7,9,11-orca.engrad-mp2.def2tzvp.frozencore.gbw
Electron density file                           ... 12h2o.su.etal.mol3,4,7,9,11-orca.engrad-mp2.def2tzvp.frozencore.pmp2re
The origin for moment calculation is the CENTER OF MASS  = (-1.642125,  0.004424  1.077204)

-------------
DIPOLE MOMENT
-------------
                                X             Y             Z
Electronic contribution:     -0.13559       0.08447       0.09023
Nuclear contribution   :      0.45542      -1.47399      -0.68611
                        -----------------------------------------
Total Dipole Moment    :      0.31982      -1.38952      -0.59588
                        -----------------------------------------
Magnitude (a.u.)       :      1.54536
Magnitude (Debye)      :      3.92798



--------------------
Rotational spectrum 
--------------------
 
Rotational constants in cm-1:     0.077904     0.034649     0.025718 
Rotational constants in MHz :  2335.510736  1038.752621   771.020422 

 Dipole components along the rotational axes: 
x,y,z [a.u.] :    -0.610036    -1.405981    -0.197986 
x,y,z [Debye]:    -1.550590    -3.573719    -0.503242 

 

Timings for individual modules:

Sum of individual times         ...       29.583 sec (=   0.493 min)
GTO integral calculation        ...        1.136 sec (=   0.019 min)   3.8 %
SCF iterations                  ...        7.378 sec (=   0.123 min)  24.9 %
MP2 module                      ...       21.070 sec (=   0.351 min)  71.2 %
                             ****ORCA TERMINATED NORMALLY****
TOTAL RUN TIME: 0 days 0 hours 0 minutes 30 seconds 463 msec
