
                                 *****************
                                 * O   R   C   A *
                                 *****************

           --- An Ab Initio, DFT and Semiempirical electronic structure package ---

                  #######################################################
                  #                        -***-                        #
                  #          Department of theory and spectroscopy      #
                  #               Directorship: Frank Neese             #
                  #        Max Planck Institute fuer Kohlenforschung    #
                  #                Kaiser Wilhelm Platz 1               #
                  #                 D-45470 Muelheim/Ruhr               #
                  #                      Germany                        #
                  #                                                     #
                  #                  All rights reserved                #
                  #                        -***-                        #
                  #######################################################


                         Program Version 4.2.0 -  RELEASE  -


 With contributions from (in alphabetic order):
   Daniel Aravena         : Magnetic Suceptibility
   Michael Atanasov       : Ab Initio Ligand Field Theory (pilot matlab implementation)
   Alexander A. Auer      : GIAO ZORA, VPT2
   Ute Becker             : Parallelization
   Giovanni Bistoni       : ED, misc. LED, open-shell LED, HFLED
   Martin Brehm           : Molecular dynamics
   Dmytro Bykov           : SCF Hessian
   Vijay G. Chilkuri      : MRCI spin determinant printing, contributions to CSF-ICE
   Dipayan Datta          : RHF DLPNO-CCSD density
   Achintya Kumar Dutta   : EOM-CC, STEOM-CC
   Dmitry Ganyushin       : Spin-Orbit,Spin-Spin,Magnetic field MRCI
   Miquel Garcia          : C-PCM Hessian, Gaussian charge scheme
   Yang Guo               : DLPNO-NEVPT2, CIM, IAO-localization
   Andreas Hansen         : Spin unrestricted coupled pair/coupled cluster methods
   Benjamin Helmich-Paris : CASSCF linear response (MC-RPA)
   Lee Huntington         : MR-EOM, pCC
   Robert Izsak           : Overlap fitted RIJCOSX, COSX-SCS-MP3, EOM
   Christian Kollmar      : KDIIS, OOCD, Brueckner-CCSD(T), CCSD density
   Simone Kossmann        : Meta GGA functionals, TD-DFT gradient, OOMP2, MP2 Hessian
   Martin Krupicka        : AUTO-CI
   Lucas Lang             : DCDCAS
   Dagmar Lenk            : GEPOL surface, SMD
   Dimitrios Liakos       : Extrapolation schemes; Compound Job, initial MDCI parallelization
   Dimitrios Manganas     : Further ROCIS development; embedding schemes
   Dimitrios Pantazis     : SARC Basis sets
   Taras Petrenko         : DFT Hessian,TD-DFT gradient, ASA, ECA, R-Raman, ABS, FL, XAS/XES, NRVS
   Peter Pinski           : DLPNO-MP2, DLPNO-MP2 Gradient
   Christoph Reimann      : Effective Core Potentials
   Marius Retegan         : Local ZFS, SOC
   Christoph Riplinger    : Optimizer, TS searches, QM/MM, DLPNO-CCSD(T), (RO)-DLPNO pert. Triples
   Tobias Risthaus        : Range-separated hybrids, TD-DFT gradient, RPA, STAB
   Michael Roemelt        : Original ROCIS implementation
   Masaaki Saitow         : Open-shell DLPNO-CCSD energy and density
   Barbara Sandhoefer     : DKH picture change effects
   Avijit Sen             : IP-ROCIS
   Kantharuban Sivalingam : CASSCF convergence, NEVPT2, FIC-MRCI
   Bernardo de Souza      : ESD, SOC TD-DFT
   Georgi Stoychev        : AutoAux, RI-MP2 NMR
   Willem Van den Heuvel  : Paramagnetic NMR
   Boris Wezisla          : Elementary symmetry handling
   Frank Wennmohs         : Technical directorship


 We gratefully acknowledge several colleagues who have allowed us to
 interface, adapt or use parts of their codes:
   Stefan Grimme, W. Hujo, H. Kruse,             : VdW corrections, initial TS optimization,
                  C. Bannwarth                     DFT functionals, gCP, sTDA/sTD-DF
   Ed Valeev, F. Pavosevic, A. Kumar             : LibInt (2-el integral package), F12 methods
   Garnet Chan, S. Sharma, J. Yang, R. Olivares  : DMRG
   Ulf Ekstrom                                   : XCFun DFT Library
   Mihaly Kallay                                 : mrcc  (arbitrary order and MRCC methods)
   Andreas Klamt, Michael Diedenhofen            : otool_cosmo (COSMO solvation model)
   Jiri Pittner, Ondrej Demel                    : Mk-CCSD
   Frank Weinhold                                : gennbo (NPA and NBO analysis)
   Christopher J. Cramer and Donald G. Truhlar   : smd solvation model
   Lars Goerigk                                  : TD-DFT with DH, B97 family of functionals
   V. Asgeirsson, H. Jonsson                     : NEB implementation
   FAccTs GmbH                                   : IRC, NEB, NEB-TS, Multilevel, MM, QM/MM, CI optimization
   S Lehtola, MJT Oliveira, MAL Marques          : LibXC Library


 Your calculation uses the libint2 library for the computation of 2-el integrals
 For citations please refer to: http://libint.valeyev.net

 Your ORCA version has been built with support for libXC version: 4.2.3
 For citations please refer to: https://tddft.org/programs/libxc/

 This ORCA versions uses:
   CBLAS   interface :  Fast vector & matrix operations
   LAPACKE interface :  Fast linear algebra routines
   SCALAPACK package :  Parallel linear algebra routines


----- Orbital basis set information -----
Your calculation utilizes the basis: def2-TZVP
   F. Weigend and R. Ahlrichs, Phys. Chem. Chem. Phys. 7, 3297 (2005).

================================================================================
                                        WARNINGS
                       Please study these warnings very carefully!
================================================================================


WARNING: The frozen-core approximation for MP2-gradient calculations is turned on by default.

INFO   : the flag for use of LIBINT has been found!

================================================================================
                                       INPUT FILE
================================================================================
NAME = 12meoh.boyd.etal.mol5,6-orca.engrad-mp2.def2tzvp.frozencore.inp
|  1> # 12meoh.boyd.etal.mol5,6
|  2> ! MP2 def2-TZVP EnGrad TightSCF
|  3> 
|  4> %pal
|  5>     nprocs 6
|  6> end
|  7> 
|  8> %maxcore 8000
|  9> 
| 10> %scf
| 11>     ConvForced true
| 12> end
| 13> 
| 14> *xyz 0 1
| 15> O  -0.662721750   1.449094618  -1.383082065
| 16> H   0.064188300   2.119867608  -1.465650660
| 17> C  -0.353319239   0.341218776  -2.229326771
| 18> H  -1.072358530  -0.454743281  -2.019906495
| 19> H   0.657636746  -0.044472139  -2.042736771
| 20> H  -0.434616607   0.624733901  -3.287793021
| 21> O   2.622209273  -1.703002590  -1.445859723
| 22> H   1.828551432  -1.986513781  -0.909754968
| 23> C   2.781117675  -2.615822239  -2.525472890
| 24> H   3.691063626  -2.339003544  -3.065143454
| 25> H   1.934727323  -2.559520367  -3.223226661
| 26> H   2.879948338  -3.653846211  -2.177750170
| 27> *
| 28> 
| 29>                          ****END OF INPUT****
================================================================================

                     *******************************
                     * Energy+Gradient Calculation *
                     *******************************

---------------------------------
CARTESIAN COORDINATES (ANGSTROEM)
---------------------------------
  O     -0.662722    1.449095   -1.383082
  H      0.064188    2.119868   -1.465651
  C     -0.353319    0.341219   -2.229327
  H     -1.072359   -0.454743   -2.019906
  H      0.657637   -0.044472   -2.042737
  H     -0.434617    0.624734   -3.287793
  O      2.622209   -1.703003   -1.445860
  H      1.828551   -1.986514   -0.909755
  C      2.781118   -2.615822   -2.525473
  H      3.691064   -2.339004   -3.065143
  H      1.934727   -2.559520   -3.223227
  H      2.879948   -3.653846   -2.177750

----------------------------
CARTESIAN COORDINATES (A.U.)
----------------------------
  NO LB      ZA    FRAG     MASS         X           Y           Z
   0 O     8.0000    0    15.999   -1.252363    2.738392   -2.613646
   1 H     1.0000    0     1.008    0.121298    4.005969   -2.769678
   2 C     6.0000    0    12.011   -0.667677    0.644810   -4.212817
   3 H     1.0000    0     1.008   -2.026464   -0.859340   -3.817070
   4 H     1.0000    0     1.008    1.242753   -0.084040   -3.860213
   5 H     1.0000    0     1.008   -0.821306    1.180576   -6.213028
   6 O     8.0000    0    15.999    4.955257   -3.218209   -2.732279
   7 H     1.0000    0     1.008    3.455461   -3.753967   -1.719188
   8 C     6.0000    0    12.011    5.255551   -4.943188   -4.772452
   9 H     1.0000    0     1.008    6.975099   -4.420076   -5.792282
  10 H     1.0000    0     1.008    3.656105   -4.836793   -6.091016
  11 H     1.0000    0     1.008    5.442314   -6.904769   -4.115351

--------------------------------
INTERNAL COORDINATES (ANGSTROEM)
--------------------------------
 O      0   0   0     0.000000000000     0.00000000     0.00000000
 H      1   0   0     0.992548335239     0.00000000     0.00000000
 C      1   2   0     1.428022723045   108.44077590     0.00000000
 H      3   1   2     1.092899789636   107.99441671   171.46274129
 H      3   1   2     1.098000598188   111.79589191    52.16996757
 H      3   1   2     1.098790649094   110.77151416   290.62940853
 O      5   3   1     2.639418625600   160.81602432   122.53018867
 H      7   5   3     0.998839162396    73.04084984   327.53255118
 C      7   5   3     1.422693284649   108.34278884    71.69471321
 H      9   7   5     1.093560488172   107.75927006   106.23279204
 H      9   7   5     1.098365537375   111.29143095   347.58001549
 H      9   7   5     1.099168938972   112.08005485   225.76621788

---------------------------
INTERNAL COORDINATES (A.U.)
---------------------------
 O      0   0   0     0.000000000000     0.00000000     0.00000000
 H      1   0   0     1.875644528280     0.00000000     0.00000000
 C      1   2   0     2.698571859572   108.44077590     0.00000000
 H      3   1   2     2.065281294231   107.99441671   171.46274129
 H      3   1   2     2.074920425457   111.79589191    52.16996757
 H      3   1   2     2.076413405301   110.77151416   290.62940853
 O      5   3   1     4.987778355156   160.81602432   122.53018867
 H      7   5   3     1.887532468764    73.04084984   327.53255118
 C      7   5   3     2.688500680556   108.34278884    71.69471321
 H      9   7   5     2.066529833522   107.75927006   106.23279204
 H      9   7   5     2.075610060577   111.29143095   347.58001549
 H      9   7   5     2.077128269569   112.08005485   225.76621788

---------------------
BASIS SET INFORMATION
---------------------
There are 3 groups of distinct atoms

 Group   1 Type O   : 11s6p2d1f contracted to 5s3p2d1f pattern {62111/411/11/1}
 Group   2 Type H   : 5s1p contracted to 3s1p pattern {311/1}
 Group   3 Type C   : 11s6p2d1f contracted to 5s3p2d1f pattern {62111/411/11/1}

Atom   0O    basis set group =>   1
Atom   1H    basis set group =>   2
Atom   2C    basis set group =>   3
Atom   3H    basis set group =>   2
Atom   4H    basis set group =>   2
Atom   5H    basis set group =>   2
Atom   6O    basis set group =>   1
Atom   7H    basis set group =>   2
Atom   8C    basis set group =>   3
Atom   9H    basis set group =>   2
Atom  10H    basis set group =>   2
Atom  11H    basis set group =>   2


           ************************************************************
           *        Program running with 6 parallel MPI-processes     *
           *              working on a common directory               *
           ************************************************************
------------------------------------------------------------------------------
                           ORCA GTO INTEGRAL CALCULATION
------------------------------------------------------------------------------

                         BASIS SET STATISTICS AND STARTUP INFO

 # of primitive gaussian shells          ...  128
 # of primitive gaussian functions       ...  248
 # of contracted shells                  ...   76
 # of contracted basis functions         ...  172
 Highest angular momentum                ...    3
 Maximum contraction depth               ...    6
 Integral package used                   ... LIBINT
 Integral threshhold            Thresh   ...  2.500e-11
 Primitive cut-off              TCut     ...  2.500e-12


------------------------------ INTEGRAL EVALUATION ----------------------------


 * One electron integrals 
 Pre-screening matrix                    ... done
 Shell pair data                         ... done (   0.001 sec)



           ************************************************************
           *        Program running with 6 parallel MPI-processes     *
           *              working on a common directory               *
           ************************************************************
-------------------------------------------------------------------------------
                                 ORCA SCF
-------------------------------------------------------------------------------

------------
SCF SETTINGS
------------
Hamiltonian:
 Ab initio Hamiltonian  Method          .... Hartree-Fock(GTOs)


General Settings:
 Integral files         IntName         .... 12meoh.boyd.etal.mol5,6-orca.engrad-mp2.def2tzvp.frozencore
 Hartree-Fock type      HFTyp           .... RHF
 Total Charge           Charge          ....    0
 Multiplicity           Mult            ....    1
 Number of Electrons    NEL             ....   36
 Basis Dimension        Dim             ....  172
 Nuclear Repulsion      ENuc            ....    119.0790739569 Eh

Convergence Acceleration:
 DIIS                   CNVDIIS         .... on
   Start iteration      DIISMaxIt       ....    12
   Startup error        DIISStart       ....  0.200000
   # of expansion vecs  DIISMaxEq       ....     5
   Bias factor          DIISBfac        ....   1.050
   Max. coefficient     DIISMaxC        ....  10.000
 Newton-Raphson         CNVNR           .... off
 SOSCF                  CNVSOSCF        .... on
   Start iteration      SOSCFMaxIt      ....   150
   Startup grad/error   SOSCFStart      ....  0.003300
 Level Shifting         CNVShift        .... on
   Level shift para.    LevelShift      ....    0.2500
   Turn off err/grad.   ShiftErr        ....    0.0010
 Zerner damping         CNVZerner       .... off
 Static damping         CNVDamp         .... on
   Fraction old density DampFac         ....    0.7000
   Max. Damping (<1)    DampMax         ....    0.9800
   Min. Damping (>=0)   DampMin         ....    0.0000
   Turn off err/grad.   DampErr         ....    0.1000
 Fernandez-Rico         CNVRico         .... off

SCF Procedure:
 Maximum # iterations   MaxIter         ....   125
 SCF integral mode      SCFMode         .... Direct
   Integral package                     .... LIBINT
 Reset frequency        DirectResetFreq ....    20
 Integral Threshold     Thresh          ....  2.500e-11 Eh
 Primitive CutOff       TCut            ....  2.500e-12 Eh

Convergence Tolerance:
 Convergence Check Mode ConvCheckMode   .... Total+1el-Energy
 Convergence forced     ConvForced      .... 1
 Energy Change          TolE            ....  1.000e-08 Eh
 1-El. energy change                    ....  1.000e-05 Eh
 Orbital Gradient       TolG            ....  1.000e-05
 Orbital Rotation angle TolX            ....  1.000e-05
 DIIS Error             TolErr          ....  5.000e-07


Diagonalization of the overlap matrix:
Smallest eigenvalue                        ... 1.166e-03
Time for diagonalization                   ...    0.005 sec
Threshold for overlap eigenvalues          ... 1.000e-08
Number of eigenvalues below threshold      ... 0
Time for construction of square roots      ...    0.002 sec
Total time needed                          ...    0.007 sec

-------------------
DFT GRID GENERATION
-------------------

General Integration Accuracy     IntAcc      ...  4.340
Radial Grid Type                 RadialGrid  ... Gauss-Chebyshev
Angular Grid (max. acc.)         AngularGrid ... Lebedev-110
Angular grid pruning method      GridPruning ... 3 (G Style)
Weight generation scheme         WeightScheme... Becke
Basis function cutoff            BFCut       ...    1.0000e-11
Integration weight cutoff        WCut        ...    1.0000e-14
Grids for H and He will be reduced by one unit

# of grid points (after initial pruning)     ...  13096 (   0.0 sec)
# of grid points (after weights+screening)   ...  12526 (   0.0 sec)
nearest neighbour list constructed           ...    0.0 sec
Grid point re-assignment to atoms done       ...    0.0 sec
Grid point division into batches done        ...    0.0 sec
Reduced shell lists constructed in    0.0 sec

Total number of grid points                  ...    12526
Total number of batches                      ...      201
Average number of points per batch           ...       62
Average number of grid points per atom       ...     1044
Average number of shells per batch           ...    43.11 (56.73%)
Average number of basis functions per batch  ...    93.40 (54.30%)
Average number of large shells per batch     ...    33.74 (78.26%)
Average number of large basis fcns per batch ...    75.63 (80.97%)
Maximum spatial batch extension              ...  17.98, 13.69, 16.73 au
Average spatial batch extension              ...   0.84,  0.75,  0.78 au

Time for grid setup =    0.029 sec

------------------------------
INITIAL GUESS: MODEL POTENTIAL
------------------------------
Loading Hartree-Fock densities                     ... done
Calculating cut-offs                               ... done
Setting up the integral package                    ... done
Initializing the effective Hamiltonian             ... done
Starting the Coulomb interaction                   ... done (   0.0 sec)
Reading the grid                                   ... done
Mapping shells                                     ... done
Starting the XC term evaluation                    ... done (   0.0 sec)
Transforming the Hamiltonian                       ... done (   0.0 sec)
Diagonalizing the Hamiltonian                      ... done (   0.0 sec)
Back transforming the eigenvectors                 ... done (   0.0 sec)
Now organizing SCF variables                       ... done
                      ------------------
                      INITIAL GUESS DONE (   0.1 sec)
                      ------------------
--------------
SCF ITERATIONS
--------------
ITER       Energy         Delta-E        Max-DP      RMS-DP      [F,P]     Damp
               ***  Starting incremental Fock matrix formation  ***
  0   -229.9423734118   0.000000000000 0.03622228  0.00094558  0.2891585 0.7000
  1   -230.0283353215  -0.085961909697 0.02464697  0.00070263  0.2179871 0.7000
                               ***Turning on DIIS***
  2   -230.0779586930  -0.049623371510 0.01437663  0.00043113  0.1628353 0.7000
  3   -230.6508939691  -0.572935276013 0.00751283  0.00023905  0.1199819 0.7000
  4   -230.5513460421   0.099547926925 0.01605395  0.00057781  0.0845729 0.0000
  5   -230.1988247712   0.352521270900 0.00253453  0.00008649  0.0054846 0.0000
                      *** Initiating the SOSCF procedure ***
                           *** Shutting down DIIS ***
                      *** Re-Reading the Fockian *** 
                      *** Removing any level shift *** 
ITER      Energy       Delta-E        Grad      Rot      Max-DP    RMS-DP
  6   -230.18233022   0.0164945465  0.000585  0.000585  0.001491  0.000046
               *** Restarting incremental Fock matrix formation ***
  7   -230.17893873   0.0033914978  0.000331  0.000402  0.000782  0.000026
  8   -230.17894382  -0.0000050946  0.000135  0.000234  0.000637  0.000019
  9   -230.17894508  -0.0000012601  0.000026  0.000026  0.000126  0.000003
 10   -230.17894512  -0.0000000424  0.000006  0.000013  0.000025  0.000001
                 **** Energy Check signals convergence ****
              ***Rediagonalizing the Fockian in SOSCF/NRSCF***

               *****************************************************
               *                     SUCCESS                       *
               *           SCF CONVERGED AFTER  11 CYCLES          *
               *****************************************************


----------------
TOTAL SCF ENERGY
----------------

Total Energy       :         -230.17894513 Eh           -6263.48753 eV

Components:
Nuclear Repulsion  :          119.07907396 Eh            3240.30634 eV
Electronic Energy  :         -349.25801908 Eh           -9503.79386 eV
One Electron Energy:         -550.74463894 Eh          -14986.52353 eV
Two Electron Energy:          201.48661986 Eh            5482.72966 eV

Virial components:
Potential Energy   :         -459.91771493 Eh          -12514.99727 eV
Kinetic Energy     :          229.73876980 Eh            6251.50975 eV
Virial Ratio       :            2.00191598


---------------
SCF CONVERGENCE
---------------

  Last Energy change         ...   -2.9735e-09  Tolerance :   1.0000e-08
  Last MAX-Density change    ...    5.0337e-06  Tolerance :   1.0000e-07
  Last RMS-Density change    ...    1.8788e-07  Tolerance :   5.0000e-09
  Last Orbital Gradient      ...    1.9629e-06  Tolerance :   1.0000e-05
  Last Orbital Rotation      ...    5.5761e-06  Tolerance :   1.0000e-05

             **** THE GBW FILE WAS UPDATED (12meoh.boyd.etal.mol5,6-orca.engrad-mp2.def2tzvp.frozencore.gbw) ****
             **** DENSITY FILE WAS UPDATED (12meoh.boyd.etal.mol5,6-orca.engrad-mp2.def2tzvp.frozencore.scfp) ****
             **** ENERGY FILE WAS UPDATED (12meoh.boyd.etal.mol5,6-orca.engrad-mp2.def2tzvp.frozencore.en.tmp) ****
             **** THE GBW FILE WAS UPDATED (12meoh.boyd.etal.mol5,6-orca.engrad-mp2.def2tzvp.frozencore.gbw) ****
             **** DENSITY FILE WAS UPDATED (12meoh.boyd.etal.mol5,6-orca.engrad-mp2.def2tzvp.frozencore.scfp) ****
----------------
ORBITAL ENERGIES
----------------

  NO   OCC          E(Eh)            E(eV) 
   0   2.0000     -20.565003      -559.6022 
   1   2.0000     -20.552664      -559.2664 
   2   2.0000     -11.277258      -306.8698 
   3   2.0000     -11.266896      -306.5878 
   4   2.0000      -1.353117       -36.8202 
   5   2.0000      -1.340967       -36.4896 
   6   2.0000      -0.925380       -25.1809 
   7   2.0000      -0.916319       -24.9343 
   8   2.0000      -0.687718       -18.7138 
   9   2.0000      -0.676484       -18.4081 
  10   2.0000      -0.625118       -17.0103 
  11   2.0000      -0.611369       -16.6362 
  12   2.0000      -0.597331       -16.2542 
  13   2.0000      -0.587129       -15.9766 
  14   2.0000      -0.506214       -13.7748 
  15   2.0000      -0.496621       -13.5138 
  16   2.0000      -0.457302       -12.4438 
  17   2.0000      -0.442805       -12.0493 
  18   0.0000       0.124174         3.3789 
  19   0.0000       0.144816         3.9406 
  20   0.0000       0.168620         4.5884 
  21   0.0000       0.186041         5.0624 
  22   0.0000       0.220192         5.9917 
  23   0.0000       0.222969         6.0673 
  24   0.0000       0.232446         6.3252 
  25   0.0000       0.239549         6.5184 
  26   0.0000       0.276627         7.5274 
  27   0.0000       0.298852         8.1322 
  28   0.0000       0.328898         8.9498 
  29   0.0000       0.340913         9.2767 
  30   0.0000       0.363656         9.8956 
  31   0.0000       0.375160        10.2086 
  32   0.0000       0.460099        12.5199 
  33   0.0000       0.474843        12.9211 
  34   0.0000       0.520078        14.1520 
  35   0.0000       0.539298        14.6750 
  36   0.0000       0.569369        15.4933 
  37   0.0000       0.577292        15.7089 
  38   0.0000       0.601519        16.3682 
  39   0.0000       0.618256        16.8236 
  40   0.0000       0.626636        17.0516 
  41   0.0000       0.643741        17.5171 
  42   0.0000       0.659460        17.9448 
  43   0.0000       0.679018        18.4770 
  44   0.0000       0.702058        19.1040 
  45   0.0000       0.708088        19.2680 
  46   0.0000       0.737600        20.0711 
  47   0.0000       0.767900        20.8956 
  48   0.0000       0.774944        21.0873 
  49   0.0000       0.823631        22.4121 
  50   0.0000       0.883422        24.0391 
  51   0.0000       0.893696        24.3187 
  52   0.0000       0.913407        24.8551 
  53   0.0000       0.931778        25.3550 
  54   0.0000       0.962341        26.1866 
  55   0.0000       0.980967        26.6935 
  56   0.0000       1.092841        29.7377 
  57   0.0000       1.110286        30.2124 
  58   0.0000       1.137122        30.9427 
  59   0.0000       1.161334        31.6015 
  60   0.0000       1.247713        33.9520 
  61   0.0000       1.263876        34.3918 
  62   0.0000       1.535207        41.7751 
  63   0.0000       1.546990        42.0957 
  64   0.0000       1.656891        45.0863 
  65   0.0000       1.673475        45.5376 
  66   0.0000       1.703663        46.3590 
  67   0.0000       1.719312        46.7848 
  68   0.0000       1.763026        47.9744 
  69   0.0000       1.777819        48.3769 
  70   0.0000       1.787260        48.6338 
  71   0.0000       1.798277        48.9336 
  72   0.0000       1.801280        49.0153 
  73   0.0000       1.816117        49.4191 
  74   0.0000       1.842398        50.1342 
  75   0.0000       1.852413        50.4067 
  76   0.0000       1.857064        50.5333 
  77   0.0000       1.870866        50.9089 
  78   0.0000       1.964139        53.4469 
  79   0.0000       2.002131        54.4808 
  80   0.0000       2.137396        58.1615 
  81   0.0000       2.144580        58.3570 
  82   0.0000       2.200334        59.8741 
  83   0.0000       2.235149        60.8215 
  84   0.0000       2.249215        61.2043 
  85   0.0000       2.274282        61.8864 
  86   0.0000       2.282840        62.1192 
  87   0.0000       2.301872        62.6371 
  88   0.0000       2.308715        62.8233 
  89   0.0000       2.336426        63.5774 
  90   0.0000       2.441219        66.4289 
  91   0.0000       2.455100        66.8067 
  92   0.0000       2.548369        69.3447 
  93   0.0000       2.551840        69.4391 
  94   0.0000       2.557282        69.5872 
  95   0.0000       2.566895        69.8488 
  96   0.0000       2.610272        71.0291 
  97   0.0000       2.625977        71.4565 
  98   0.0000       2.633857        71.6709 
  99   0.0000       2.652568        72.1800 
 100   0.0000       2.699236        73.4499 
 101   0.0000       2.725008        74.1512 
 102   0.0000       2.786139        75.8147 
 103   0.0000       2.792338        75.9834 
 104   0.0000       2.834971        77.1435 
 105   0.0000       2.868854        78.0655 
 106   0.0000       2.901212        78.9460 
 107   0.0000       2.910456        79.1975 
 108   0.0000       3.040056        82.7241 
 109   0.0000       3.054955        83.1295 
 110   0.0000       3.100139        84.3591 
 111   0.0000       3.126933        85.0882 
 112   0.0000       3.145205        85.5854 
 113   0.0000       3.184173        86.6458 
 114   0.0000       3.258584        88.6706 
 115   0.0000       3.283000        89.3350 
 116   0.0000       3.362332        91.4937 
 117   0.0000       3.401474        92.5588 
 118   0.0000       3.415677        92.9453 
 119   0.0000       3.425304        93.2073 
 120   0.0000       3.535143        96.1961 
 121   0.0000       3.546557        96.5067 
 122   0.0000       3.633092        98.8615 
 123   0.0000       3.649820        99.3166 
 124   0.0000       3.673699        99.9664 
 125   0.0000       3.679249       100.1174 
 126   0.0000       3.722839       101.3036 
 127   0.0000       3.752143       102.1010 
 128   0.0000       3.859585       105.0246 
 129   0.0000       3.864429       105.1565 
 130   0.0000       3.885992       105.7432 
 131   0.0000       3.897942       106.0684 
 132   0.0000       3.900865       106.1479 
 133   0.0000       3.922227       106.7292 
 134   0.0000       4.243893       115.4822 
 135   0.0000       4.257615       115.8556 
 136   0.0000       4.493661       122.2787 
 137   0.0000       4.512107       122.7807 
 138   0.0000       4.535582       123.4195 
 139   0.0000       4.548869       123.7810 
 140   0.0000       4.715520       128.3158 
 141   0.0000       4.735447       128.8581 
 142   0.0000       4.875766       132.6763 
 143   0.0000       4.879649       132.7820 
 144   0.0000       5.685857       154.7200 
 145   0.0000       5.694863       154.9651 
 146   0.0000       5.759502       156.7240 
 147   0.0000       5.768469       156.9680 
 148   0.0000       5.871109       159.7610 
 149   0.0000       5.885864       160.1625 
 150   0.0000       6.161300       167.6575 
 151   0.0000       6.167972       167.8390 
 152   0.0000       6.168441       167.8518 
 153   0.0000       6.170014       167.8946 
 154   0.0000       6.317145       171.8983 
 155   0.0000       6.319507       171.9625 
 156   0.0000       6.646634       180.8641 
 157   0.0000       6.670296       181.5080 
 158   0.0000       6.943537       188.9432 
 159   0.0000       6.958853       189.3600 
 160   0.0000       7.152202       194.6213 
 161   0.0000       7.156756       194.7452 
 162   0.0000       7.219150       196.4430 
 163   0.0000       7.225504       196.6160 
 164   0.0000       7.457711       202.9346 
 165   0.0000       7.467244       203.1940 
 166   0.0000       7.589545       206.5220 
 167   0.0000       7.593815       206.6382 
 168   0.0000      23.359464       635.6433 
 169   0.0000      23.375433       636.0779 
 170   0.0000      45.147135      1228.5160 
 171   0.0000      45.183754      1229.5125 

                    ********************************
                    * MULLIKEN POPULATION ANALYSIS *
                    ********************************

-----------------------
MULLIKEN ATOMIC CHARGES
-----------------------
   0 O :   -0.551616
   1 H :    0.331600
   2 C :   -0.093187
   3 H :    0.100161
   4 H :    0.113624
   5 H :    0.090052
   6 O :   -0.547894
   7 H :    0.336236
   8 C :   -0.077604
   9 H :    0.110547
  10 H :    0.090513
  11 H :    0.097567
Sum of atomic charges:    0.0000000

--------------------------------
MULLIKEN REDUCED ORBITAL CHARGES
--------------------------------
  0 O s       :     3.804011  s :     3.804011
      pz      :     1.731021  p :     4.713715
      px      :     1.613881
      py      :     1.368813
      dz2     :     0.005411  d :     0.032160
      dxz     :     0.003700
      dyz     :     0.007611
      dx2y2   :     0.003472
      dxy     :     0.011965
      f0      :     0.000200  f :     0.001730
      f+1     :     0.000162
      f-1     :     0.000328
      f+2     :     0.000278
      f-2     :     0.000190
      f+3     :     0.000220
      f-3     :     0.000352
  1 H s       :     0.625432  s :     0.625432
      pz      :     0.012173  p :     0.042968
      px      :     0.015444
      py      :     0.015351
  2 C s       :     3.198672  s :     3.198672
      pz      :     0.903576  p :     2.770498
      px      :     1.041650
      py      :     0.825273
      dz2     :     0.040181  d :     0.115170
      dxz     :     0.006998
      dyz     :     0.017833
      dx2y2   :     0.017390
      dxy     :     0.032767
      f0      :     0.001274  f :     0.008847
      f+1     :     0.000400
      f-1     :     0.002550
      f+2     :     0.001010
      f-2     :     0.001267
      f+3     :     0.001197
      f-3     :     0.001150
  3 H s       :     0.878881  s :     0.878881
      pz      :     0.003394  p :     0.020957
      px      :     0.008378
      py      :     0.009186
  4 H s       :     0.865932  s :     0.865932
      pz      :     0.003123  p :     0.020444
      px      :     0.013196
      py      :     0.004125
  5 H s       :     0.889682  s :     0.889682
      pz      :     0.013693  p :     0.020265
      px      :     0.003492
      py      :     0.003081
  6 O s       :     3.807391  s :     3.807391
      pz      :     1.471765  p :     4.706153
      px      :     1.582923
      py      :     1.651465
      dz2     :     0.003504  d :     0.032624
      dxz     :     0.006509
      dyz     :     0.010676
      dx2y2   :     0.006928
      dxy     :     0.005007
      f0      :     0.000222  f :     0.001726
      f+1     :     0.000180
      f-1     :     0.000372
      f+2     :     0.000463
      f-2     :     0.000281
      f+3     :     0.000045
      f-3     :     0.000164
  7 H s       :     0.621291  s :     0.621291
      pz      :     0.014270  p :     0.042474
      px      :     0.016908
      py      :     0.011296
  8 C s       :     3.192837  s :     3.192837
      pz      :     0.823461  p :     2.759091
      px      :     1.051532
      py      :     0.884097
      dz2     :     0.025542  d :     0.116696
      dxz     :     0.035702
      dyz     :     0.018233
      dx2y2   :     0.028053
      dxy     :     0.009166
      f0      :     0.001639  f :     0.008981
      f+1     :     0.000567
      f-1     :     0.001714
      f+2     :     0.002459
      f-2     :     0.001463
      f+3     :     0.000462
      f-3     :     0.000677
  9 H s       :     0.868227  s :     0.868227
      pz      :     0.005904  p :     0.021226
      px      :     0.011748
      py      :     0.003574
 10 H s       :     0.889350  s :     0.889350
      pz      :     0.007601  p :     0.020138
      px      :     0.009655
      py      :     0.002881
 11 H s       :     0.882364  s :     0.882364
      pz      :     0.003353  p :     0.020069
      px      :     0.003531
      py      :     0.013186


                     *******************************
                     * LOEWDIN POPULATION ANALYSIS *
                     *******************************

----------------------
LOEWDIN ATOMIC CHARGES
----------------------
   0 O :   -0.134376
   1 H :    0.188691
   2 C :   -0.337472
   3 H :    0.098057
   4 H :    0.092112
   5 H :    0.088036
   6 O :   -0.128195
   7 H :    0.192276
   8 C :   -0.337929
   9 H :    0.101988
  10 H :    0.086978
  11 H :    0.089834

-------------------------------
LOEWDIN REDUCED ORBITAL CHARGES
-------------------------------
  0 O s       :     3.395511  s :     3.395511
      pz      :     1.697423  p :     4.667180
      px      :     1.588895
      py      :     1.380862
      dz2     :     0.013570  d :     0.067644
      dxz     :     0.005510
      dyz     :     0.015141
      dx2y2   :     0.008572
      dxy     :     0.024852
      f0      :     0.000347  f :     0.004041
      f+1     :     0.000351
      f-1     :     0.000809
      f+2     :     0.000614
      f-2     :     0.000611
      f+3     :     0.000437
      f-3     :     0.000873
  1 H s       :     0.665981  s :     0.665981
      pz      :     0.035822  p :     0.145328
      px      :     0.061767
      py      :     0.047739
  2 C s       :     2.862946  s :     2.862946
      pz      :     0.991944  p :     2.998977
      px      :     1.087402
      py      :     0.919631
      dz2     :     0.139876  d :     0.418902
      dxz     :     0.025089
      dyz     :     0.083220
      dx2y2   :     0.057114
      dxy     :     0.113604
      f0      :     0.004806  f :     0.056646
      f+1     :     0.003201
      f-1     :     0.015065
      f+2     :     0.009974
      f-2     :     0.010674
      f+3     :     0.007170
      f-3     :     0.005756
  3 H s       :     0.843238  s :     0.843238
      pz      :     0.011437  p :     0.058705
      px      :     0.023824
      py      :     0.023444
  4 H s       :     0.846888  s :     0.846888
      pz      :     0.011050  p :     0.061000
      px      :     0.036314
      py      :     0.013636
  5 H s       :     0.853538  s :     0.853538
      pz      :     0.035513  p :     0.058426
      px      :     0.012285
      py      :     0.010629
  6 O s       :     3.395581  s :     3.395581
      pz      :     1.470285  p :     4.659945
      px      :     1.540456
      py      :     1.649203
      dz2     :     0.011465  d :     0.068586
      dxz     :     0.018289
      dyz     :     0.018818
      dx2y2   :     0.012504
      dxy     :     0.007510
      f0      :     0.000711  f :     0.004082
      f+1     :     0.000294
      f-1     :     0.000836
      f+2     :     0.000707
      f-2     :     0.000896
      f+3     :     0.000193
      f-3     :     0.000444
  7 H s       :     0.665138  s :     0.665138
      pz      :     0.041178  p :     0.142586
      px      :     0.064375
      py      :     0.037033
  8 C s       :     2.862062  s :     2.862062
      pz      :     0.924459  p :     2.993978
      px      :     1.088122
      py      :     0.981396
      dz2     :     0.086013  d :     0.424339
      dxz     :     0.115843
      dyz     :     0.093471
      dx2y2   :     0.099494
      dxy     :     0.029518
      f0      :     0.013381  f :     0.057550
      f+1     :     0.003460
      f-1     :     0.012629
      f+2     :     0.009860
      f-2     :     0.009680
      f+3     :     0.004272
      f-3     :     0.004267
  9 H s       :     0.839131  s :     0.839131
      pz      :     0.015924  p :     0.058881
      px      :     0.031100
      py      :     0.011856
 10 H s       :     0.854474  s :     0.854474
      pz      :     0.021118  p :     0.058549
      px      :     0.027277
      py      :     0.010154
 11 H s       :     0.851603  s :     0.851603
      pz      :     0.011368  p :     0.058563
      px      :     0.012538
      py      :     0.034657


                      *****************************
                      * MAYER POPULATION ANALYSIS *
                      *****************************

  NA   - Mulliken gross atomic population
  ZA   - Total nuclear charge
  QA   - Mulliken gross atomic charge
  VA   - Mayer's total valence
  BVA  - Mayer's bonded valence
  FA   - Mayer's free valence

  ATOM       NA         ZA         QA         VA         BVA        FA
  0 O      8.5516     8.0000    -0.5516     1.7889     1.7889     0.0000
  1 H      0.6684     1.0000     0.3316     0.8975     0.8975     0.0000
  2 C      6.0932     6.0000    -0.0932     3.8822     3.8822     0.0000
  3 H      0.8998     1.0000     0.1002     0.9592     0.9592     0.0000
  4 H      0.8864     1.0000     0.1136     0.9815     0.9815    -0.0000
  5 H      0.9099     1.0000     0.0901     0.9615     0.9615     0.0000
  6 O      8.5479     8.0000    -0.5479     1.7992     1.7992    -0.0000
  7 H      0.6638     1.0000     0.3362     0.8927     0.8927     0.0000
  8 C      6.0776     6.0000    -0.0776     3.8925     3.8925    -0.0000
  9 H      0.8895     1.0000     0.1105     0.9645     0.9645    -0.0000
 10 H      0.9095     1.0000     0.0905     0.9577     0.9577    -0.0000
 11 H      0.9024     1.0000     0.0976     0.9626     0.9626     0.0000

  Mayer bond orders larger than 0.100000
B(  0-O ,  1-H ) :   0.8866 B(  0-O ,  2-C ) :   0.9267 B(  2-C ,  3-H ) :   0.9806 
B(  2-C ,  4-H ) :   0.9844 B(  2-C ,  5-H ) :   0.9876 B(  6-O ,  7-H ) :   0.8823 
B(  6-O ,  8-C ) :   0.9265 B(  8-C ,  9-H ) :   0.9839 B(  8-C , 10-H ) :   0.9866 
B(  8-C , 11-H ) :   0.9876 

-------
TIMINGS
-------

Total SCF time: 0 days 0 hours 0 min 5 sec 

Total time                  ....       5.830 sec
Sum of individual times     ....       5.625 sec  ( 96.5%)

Fock matrix formation       ....       5.421 sec  ( 93.0%)
Diagonalization             ....       0.030 sec  (  0.5%)
Density matrix formation    ....       0.004 sec  (  0.1%)
Population analysis         ....       0.012 sec  (  0.2%)
Initial guess               ....       0.108 sec  (  1.9%)
Orbital Transformation      ....       0.000 sec  (  0.0%)
Orbital Orthonormalization  ....       0.000 sec  (  0.0%)
DIIS solution               ....       0.010 sec  (  0.2%)
SOSCF solution              ....       0.011 sec  (  0.2%)


           ************************************************************
           *        Program running with 6 parallel MPI-processes     *
           *              working on a common directory               *
           ************************************************************

------------------------------------------------------------------------------
                                ORCA  MP2 
------------------------------------------------------------------------------

Freezing NCore=8 chemical core electrons
MP2 will be done in the AO integral direct mode
The Q1-step will be done using symmetric double matrices
Dimension of the basis                    ...  172
Memory devoted for MP2                    ... 8000 MB   
Memory needed for all in one shot         ...   60 MB
Number of MOs that can be treated together...  408      
MP2 density construction                  ... relaxed
The MP2 gradient is requested => amplitudes will be stored on disk
Total number of MOs              ...   14
Number of MOs treated per batch  ...    3 
Number of batches necessary      ...    1 
OPERATORS   0/  0 PASS   0
-----------------------------------------------
 MP2 CORRELATION ENERGY   :     -0.836063923 Eh
-----------------------------------------------


---------------------
MP2 DENSITY FORMATION
---------------------

Completing the external part of the density      ... done
Storing the unrelaxed density                    ... done

Calculating G(D)                                 ... done
Completing the Lagrangian                        ... done
Solving the Z-vector equations                   ... 

------------------------------------------------------------------------------
                           ORCA CP-SCF CALCULATION
------------------------------------------------------------------------------

Input orbitals are from        ... 12meoh.boyd.etal.mol5,6-orca.engrad-mp2.def2tzvp.frozencore.gbw
Input Perturbation             ... 12meoh.boyd.etal.mol5,6-orca.engrad-mp2.def2tzvp.frozencore.pin.tmp
Wavefunction output            ... 12meoh.boyd.etal.mol5,6-orca.engrad-mp2.def2tzvp.frozencore.pout.tmp
Perturbation mode              ... Real perturbation (singlet)
Solver                         ... POPLE
Max. number of iterations      ... 128
Convergence tolerance          ... 1.000e-08
Integral handling              ... Direct
Number of perturbations        ... 1
Number of operators            ... 1
Orbital ranges used for CP-SCF:
 Operator 0:  Orbitals   0... 17  to  18...171
Variables per vector in CP-SCF ... 2772
Number of vectors sought       ... 1
     CP-SCF ITERATION   0: 
     CP-SCF ITERATION   1:      0.000254567828
     CP-SCF ITERATION   2:      0.000013525291
     CP-SCF ITERATION   3:      0.000002255944
     CP-SCF ITERATION   4:      0.000000109102
     CP-SCF ITERATION   5:      0.000000003440
                                                 ... done
Finalizing the relaxed density                   ... done
Transforming P to the AO basis                   ... done
Storing the relaxed density                      ... done

------------------------------------
ENERGY WEIGHTED DENSITY FINALIZATION
------------------------------------

Gathering the parts of the W-matrix              ...                                                      done
Forming the Z-density                            ... done
Transforming Z to the AO basis                   ... done
Calculating G(Z)                                 ... done
Finalizing the W-matrix                          ...                                                      done
Transforming W to the AO basis and storing       ... done

                *********************************************
                * UNRELAXED MP2 DENSITY POPULATION ANALYSIS *
                *********************************************

------------------------------------------------------------------------------
                           ORCA POPULATION ANALYSIS
------------------------------------------------------------------------------
Input electron density              ... 12meoh.boyd.etal.mol5,6-orca.engrad-mp2.def2tzvp.frozencore.pmp2ur
BaseName (.gbw .S,...)              ... 12meoh.boyd.etal.mol5,6-orca.engrad-mp2.def2tzvp.frozencore

                    ********************************
                    * MULLIKEN POPULATION ANALYSIS *
                    ********************************

-----------------------
MULLIKEN ATOMIC CHARGES
-----------------------
   0 O :   -0.540542
   1 H :    0.328954
   2 C :   -0.108810
   3 H :    0.103004
   4 H :    0.115070
   5 H :    0.092550
   6 O :   -0.536460
   7 H :    0.333499
   8 C :   -0.093459
   9 H :    0.113303
  10 H :    0.092925
  11 H :    0.099966
Sum of atomic charges:   -0.0000000

--------------------------------
MULLIKEN REDUCED ORBITAL CHARGES
--------------------------------
  0 O s       :     3.798751  s :     3.798751
      pz      :     1.717391  p :     4.677949
      px      :     1.601817
      py      :     1.358740
      dz2     :     0.010972  d :     0.059459
      dxz     :     0.009217
      dyz     :     0.013049
      dx2y2   :     0.009030
      dxy     :     0.017190
      f0      :     0.000577  f :     0.004383
      f+1     :     0.000535
      f-1     :     0.000709
      f+2     :     0.000651
      f-2     :     0.000578
      f+3     :     0.000602
      f-3     :     0.000730
  1 H s       :     0.626375  s :     0.626375
      pz      :     0.013093  p :     0.044672
      px      :     0.015887
      py      :     0.015692
  2 C s       :     3.196627  s :     3.196627
      pz      :     0.901723  p :     2.764072
      px      :     1.036785
      py      :     0.825564
      dz2     :     0.043792  d :     0.135935
      dxz     :     0.012276
      dyz     :     0.021359
      dx2y2   :     0.021697
      dxy     :     0.036810
      f0      :     0.001762  f :     0.012176
      f+1     :     0.000908
      f-1     :     0.003018
      f+2     :     0.001416
      f-2     :     0.001744
      f+3     :     0.001703
      f-3     :     0.001624
  3 H s       :     0.872909  s :     0.872909
      pz      :     0.004520  p :     0.024087
      px      :     0.009372
      py      :     0.010196
  4 H s       :     0.861367  s :     0.861367
      pz      :     0.004275  p :     0.023563
      px      :     0.014046
      py      :     0.005242
  5 H s       :     0.883983  s :     0.883983
      pz      :     0.014589  p :     0.023468
      px      :     0.004649
      py      :     0.004230
  6 O s       :     3.802226  s :     3.802226
      pz      :     1.460546  p :     4.669860
      px      :     1.571598
      py      :     1.637716
      dz2     :     0.009165  d :     0.059992
      dxz     :     0.011994
      dyz     :     0.015944
      dx2y2   :     0.012389
      dxy     :     0.010499
      f0      :     0.000601  f :     0.004382
      f+1     :     0.000556
      f-1     :     0.000754
      f+2     :     0.000838
      f-2     :     0.000665
      f+3     :     0.000426
      f-3     :     0.000542
  7 H s       :     0.622303  s :     0.622303
      pz      :     0.014809  p :     0.044197
      px      :     0.017209
      py      :     0.012180
  8 C s       :     3.190902  s :     3.190902
      pz      :     0.823481  p :     2.752857
      px      :     1.046957
      py      :     0.882418
      dz2     :     0.030096  d :     0.137389
      dxz     :     0.039490
      dyz     :     0.021521
      dx2y2   :     0.031850
      dxy     :     0.014431
      f0      :     0.002098  f :     0.012311
      f+1     :     0.001129
      f-1     :     0.002121
      f+2     :     0.002858
      f-2     :     0.001961
      f+3     :     0.000980
      f-3     :     0.001165
  9 H s       :     0.862397  s :     0.862397
      pz      :     0.006977  p :     0.024301
      px      :     0.012643
      py      :     0.004680
 10 H s       :     0.883727  s :     0.883727
      pz      :     0.008648  p :     0.023348
      px      :     0.010647
      py      :     0.004054
 11 H s       :     0.876790  s :     0.876790
      pz      :     0.004491  p :     0.023244
      px      :     0.004674
      py      :     0.014079


                     *******************************
                     * LOEWDIN POPULATION ANALYSIS *
                     *******************************

----------------------
LOEWDIN ATOMIC CHARGES
----------------------
   0 O :   -0.126534
   1 H :    0.186896
   2 C :   -0.348313
   3 H :    0.099794
   4 H :    0.093333
   5 H :    0.089493
   6 O :   -0.119964
   7 H :    0.190326
   8 C :   -0.348530
   9 H :    0.103759
  10 H :    0.088412
  11 H :    0.091328

-------------------------------
LOEWDIN REDUCED ORBITAL CHARGES
-------------------------------
  0 O s       :     3.392058  s :     3.392058
      pz      :     1.684000  p :     4.631191
      px      :     1.577054
      py      :     1.370136
      dz2     :     0.019222  d :     0.096340
      dxz     :     0.011102
      dyz     :     0.021268
      dx2y2   :     0.014138
      dxy     :     0.030610
      f0      :     0.000750  f :     0.006945
      f+1     :     0.000744
      f-1     :     0.001234
      f+2     :     0.001032
      f-2     :     0.001026
      f+3     :     0.000860
      f-3     :     0.001299
  1 H s       :     0.664233  s :     0.664233
      pz      :     0.036704  p :     0.148871
      px      :     0.063244
      py      :     0.048923
  2 C s       :     2.861830  s :     2.861830
      pz      :     0.987520  p :     2.985079
      px      :     1.080869
      py      :     0.916690
      dz2     :     0.143452  d :     0.439872
      dxz     :     0.030066
      dyz     :     0.087295
      dx2y2   :     0.061441
      dxy     :     0.117618
      f0      :     0.005683  f :     0.061532
      f+1     :     0.003859
      f-1     :     0.015712
      f+2     :     0.010607
      f-2     :     0.011254
      f+3     :     0.007897
      f-3     :     0.006520
  3 H s       :     0.836423  s :     0.836423
      pz      :     0.012736  p :     0.063782
      px      :     0.025572
      py      :     0.025475
  4 H s       :     0.840494  s :     0.840494
      pz      :     0.012373  p :     0.066174
      px      :     0.038625
      py      :     0.015176
  5 H s       :     0.846820  s :     0.846820
      pz      :     0.038115  p :     0.063688
      px      :     0.013542
      py      :     0.012030
  6 O s       :     3.392137  s :     3.392137
      pz      :     1.458656  p :     4.623460
      px      :     1.529306
      py      :     1.635497
      dz2     :     0.017033  d :     0.097373
      dxz     :     0.024037
      dyz     :     0.025001
      dx2y2   :     0.018170
      dxy     :     0.013132
      f0      :     0.001117  f :     0.006994
      f+1     :     0.000689
      f-1     :     0.001284
      f+2     :     0.001166
      f-2     :     0.001310
      f+3     :     0.000584
      f-3     :     0.000843
  7 H s       :     0.663518  s :     0.663518
      pz      :     0.042221  p :     0.146156
      px      :     0.065893
      py      :     0.038042
  8 C s       :     2.860927  s :     2.860927
      pz      :     0.921358  p :     2.980091
      px      :     1.081638
      py      :     0.977094
      dz2     :     0.089897  d :     0.445085
      dxz     :     0.119560
      dyz     :     0.097476
      dx2y2   :     0.103733
      dxy     :     0.034420
      f0      :     0.013872  f :     0.062428
      f+1     :     0.004155
      f-1     :     0.013420
      f+2     :     0.010917
      f-2     :     0.010228
      f+3     :     0.004879
      f-3     :     0.004957
  9 H s       :     0.832360  s :     0.832360
      pz      :     0.017550  p :     0.063881
      px      :     0.033153
      py      :     0.013178
 10 H s       :     0.847771  s :     0.847771
      pz      :     0.023048  p :     0.063817
      px      :     0.029303
      py      :     0.011466
 11 H s       :     0.844897  s :     0.844897
      pz      :     0.012796  p :     0.063775
      px      :     0.013789
      py      :     0.037191


                      *****************************
                      * MAYER POPULATION ANALYSIS *
                      *****************************

  NA   - Mulliken gross atomic population
  ZA   - Total nuclear charge
  QA   - Mulliken gross atomic charge
  VA   - Mayer's total valence
  BVA  - Mayer's bonded valence
  FA   - Mayer's free valence

  ATOM       NA         ZA         QA         VA         BVA        FA
  0 O      8.5405     8.0000    -0.5405     2.0887     1.6832     0.4055
  1 H      0.6710     1.0000     0.3290     0.9040     0.8514     0.0525
  2 C      6.1088     6.0000    -0.1088     3.9883     3.7087     0.2796
  3 H      0.8970     1.0000     0.1030     0.9684     0.9210     0.0474
  4 H      0.8849     1.0000     0.1151     0.9919     0.9421     0.0498
  5 H      0.9075     1.0000     0.0925     0.9714     0.9222     0.0492
  6 O      8.5365     8.0000    -0.5365     2.0995     1.6925     0.4070
  7 H      0.6665     1.0000     0.3335     0.8992     0.8463     0.0529
  8 C      6.0935     6.0000    -0.0935     3.9978     3.7189     0.2788
  9 H      0.8867     1.0000     0.1133     0.9733     0.9264     0.0469
 10 H      0.9071     1.0000     0.0929     0.9678     0.9184     0.0494
 11 H      0.9000     1.0000     0.1000     0.9724     0.9235     0.0489

  Mayer bond orders larger than 0.100000
B(  0-O ,  1-H ) :   0.8415 B(  0-O ,  2-C ) :   0.8678 B(  2-C ,  3-H ) :   0.9430 
B(  2-C ,  4-H ) :   0.9465 B(  2-C ,  5-H ) :   0.9491 B(  6-O ,  7-H ) :   0.8367 
B(  6-O ,  8-C ) :   0.8676 B(  8-C ,  9-H ) :   0.9465 B(  8-C , 10-H ) :   0.9482 
B(  8-C , 11-H ) :   0.9494 


                *******************************************
                * RELAXED MP2 DENSITY POPULATION ANALYSIS *
                *******************************************

------------------------------------------------------------------------------
                           ORCA POPULATION ANALYSIS
------------------------------------------------------------------------------
Input electron density              ... 12meoh.boyd.etal.mol5,6-orca.engrad-mp2.def2tzvp.frozencore.pmp2re
BaseName (.gbw .S,...)              ... 12meoh.boyd.etal.mol5,6-orca.engrad-mp2.def2tzvp.frozencore

                    ********************************
                    * MULLIKEN POPULATION ANALYSIS *
                    ********************************

-----------------------
MULLIKEN ATOMIC CHARGES
-----------------------
   0 O :   -0.503070
   1 H :    0.323693
   2 C :   -0.190111
   3 H :    0.121743
   4 H :    0.124245
   5 H :    0.108691
   6 O :   -0.494928
   7 H :    0.328583
   8 C :   -0.176409
   9 H :    0.131249
  10 H :    0.109932
  11 H :    0.116381
Sum of atomic charges:   -0.0000000

--------------------------------
MULLIKEN REDUCED ORBITAL CHARGES
--------------------------------
  0 O s       :     3.799970  s :     3.799970
      pz      :     1.704073  p :     4.641391
      px      :     1.585651
      py      :     1.351667
      dz2     :     0.011001  d :     0.057381
      dxz     :     0.009289
      dyz     :     0.012096
      dx2y2   :     0.008859
      dxy     :     0.016135
      f0      :     0.000573  f :     0.004328
      f+1     :     0.000529
      f-1     :     0.000706
      f+2     :     0.000637
      f-2     :     0.000574
      f+3     :     0.000594
      f-3     :     0.000716
  1 H s       :     0.631062  s :     0.631062
      pz      :     0.014038  p :     0.045245
      px      :     0.015809
      py      :     0.015397
  2 C s       :     3.219525  s :     3.219525
      pz      :     0.926269  p :     2.833180
      px      :     1.061852
      py      :     0.845058
      dz2     :     0.039305  d :     0.125818
      dxz     :     0.013356
      dyz     :     0.019392
      dx2y2   :     0.019690
      dxy     :     0.034075
      f0      :     0.001675  f :     0.011589
      f+1     :     0.000869
      f-1     :     0.002883
      f+2     :     0.001320
      f-2     :     0.001706
      f+3     :     0.001623
      f-3     :     0.001513
  3 H s       :     0.855288  s :     0.855288
      pz      :     0.004692  p :     0.022969
      px      :     0.008850
      py      :     0.009427
  4 H s       :     0.853249  s :     0.853249
      pz      :     0.004500  p :     0.022506
      px      :     0.012787
      py      :     0.005219
  5 H s       :     0.868912  s :     0.868912
      pz      :     0.013139  p :     0.022397
      px      :     0.004888
      py      :     0.004370
  6 O s       :     3.804135  s :     3.804135
      pz      :     1.452255  p :     4.628561
      px      :     1.555339
      py      :     1.620967
      dz2     :     0.009226  d :     0.057904
      dxz     :     0.011746
      dyz     :     0.014620
      dx2y2   :     0.011955
      dxy     :     0.010357
      f0      :     0.000600  f :     0.004328
      f+1     :     0.000558
      f-1     :     0.000733
      f+2     :     0.000814
      f-2     :     0.000664
      f+3     :     0.000426
      f-3     :     0.000533
  7 H s       :     0.626577  s :     0.626577
      pz      :     0.015008  p :     0.044840
      px      :     0.016796
      py      :     0.013036
  8 C s       :     3.212929  s :     3.212929
      pz      :     0.843765  p :     2.823026
      px      :     1.074255
      py      :     0.905006
      dz2     :     0.031066  d :     0.128690
      dxz     :     0.035602
      dyz     :     0.019390
      dx2y2   :     0.027517
      dxy     :     0.015114
      f0      :     0.001962  f :     0.011765
      f+1     :     0.001103
      f-1     :     0.002036
      f+2     :     0.002727
      f-2     :     0.001882
      f+3     :     0.000934
      f-3     :     0.001122
  9 H s       :     0.845609  s :     0.845609
      pz      :     0.006736  p :     0.023142
      px      :     0.011624
      py      :     0.004782
 10 H s       :     0.867791  s :     0.867791
      pz      :     0.008111  p :     0.022277
      px      :     0.009846
      py      :     0.004319
 11 H s       :     0.861485  s :     0.861485
      pz      :     0.004589  p :     0.022133
      px      :     0.004886
      py      :     0.012659


                     *******************************
                     * LOEWDIN POPULATION ANALYSIS *
                     *******************************

----------------------
LOEWDIN ATOMIC CHARGES
----------------------
   0 O :   -0.113274
   1 H :    0.189549
   2 C :   -0.383942
   3 H :    0.107074
   4 H :    0.097624
   5 H :    0.095550
   6 O :   -0.105501
   7 H :    0.192972
   8 C :   -0.383212
   9 H :    0.111031
  10 H :    0.094548
  11 H :    0.097580

-------------------------------
LOEWDIN REDUCED ORBITAL CHARGES
-------------------------------
  0 O s       :     3.395018  s :     3.395018
      pz      :     1.674447  p :     4.615344
      px      :     1.571019
      py      :     1.369877
      dz2     :     0.019395  d :     0.095857
      dxz     :     0.011377
      dyz     :     0.020829
      dx2y2   :     0.014156
      dxy     :     0.030099
      f0      :     0.000758  f :     0.007056
      f+1     :     0.000750
      f-1     :     0.001263
      f+2     :     0.001056
      f-2     :     0.001041
      f+3     :     0.000876
      f-3     :     0.001312
  1 H s       :     0.660949  s :     0.660949
      pz      :     0.037636  p :     0.149502
      px      :     0.063555
      py      :     0.048311
  2 C s       :     2.868049  s :     2.868049
      pz      :     1.001286  p :     3.025646
      px      :     1.096109
      py      :     0.928251
      dz2     :     0.142505  d :     0.430219
      dxz     :     0.029792
      dyz     :     0.083942
      dx2y2   :     0.058266
      dxy     :     0.115713
      f0      :     0.005415  f :     0.060028
      f+1     :     0.003789
      f-1     :     0.015236
      f+2     :     0.010452
      f-2     :     0.011126
      f+3     :     0.007675
      f-3     :     0.006336
  3 H s       :     0.828698  s :     0.828698
      pz      :     0.013177  p :     0.064228
      px      :     0.025612
      py      :     0.025439
  4 H s       :     0.835373  s :     0.835373
      pz      :     0.012867  p :     0.067003
      px      :     0.038390
      py      :     0.015746
  5 H s       :     0.839957  s :     0.839957
      pz      :     0.037949  p :     0.064493
      px      :     0.014026
      py      :     0.012517
  6 O s       :     3.395347  s :     3.395347
      pz      :     1.455886  p :     4.606130
      px      :     1.525782
      py      :     1.624462
      dz2     :     0.017399  d :     0.096923
      dxz     :     0.023944
      dyz     :     0.024318
      dx2y2   :     0.017931
      dxy     :     0.013331
      f0      :     0.001139  f :     0.007101
      f+1     :     0.000695
      f-1     :     0.001309
      f+2     :     0.001190
      f-2     :     0.001333
      f+3     :     0.000592
      f-3     :     0.000843
  7 H s       :     0.660194  s :     0.660194
      pz      :     0.042088  p :     0.146834
      px      :     0.065870
      py      :     0.038876
  8 C s       :     2.866926  s :     2.866926
      pz      :     0.933067  p :     3.020108
      px      :     1.097122
      py      :     0.989919
      dz2     :     0.090455  d :     0.435335
      dxz     :     0.116216
      dyz     :     0.093924
      dx2y2   :     0.100505
      dxy     :     0.034235
      f0      :     0.013564  f :     0.060842
      f+1     :     0.003986
      f-1     :     0.013130
      f+2     :     0.010633
      f-2     :     0.009919
      f+3     :     0.004765
      f-3     :     0.004845
  9 H s       :     0.824714  s :     0.824714
      pz      :     0.017790  p :     0.064256
      px      :     0.032893
      py      :     0.013573
 10 H s       :     0.840835  s :     0.840835
      pz      :     0.023369  p :     0.064617
      px      :     0.029261
      py      :     0.011987
 11 H s       :     0.837899  s :     0.837899
      pz      :     0.013244  p :     0.064521
      px      :     0.014257
      py      :     0.037021


                      *****************************
                      * MAYER POPULATION ANALYSIS *
                      *****************************

  NA   - Mulliken gross atomic population
  ZA   - Total nuclear charge
  QA   - Mulliken gross atomic charge
  VA   - Mayer's total valence
  BVA  - Mayer's bonded valence
  FA   - Mayer's free valence

  ATOM       NA         ZA         QA         VA         BVA        FA
  0 O      8.5031     8.0000    -0.5031     2.1425     1.7435     0.3989
  1 H      0.6763     1.0000     0.3237     0.9063     0.8536     0.0526
  2 C      6.1901     6.0000    -0.1901     4.0009     3.7233     0.2777
  3 H      0.8783     1.0000     0.1217     0.9596     0.9128     0.0468
  4 H      0.8758     1.0000     0.1242     1.0018     0.9534     0.0484
  5 H      0.8913     1.0000     0.1087     0.9626     0.9140     0.0485
  6 O      8.4949     8.0000    -0.4949     2.1646     1.7648     0.3998
  7 H      0.6714     1.0000     0.3286     0.9016     0.8486     0.0530
  8 C      6.1764     6.0000    -0.1764     4.0190     3.7424     0.2765
  9 H      0.8688     1.0000     0.1312     0.9651     0.9188     0.0463
 10 H      0.8901     1.0000     0.1099     0.9595     0.9107     0.0488
 11 H      0.8836     1.0000     0.1164     0.9656     0.9173     0.0482

  Mayer bond orders larger than 0.100000
B(  0-O ,  1-H ) :   0.8417 B(  0-O ,  2-C ) :   0.9176 B(  2-C ,  3-H ) :   0.9347 
B(  2-C ,  4-H ) :   0.9346 B(  2-C ,  5-H ) :   0.9366 B(  6-O ,  7-H ) :   0.8363 
B(  6-O ,  8-C ) :   0.9184 B(  8-C ,  9-H ) :   0.9382 B(  8-C , 10-H ) :   0.9373 
B(  8-C , 11-H ) :   0.9392 


----------------------------------
MP2 DERIVATIVE INTEGRAL GENERATION
----------------------------------


Input Wavefunction Amplitudes       ... 12meoh.boyd.etal.mol5,6-orca.engrad-mp2.def2tzvp.frozencore.mp2tsaa.tmp
Input Correlated Electron Density   ... 12meoh.boyd.etal.mol5,6-orca.engrad-mp2.def2tzvp.frozencore.pmp2re
Input Energy Weighted Density       ... 12meoh.boyd.etal.mol5,6-orca.engrad-mp2.def2tzvp.frozencore.wmp2.tmp
Input SCF Electron Density          ... 12meoh.boyd.etal.mol5,6-orca.engrad-mp2.def2tzvp.frozencore.scfp

One-Electron Terms    ...
                        ... One-Electron Terms done
Prescreening matrices              ... done

Batch handling in the gradient evaluation:
Memory available                      ... 8000.0 MB
Memory per occupied orbital in Q2     ...    3.2 MB
Memory per occupied orbital in Q3     ...    0.1 MB
Total memory requirement per |i>      ...    3.2 MB
Max. Number of orbitals possible      ...   2481
Number of orbitals treated per batch  ...     14
Number of batches to be done          ...      1
Batch   0: i=    4 ...    17

---------------------------------------
MP2 TOTAL ENERGY:     -231.015009050 Eh
---------------------------------------

The final MP2 gradient
  0:  -0.01609450  -0.01306128   0.00060138
  1:   0.01858215   0.02003937  -0.00024424
  2:  -0.00559647  -0.00429359   0.00209537
  3:  -0.00026065  -0.00445045  -0.00053368
  4:   0.00328417  -0.00111031   0.00088854
  5:   0.00009834   0.00286880  -0.00256122
  6:   0.02089903   0.00759345  -0.01615532
  7:  -0.02481498  -0.00746175   0.01796680
  8:   0.00403651   0.00313212   0.00130828
  9:   0.00294144  -0.00028454  -0.00363719
 10:  -0.00257169   0.00078640  -0.00098214
 11:  -0.00050334  -0.00375825   0.00125342

-----------------------------------
NORM OF THE MP2 GRADIENT:  0.055700
-----------------------------------

-------------------------   --------------------
FINAL SINGLE POINT ENERGY      -231.015009049614
-------------------------   --------------------


                            ***************************************
                            *     ORCA property calculations      *
                            ***************************************

                                    ---------------------
                                    Active property flags
                                    ---------------------
   (+) Dipole Moment


------------------------------------------------------------------------------
                       ORCA ELECTRIC PROPERTIES CALCULATION
------------------------------------------------------------------------------

Dipole Moment Calculation                       ... on
Quadrupole Moment Calculation                   ... off
Polarizability Calculation                      ... off
GBWName                                         ... 12meoh.boyd.etal.mol5,6-orca.engrad-mp2.def2tzvp.frozencore.gbw
Electron density file                           ... 12meoh.boyd.etal.mol5,6-orca.engrad-mp2.def2tzvp.frozencore.scfp
The origin for moment calculation is the CENTER OF MASS  = ( 2.068179, -1.171934 -3.559459)

-------------
DIPOLE MOMENT
-------------
                                X             Y             Z
Electronic contribution:     -0.49529       2.44881       2.37990
Nuclear contribution   :      0.74121      -3.11161      -2.91632
                        -----------------------------------------
Total Dipole Moment    :      0.24592      -0.66280      -0.53641
                        -----------------------------------------
Magnitude (a.u.)       :      0.88743
Magnitude (Debye)      :      2.25566



--------------------
Rotational spectrum 
--------------------
 
Rotational constants in cm-1:     0.609869     0.050078     0.047590 
Rotational constants in MHz : 18283.419720  1501.296914  1426.705023 

 Dipole components along the rotational axes: 
x,y,z [a.u.] :    -0.688638    -0.559671     0.008485 
x,y,z [Debye]:    -1.750378    -1.422570     0.021566 

 

                         *** MP2 UNRELAXED DENSITY ***

------------------------------------------------------------------------------
                       ORCA ELECTRIC PROPERTIES CALCULATION
------------------------------------------------------------------------------

Dipole Moment Calculation                       ... on
Quadrupole Moment Calculation                   ... off
Polarizability Calculation                      ... off
GBWName                                         ... 12meoh.boyd.etal.mol5,6-orca.engrad-mp2.def2tzvp.frozencore.gbw
Electron density file                           ... 12meoh.boyd.etal.mol5,6-orca.engrad-mp2.def2tzvp.frozencore.pmp2ur
The origin for moment calculation is the CENTER OF MASS  = ( 2.068179, -1.171934 -3.559459)

-------------
DIPOLE MOMENT
-------------
                                X             Y             Z
Electronic contribution:     -0.49836       2.46567       2.39591
Nuclear contribution   :      0.74121      -3.11161      -2.91632
                        -----------------------------------------
Total Dipole Moment    :      0.24285      -0.64595      -0.52041
                        -----------------------------------------
Magnitude (a.u.)       :      0.86432
Magnitude (Debye)      :      2.19693



--------------------
Rotational spectrum 
--------------------
 
Rotational constants in cm-1:     0.609869     0.050078     0.047590 
Rotational constants in MHz : 18283.419720  1501.296914  1426.705023 

 Dipole components along the rotational axes: 
x,y,z [a.u.] :    -0.673142    -0.542080     0.008890 
x,y,z [Debye]:    -1.710992    -1.377857     0.022596 

 

                           *** MP2 RELAXED DENSITY ***

------------------------------------------------------------------------------
                       ORCA ELECTRIC PROPERTIES CALCULATION
------------------------------------------------------------------------------

Dipole Moment Calculation                       ... on
Quadrupole Moment Calculation                   ... off
Polarizability Calculation                      ... off
GBWName                                         ... 12meoh.boyd.etal.mol5,6-orca.engrad-mp2.def2tzvp.frozencore.gbw
Electron density file                           ... 12meoh.boyd.etal.mol5,6-orca.engrad-mp2.def2tzvp.frozencore.pmp2re
The origin for moment calculation is the CENTER OF MASS  = ( 2.068179, -1.171934 -3.559459)

-------------
DIPOLE MOMENT
-------------
                                X             Y             Z
Electronic contribution:     -0.50090       2.48970       2.42297
Nuclear contribution   :      0.74121      -3.11161      -2.91632
                        -----------------------------------------
Total Dipole Moment    :      0.24031      -0.62192      -0.49335
                        -----------------------------------------
Magnitude (a.u.)       :      0.82941
Magnitude (Debye)      :      2.10820



--------------------
Rotational spectrum 
--------------------
 
Rotational constants in cm-1:     0.609869     0.050078     0.047590 
Rotational constants in MHz : 18283.419720  1501.296914  1426.705023 

 Dipole components along the rotational axes: 
x,y,z [a.u.] :    -0.651980    -0.512618     0.008318 
x,y,z [Debye]:    -1.657201    -1.302972     0.021143 

 

Timings for individual modules:

Sum of individual times         ...       22.328 sec (=   0.372 min)
GTO integral calculation        ...        1.438 sec (=   0.024 min)   6.4 %
SCF iterations                  ...        6.636 sec (=   0.111 min)  29.7 %
MP2 module                      ...       14.254 sec (=   0.238 min)  63.8 %
                             ****ORCA TERMINATED NORMALLY****
TOTAL RUN TIME: 0 days 0 hours 0 minutes 23 seconds 319 msec
