28
Energy:   -381.07214117
Na  -0.05074825  -0.77603042   0.15001130
O    0.17231391  -2.94497318   1.04071472
H    0.55415389  -3.18475304   1.88506992
H   -0.08046618  -3.77954383   0.64596682
C    4.42589303   1.27177691  -0.61377452
H    4.93683348   1.37729277  -1.54796211
H    5.04382338   0.73009659   0.07153097
H    4.21249626   2.24047893  -0.21255476
C    3.10829245   0.50531953  -0.83302729
N    2.12727892  -0.06534283  -0.99627094
C   -0.62299921  -1.05214852  -4.88854623
H   -0.40720639  -2.01041268  -5.31288506
H    0.12213964  -0.34921346  -5.19765706
H   -1.58462976  -0.72255599  -5.22251411
C   -0.62199333  -1.15903253  -3.35226019
N   -0.62124441  -1.23861253  -2.20842541
C   -4.93492304   0.71893457   0.65518999
H   -5.31773587   0.97908476  -0.30952571
H   -5.08286314   1.53614501   1.32986022
H   -5.44968969  -0.14429778   1.02226534
C   -3.43015373   0.41074934   0.54432437
N   -2.30978458   0.18129142   0.46177988
C    0.86517628   2.01800084   4.08439421
H    1.81548609   2.23996302   4.52319283
H    0.29574058   1.40965282   4.75562797
H    0.33809706   2.92970943   3.89498977
C    1.07560270   1.26192744   2.75937582
N    1.23227474   0.69899643   1.77283940
