28
Energy:   -385.33541067
Na   0.01931200  -0.06419510  -1.19536634
O    0.57704781  -0.15975356  -3.48404530
H    1.46131327  -0.50015224  -3.61982150
H    0.29491225   0.12843463  -4.35213455
C    1.47839005  -2.80106483   2.84808677
H    0.92458600  -2.52492668   3.72098367
H    2.52530113  -2.77878628   3.06804115
H    1.19841668  -3.78850225   2.54562793
C    1.17163633  -1.80938830   1.71051049
N    0.94324424  -1.07104004   0.86353323
C   -3.99452755  -2.77318063   0.30823737
H   -4.88381520  -2.35416653  -0.11424913
H   -4.04686188  -2.71885959   1.37557491
H   -3.90426397  -3.79597321   0.00716110
C   -2.76920567  -1.98237125  -0.18654221
N   -1.85689784  -1.39357772  -0.55492810
C   -2.80318935   3.95629517   0.19196306
H   -3.79323633   3.80855610  -0.18603209
H   -2.41935971   4.88800115  -0.16789506
H   -2.82815380   3.97009805   1.26158231
C   -1.89475781   2.80810102  -0.28553281
N   -1.21838923   1.95321828  -0.64105019
C    4.63496910   1.63536710   0.34943875
H    4.59773480   2.64173254   0.71102192
H    5.47935927   1.51983854  -0.29752143
H    4.72454313   0.96233012   1.17641929
C    3.34434606   1.32189751  -0.43006685
N    2.38341854   1.08850515  -1.01044420
