28
Energy:   -378.47771710
Na   0.00679188   0.13626817  -0.58396973
O   -1.08968266   1.34961111  -2.30706548
H   -1.92647000   1.01965465  -2.63439943
H   -0.75423159   1.89837295  -3.01598358
C   -1.56155962   4.94841385   0.23480164
H   -0.83784405   5.73459221   0.29011473
H   -2.27009866   5.05936017   1.02888125
H   -2.06946075   4.99670523  -0.70573198
C   -0.85240328   3.58771902   0.36597665
N   -0.32440415   2.57461988   0.46364240
C    2.59424032  -0.41620003   3.85319642
H    3.48819900   0.17110141   3.82464684
H    2.84347905  -1.43512460   4.06431691
H    1.94582990  -0.04187445   4.61761998
C    1.88211564  -0.33373424   2.49022986
N    1.35190645  -0.27233471   1.47543930
C   -3.04515986  -3.10142437   2.00406306
H   -2.61048359  -3.01563640   2.97802257
H   -2.93306634  -4.10511838   1.65060518
H   -4.08520796  -2.85518428   2.05470752
C   -2.33520659  -2.13472578   1.03811265
N   -1.80661411  -1.41497474   0.31891866
C    2.93785612  -2.50327079  -3.84240919
H    2.98546067  -3.55869503  -3.67295813
H    3.90296557  -2.07167403  -3.67752415
H    2.63154033  -2.31736638  -4.85063004
C    1.92116893  -1.87298781  -2.87251717
N    1.16419911  -1.40371348  -2.15038848
