28
Energy:   -378.58604529
Na   0.42470878   0.88741942   1.19895149
O    0.73499282   2.80944973   2.59124013
H    0.82769424   3.65303384   2.14851658
H    0.98358193   2.98600572   3.49857870
C    4.60730208  -1.83979777   1.92338961
H    5.39328681  -1.26464577   2.36647916
H    4.92064966  -2.19136741   0.96260286
H    4.37880969  -2.67516907   2.55175663
C    3.35394132  -0.95927745   1.76410750
N    2.42075727  -0.30369005   1.64551473
C   -4.02671094  -0.96418212   1.43384587
H   -4.52995496  -0.41923073   0.66269503
H   -4.65076178  -1.01275301   2.30165951
H   -3.81551071  -1.95534084   1.09048318
C   -2.70821713  -0.25207007   1.78890996
N   -1.72653856   0.27812972   2.05327131
C   -1.91593755  -2.16928527  -2.68274162
H   -2.94042462  -1.86078687  -2.69519853
H   -1.86225856  -3.22028236  -2.48929195
H   -1.46823811  -1.95790029  -3.63130932
C   -1.16305083  -1.40487719  -1.57800551
N   -0.60249245  -0.83574062  -0.75547926
C    0.42486997   1.93882763  -3.65925330
H   -0.45641410   1.42999966  -3.98990819
H    1.29072790   1.41692638  -4.00969334
H    0.42793396   2.93587911  -4.04755479
C    0.44266227   1.98729848  -2.12011913
N    0.45590945   2.02338723  -0.97416377
