28
Energy:   -383.65072590
Na   0.04537152  -0.47785584  -0.49739423
O    1.23089467  -1.83387562  -2.06767875
H    1.02606972  -2.54129209  -2.67910375
H    2.06245748  -1.47862066  -2.38157213
C   -3.46395431  -3.20516396   2.19727959
H   -3.13380768  -4.20735327   2.37481821
H   -4.41153635  -3.22449458   1.70067744
H   -3.56082819  -2.69093787   3.13059951
C   -2.43588109  -2.47503873   1.31320798
N   -1.67043384  -1.93142732   0.65497648
C   -3.01844553   1.74910213  -3.89118132
H   -3.93799032   2.06445581  -3.44409115
H   -3.21902476   1.00169557  -4.63013363
H   -2.54023105   2.58767664  -4.35270357
C   -2.09457401   1.16401382  -2.80686906
N   -1.40670967   0.72838897  -1.99954929
C    3.28458039   3.41848333  -0.19577221
H    2.97200467   4.39191018  -0.51142513
H    4.28737768   3.24182786  -0.52454194
H    3.24362596   3.35946604   0.87181328
C    2.35011938   2.35666705  -0.80481147
N    1.65437068   1.56609657  -1.25826888
C    2.09015285  -0.32763207   4.15456385
H    2.52972810  -1.29529746   4.27824682
H    1.28856904  -0.20808130   4.85318400
H    2.83028309   0.42522311   4.32867700
C    1.54593931  -0.19052946   2.72046675
N    1.14074759  -0.08845033   1.65271628
