28
Energy:   -387.79734195
Na  -1.15602373   0.09428116  -0.17205616
O    0.19194323   1.90644440   0.22663241
H    0.12208762   2.85705196   0.31436675
H    1.12249322   1.72146686   0.35348618
C    3.09954494  -2.48418066   0.24095835
H    3.80037007  -1.69966005   0.43658995
H    3.37654622  -2.99388313  -0.65813718
H    3.10082090  -3.17544060   1.05769402
C    1.69036692  -1.88481471   0.07793141
N    0.64116984  -1.43855951  -0.04344955
C   -3.54272379  -0.20048102  -4.61843642
H   -2.96046959  -0.80358389  -5.28337788
H   -3.66519585   0.77631102  -5.03769411
H   -4.50296176  -0.65081685  -4.47687452
C   -2.82244023  -0.09016691  -3.26174103
N   -2.28615639  -0.00803304  -2.25161964
C   -4.77623577  -0.99110146   3.18498592
H   -5.01639224  -2.03092130   3.10752773
H   -5.65046973  -0.40730818   2.98548786
H   -4.42353590  -0.77911762   4.17269273
C   -3.67996881  -0.63986178   2.16203459
N   -2.86374822  -0.37834786   1.40040082
C    5.48200638   2.02239179   1.06310048
H    6.09476962   1.71704864   0.24079461
H    5.82591613   1.54935641   1.95912655
H    5.53993658   3.08485614   1.17585101
C    4.02173364   1.61351983   0.79472156
N    2.93449421   1.30909607   0.59490125
