28
Energy:   -379.07608908
Na   0.54012555  -0.42582795   0.53162374
O    2.04493129  -1.96304060   1.34863619
H    2.72232622  -1.44516142   1.78357195
H    2.31270396  -2.87177955   1.48546877
C    3.31131483   2.84870870   3.27122141
H    2.68935888   3.67840239   3.00725292
H    4.33348729   3.08984427   3.06648697
H    3.19717329   2.63473944   4.31337685
C    2.89957998   1.61546865   2.44587701
N    2.59302467   0.69726537   1.83137058
C    0.95401861   2.29228099  -3.67047615
H    1.68343030   1.97660569  -4.38686144
H    1.10211503   3.32728813  -3.44304099
H   -0.02674519   2.15275313  -4.07486881
C    1.10262990   1.45779518  -2.38472807
N    1.21327777   0.83648257  -1.42743018
C   -2.38442833  -3.45487560  -2.51094105
H   -2.31022273  -4.43924060  -2.09812236
H   -1.95387115  -3.44550352  -3.49044693
H   -3.41406531  -3.17006565  -2.57119111
C   -1.62900052  -2.46152633  -1.60861847
N   -1.06655017  -1.72193265  -0.93679829
C   -4.19911560   0.08419979   1.27941746
H   -4.50204156  -0.90573375   1.54991264
H   -4.43910289   0.26242070   0.25202148
H   -4.71181213   0.79449350   1.89384744
C   -2.67982393   0.23016746   1.48446930
N   -1.54864222   0.33884703   1.63713972
