28
Energy:   -379.29786926
Na   0.03560598   1.02819500  -0.27084675
O    2.09604676   1.99908353  -0.66484662
H    2.33015641   2.90032182  -0.44304926
H    2.79475023   1.70674133  -1.25015112
C   -3.98019179   4.24453430   0.56980930
H   -4.82293885   3.71791335   0.17313822
H   -3.89579749   5.19654405   0.08871251
H   -4.11171844   4.38708766   1.62208225
C   -2.69942836   3.42712067   0.31865198
N   -1.74584177   2.81851907   0.13165394
C   -2.82882303  -2.96011140  -1.72578588
H   -2.71992133  -3.07792574  -2.78368964
H   -3.86568170  -3.00974396  -1.46624820
H   -2.29759834  -3.74130581  -1.22335708
C   -2.25782413  -1.59477461  -1.29985665
N   -1.83268948  -0.57821931  -0.98273297
C    3.62081490  -2.32020906  -1.91558979
H    4.32964739  -1.69711584  -2.41978373
H    3.37362078  -3.15491140  -2.53773620
H    4.04437558  -2.67220901  -0.99820683
C    2.34678773  -1.50903188  -1.61484679
N    1.39821659  -0.90507360  -1.39092996
C    1.65631555  -1.29843330   3.85824780
H    2.23355485  -0.59854994   4.42557332
H    2.30281741  -2.04884822   3.45351101
H    0.92914011  -1.75911851   4.49376657
C    0.94163081  -0.56266198   2.70956756
N    0.40951553  -0.01484679   1.85432291
