28
Energy:   -398.56708242
Na  -0.26895284   0.70972516   0.23595615
O   -1.05487096   2.78366231   0.92539996
H   -1.95249977   3.11345290   0.88377630
H   -0.55375479   3.50021085   1.31485165
C    4.53682793   1.66692723   1.56566627
H    5.07623974   0.77882088   1.31031906
H    4.62737581   1.84963355   2.61605599
H    4.93911353   2.49692424   1.02329153
C    3.05116373   1.48760041   1.20201290
N    1.94501921   1.35408343   0.93125644
C   -0.08002819  -3.35584933   3.27112037
H   -0.68293722  -4.14023255   2.86351291
H   -0.45291948  -3.08440988   4.23661082
H    0.93127076  -3.69353136   3.36136647
C   -0.13111979  -2.13158187   2.33829733
N   -0.16915981  -1.22005909   1.64376817
C   -4.81975168  -0.92027758  -1.31749125
H   -5.52299452  -0.95604645  -0.51184227
H   -4.64786346  -1.91033472  -1.68510570
H   -5.21030002  -0.31020642  -2.10500904
C   -3.49289821  -0.32190030  -0.81449572
N   -2.50499549   0.12361878  -0.43999268
C    1.43255221  -0.21331995  -4.45762289
H    1.36003151   0.68476901  -5.03475125
H    0.84015201  -0.97898110  -4.91339049
H    2.45395191  -0.52949850  -4.41672202
C    0.91948832   0.05114420  -3.02988897
N    0.53748893   0.24804979  -1.96687616
