28
Energy:   -378.72739855
Na  -0.05116195   1.18120551  -0.29727430
O   -0.63144033   3.03666729   1.00938661
H   -1.39421223   3.61492221   1.00371782
H    0.09010844   3.59405689   1.30079021
C   -2.30816838  -2.64217732   2.86272166
H   -2.17601876  -2.36731366   3.88833690
H   -1.81728136  -3.57466783   2.67727500
H   -3.35249319  -2.74068424   2.65157910
C   -1.70182730  -1.55390798   1.95739280
N   -1.25037880  -0.74364199   1.28333431
C   -3.39337383  -1.65820878  -2.11750785
H   -3.32866433  -2.33476772  -1.29108129
H   -3.09100674  -2.15935231  -3.01323572
H   -4.40260725  -1.31851745  -2.22218254
C   -2.46914637  -0.45209703  -1.86711204
N   -1.78101702   0.44590799  -1.68068098
C    4.01750155   4.04096595  -1.48155690
H    3.83318441   5.07469883  -1.27582965
H    4.22005732   3.91549973  -2.52469087
H    4.86025127   3.70871932  -0.91209735
C    2.77831973   3.21192621  -1.09591258
N    1.85569254   2.59466844  -0.80878286
C    2.15185455  -3.15619334   0.32228396
H    2.24405589  -3.14229310   1.38821354
H    3.08457642  -3.44911110  -0.11260473
H    1.39157560  -3.85382531   0.03911503
C    1.77096394  -1.75054565  -0.17839251
N    1.48737357  -0.70397706  -0.55116889
