28
Energy:   -388.02109780
Na  -0.12159015  -0.62185194   0.61619642
O   -1.67121664  -1.79771651   1.94345049
H   -1.62637935  -2.55423634   2.52817198
H   -2.59029439  -1.53121091   1.96587138
C   -3.47506699   3.22856414   0.50314695
H   -2.96495911   3.95178774   1.10451020
H   -4.42920450   3.01319421   0.93689399
H   -3.61177371   3.61811810  -0.48399948
C   -2.63923927   1.93696568   0.43411471
N   -2.01692754   0.97531192   0.38271708
C    0.50065714   0.22592274  -4.42065528
H    1.04263847   1.13974103  -4.54751170
H   -0.43456016   0.29137530  -4.93639132
H    1.07200176  -0.58597035  -4.81977184
C    0.24431336  -0.01497655  -2.92137031
N    0.05345377  -0.19433702  -1.80508451
C    2.13865334   2.77076383   3.72774635
H    1.62105369   2.71640848   4.66264542
H    2.07437986   3.76668385   3.34185604
H    3.16620502   2.51027567   3.87328862
C    1.49720825   1.79052104   2.72811028
N    1.01962323   1.06068572   1.98383579
C    2.37001397  -4.27734851  -1.84127193
H    1.61385718  -4.57799623  -2.53606546
H    2.80131985  -5.14440552  -1.38620439
H    3.13075840  -3.72945834  -2.35700768
C    1.74265199  -3.38527727  -0.75396982
N    1.27555249  -2.72108969   0.05557602
