28
Energy:   -385.22108760
Na  -0.60940851   0.69418386  -0.45138781
O   -1.01325176   2.00302240  -2.43365557
H   -0.98245844   2.95386573  -2.53939391
H   -1.35801924   1.68001952  -3.26614363
C    2.33328181  -3.39870748  -1.10351813
H    2.07431306  -3.87967480  -2.02357563
H    2.33340857  -4.11896793  -0.31223818
H    3.30708609  -2.96385119  -1.19014575
C    1.30426875  -2.29570345  -0.79349514
N    0.53812176  -1.47446682  -0.56266893
C   -4.88298125  -2.18421084  -1.18134810
H   -5.69149668  -1.53634324  -1.44868787
H   -5.13640229  -2.72256891  -0.29205205
H   -4.70183847  -2.87574434  -1.97750625
C   -3.61529451  -1.34652991  -0.93062716
N   -2.67144411  -0.72283838  -0.74395402
C   -0.45361249   2.67089529   4.18491835
H    0.31193554   3.41737329   4.14483107
H   -0.15600640   1.89034705   4.85355440
H   -1.36383955   3.11188024   4.53408602
C   -0.67371351   2.08524121   2.77773505
N   -0.83758872   1.64919514   1.73002311
C    4.31948366   0.72134054   0.38562117
H    4.62419787  -0.04934981  -0.29119920
H    4.32962159   0.34195476   1.38605245
H    4.99392560   1.54866608   0.31105838
C    2.89563715   1.18586094   0.02717743
N    1.83551871   1.53171750  -0.23970024
