28
Energy:   -378.75772143
Na   0.23602326   0.85410538   0.04936241
O    2.04995156   2.24629796  -0.14368623
H    2.69027799   2.40776964   0.54923570
H    2.33921724   2.79736594  -0.87092847
C   -1.64321071   3.38968392   4.02704834
H   -1.84642862   2.87349380   4.94200759
H   -2.54853227   3.81812642   3.65057922
H   -0.92894562   4.16590547   4.20650465
C   -1.07574935   2.39879436   2.99374031
N   -0.65324858   1.66103204   2.22439552
C    2.36177922  -3.50094999   1.80444158
H    2.17749596  -4.26886947   1.08247237
H    1.90277201  -3.76734226   2.73355225
H    3.41655897  -3.39058869   1.94642451
C    1.76954118  -2.17114965   1.30196255
N    1.32859304  -1.18105286   0.92784407
C    1.20169967  -3.27762090  -2.58741264
H    1.84579866  -3.42725196  -3.42863035
H    0.25489632  -3.73875742  -2.77666281
H    1.64409977  -3.71553148  -1.71711639
C    1.00064188  -1.76830559  -2.35688483
N    0.85094521  -0.64455174  -2.18524640
C   -3.78347919   0.94139710  -3.08581680
H   -3.48937648   0.17262343  -3.76947668
H   -3.86079383   1.87230959  -3.60766301
H   -4.73168218   0.69332803  -2.65654775
C   -2.73078659   1.06507261  -1.96861375
N   -1.94700910   1.15715466  -1.13680530
