28
Energy:   -379.21470801
Na  -0.16159793  -0.81960850  -1.27183567
O   -0.11937085  -0.84814152  -3.64665012
H   -0.12872712  -0.01576678  -4.11919282
H   -0.09341245  -1.51395513  -4.33385477
C   -1.56603870  -5.37293548   0.71879674
H   -1.10104247  -5.47751815   1.67678482
H   -1.20873658  -6.13947100   0.06331404
H   -2.62701822  -5.46110861   0.82578760
C   -1.22251563  -3.99227060   0.12942724
N   -0.96674709  -2.96430285  -0.30938514
C   -0.34457199   1.19734929   3.51859832
H   -0.15910623   0.39858858   4.20597301
H   -1.33135879   1.58043027   3.67480289
H    0.37019740   1.97762644   3.67725320
C   -0.22000209   0.67260062   2.07612781
N   -0.12725415   0.28190138   1.00214295
C   -1.71263311   3.83176422  -0.46953705
H   -2.13517267   3.80130695   0.51302737
H   -2.33840099   4.41878359  -1.10885067
H   -0.73740673   4.26976819  -0.42498222
C   -1.60745079   2.40033001  -1.02768827
N   -1.52913778   1.33456217  -1.44325722
C    3.86791229   1.49274675   0.26759145
H    3.73204986   1.25759514   1.30255295
H    3.68683659   2.53578181   0.11206475
H    4.87049589   1.25758744  -0.02296891
C    2.88109362   0.66845068  -0.57994904
N    2.14636226   0.05472478  -1.21098146
