10
Energy:   -327.36566474
O   -2.02630746  -0.50838442   0.78577426
H   -2.93857307  -0.46438060   0.49930095
H   -2.06769552  -0.89632066   1.65985913
O    0.92953107   0.25365666  -1.88108574
H    1.76749259  -0.15571966  -2.09663936
H    0.91118569   1.05374220  -2.40621279
O    0.93360694   0.23265428   1.07121394
H    1.71102138   0.58718607   0.63974453
H    1.21420682   0.06411016   1.97070738
Li  -0.38957919  -0.17426721  -0.25888281
