10
Energy:   -324.92909872
O   -1.80895568  -0.26366702  -1.17502359
H   -2.16132553   0.28988162  -1.87191041
H   -2.46918731  -0.94599203  -1.05353845
O    0.34646178  -1.19441168   1.06493707
H    0.06906023  -0.69858824   1.83528720
H    0.62603401  -2.04132403   1.41251539
O    1.46261893   1.36754999   0.01805905
H    2.01892058   1.40718279   0.79599836
H    1.68113289   2.15909617  -0.47381302
Li   0.26527665  -0.03417126  -0.56655415
