10
Energy:   -320.66243343
O   -0.09833430  -1.41951877   1.39850988
H   -0.86134850  -1.93279177   1.66420145
H    0.20640958  -1.00670770   2.20656312
O   -0.48892500  -0.59051315  -1.91832589
H   -1.22115026  -0.23287271  -2.42049253
H   -0.45243308  -1.51301592  -2.17108830
O    0.79065415   1.85624272   0.38829712
H    1.59070111   2.26879545   0.06278683
H    0.35299832   2.54399315   0.88998283
Li   0.07936906   0.12449537  -0.03228047
