13
Energy:   -312.97145981
O   -3.33646496   0.34527940   1.38319739
H   -3.74606261   1.04757842   1.88840794
H   -4.02156266  -0.31723252   1.29402924
O    2.59117954  -0.40379430  -0.94634109
H    3.02041945  -0.96612618  -1.59114168
H    3.27315880   0.20837805  -0.66996969
O   -0.02591645   1.33572157  -1.00579183
H   -0.05721777   2.18390312  -1.44833011
H    0.67891489   0.86102743  -1.44637111
O    0.58610703  -1.29108756   0.69562038
H    0.78748743  -2.15575977   1.05341886
H    1.35979258  -1.05746461   0.18272387
Na  -1.13789584   0.24495545   0.61067201
