13
Energy:   -312.10972465
O   -1.70692593  -1.64916554   1.42994190
H   -1.47391660  -2.56330471   1.59207789
H   -2.60574177  -1.57029230   1.74953687
O    2.15648334   1.80138310  -2.07518195
H    2.62412988   1.54957620  -2.87150591
H    2.35011254   2.73258404  -1.96745826
O    0.78670979   0.69466712   1.58341178
H    1.35395380   1.05094939   2.26717272
H    0.10376720   0.22270896   2.05993749
O   -1.12384930  -0.72236507  -1.06947837
H   -1.76247695  -0.98113974  -1.73387452
H   -1.44141207  -1.12548726  -0.26146956
Na   0.76454286   0.55485838  -0.71223653
