13
Energy:   -310.89573770
O    1.43758561  -2.24227558   1.12303828
H    1.12135158  -3.13673985   1.25016640
H    2.32670096  -2.24941800   1.47751636
O   -1.37928700   2.56816491  -1.88269221
H   -2.25362870   2.86825785  -2.13109239
H   -0.78319310   3.16554952  -2.33439514
O    0.65973640  -0.89284242  -1.11484483
H    0.98006829  -1.41247266  -0.37754994
H    1.11752180  -1.24898705  -1.87630749
O   -0.86020723   0.61808700   1.75183670
H   -0.24805823   0.10082081   2.27523057
H   -1.33225713   1.15098439   2.39169692
Na  -0.79942045   0.77037452  -0.54778771
