13
Energy:   -311.58142241
O   -1.97698172   1.68875289   1.20149288
H   -2.66054565   1.31645555   1.75859869
H   -2.08436128   2.63575987   1.29025813
O    2.16446039  -2.20803363  -1.85803557
H    2.71851659  -1.90615292  -2.57784221
H    2.31570133  -3.15238418  -1.81853813
O    1.09313542   0.26618194   1.41452737
H    1.73546549   0.08704208   2.10122442
H    0.56285278   0.98284791   1.76298404
O   -1.20681148   0.16289100  -0.90468615
H   -1.90408474   0.18624284  -1.56004601
H   -1.51775562   0.73483722  -0.20295750
Na   0.81229023  -0.84057381  -0.59431795
