13
Energy:   -311.51473195
O   -1.31921400  -1.09632783   0.42676791
H   -0.79831134  -1.20921555   1.22184566
H   -2.13214713  -1.56986680   0.60321172
O   -1.61344486   1.46919097  -2.84884955
H   -1.52757763   1.55618056  -3.79821327
H   -2.27514011   2.11731568  -2.60734261
O    1.48546497   0.61523159  -0.04361832
H    1.53914995   0.04645765   0.72439599
H    2.38189471   0.92302734  -0.17743662
O    1.43807913  -0.94509032   2.22453433
H    1.95061396  -1.69944360   2.51520775
H    1.26847982  -0.44755694   3.02448961
Na  -0.44316237   0.24434344  -1.27837763
