13
Energy:   -311.58619997
O   -0.54544278   0.94781740   2.20865867
H   -0.91048258   1.83266608   2.20412003
H   -0.99443101   0.50667830   2.92979507
O   -1.77047183  -0.43830531  -0.96158645
H   -2.47305422   0.17876811  -1.16611082
H   -2.13731403  -1.29742839  -1.17031160
O    1.48902735   1.59821977  -1.69359404
H    1.86230523   2.47921877  -1.66646053
H    1.87960165   1.19588180  -2.46935671
O    0.90776283  -2.06677436   0.45660243
H    0.83424109  -2.45612627   1.32794134
H    1.56641105  -2.59923235   0.01061715
Na   0.27939078   0.10857246  -0.01784421
