
                                 *****************
                                 * O   R   C   A *
                                 *****************

           --- An Ab Initio, DFT and Semiempirical electronic structure package ---

                  #######################################################
                  #                        -***-                        #
                  #          Department of theory and spectroscopy      #
                  #               Directorship: Frank Neese             #
                  #        Max Planck Institute fuer Kohlenforschung    #
                  #                Kaiser Wilhelm Platz 1               #
                  #                 D-45470 Muelheim/Ruhr               #
                  #                      Germany                        #
                  #                                                     #
                  #                  All rights reserved                #
                  #                        -***-                        #
                  #######################################################


                         Program Version 4.2.0 -  RELEASE  -


 With contributions from (in alphabetic order):
   Daniel Aravena         : Magnetic Suceptibility
   Michael Atanasov       : Ab Initio Ligand Field Theory (pilot matlab implementation)
   Alexander A. Auer      : GIAO ZORA, VPT2
   Ute Becker             : Parallelization
   Giovanni Bistoni       : ED, misc. LED, open-shell LED, HFLED
   Martin Brehm           : Molecular dynamics
   Dmytro Bykov           : SCF Hessian
   Vijay G. Chilkuri      : MRCI spin determinant printing, contributions to CSF-ICE
   Dipayan Datta          : RHF DLPNO-CCSD density
   Achintya Kumar Dutta   : EOM-CC, STEOM-CC
   Dmitry Ganyushin       : Spin-Orbit,Spin-Spin,Magnetic field MRCI
   Miquel Garcia          : C-PCM Hessian, Gaussian charge scheme
   Yang Guo               : DLPNO-NEVPT2, CIM, IAO-localization
   Andreas Hansen         : Spin unrestricted coupled pair/coupled cluster methods
   Benjamin Helmich-Paris : CASSCF linear response (MC-RPA)
   Lee Huntington         : MR-EOM, pCC
   Robert Izsak           : Overlap fitted RIJCOSX, COSX-SCS-MP3, EOM
   Christian Kollmar      : KDIIS, OOCD, Brueckner-CCSD(T), CCSD density
   Simone Kossmann        : Meta GGA functionals, TD-DFT gradient, OOMP2, MP2 Hessian
   Martin Krupicka        : AUTO-CI
   Lucas Lang             : DCDCAS
   Dagmar Lenk            : GEPOL surface, SMD
   Dimitrios Liakos       : Extrapolation schemes; Compound Job, initial MDCI parallelization
   Dimitrios Manganas     : Further ROCIS development; embedding schemes
   Dimitrios Pantazis     : SARC Basis sets
   Taras Petrenko         : DFT Hessian,TD-DFT gradient, ASA, ECA, R-Raman, ABS, FL, XAS/XES, NRVS
   Peter Pinski           : DLPNO-MP2, DLPNO-MP2 Gradient
   Christoph Reimann      : Effective Core Potentials
   Marius Retegan         : Local ZFS, SOC
   Christoph Riplinger    : Optimizer, TS searches, QM/MM, DLPNO-CCSD(T), (RO)-DLPNO pert. Triples
   Tobias Risthaus        : Range-separated hybrids, TD-DFT gradient, RPA, STAB
   Michael Roemelt        : Original ROCIS implementation
   Masaaki Saitow         : Open-shell DLPNO-CCSD energy and density
   Barbara Sandhoefer     : DKH picture change effects
   Avijit Sen             : IP-ROCIS
   Kantharuban Sivalingam : CASSCF convergence, NEVPT2, FIC-MRCI
   Bernardo de Souza      : ESD, SOC TD-DFT
   Georgi Stoychev        : AutoAux, RI-MP2 NMR
   Willem Van den Heuvel  : Paramagnetic NMR
   Boris Wezisla          : Elementary symmetry handling
   Frank Wennmohs         : Technical directorship


 We gratefully acknowledge several colleagues who have allowed us to
 interface, adapt or use parts of their codes:
   Stefan Grimme, W. Hujo, H. Kruse,             : VdW corrections, initial TS optimization,
                  C. Bannwarth                     DFT functionals, gCP, sTDA/sTD-DF
   Ed Valeev, F. Pavosevic, A. Kumar             : LibInt (2-el integral package), F12 methods
   Garnet Chan, S. Sharma, J. Yang, R. Olivares  : DMRG
   Ulf Ekstrom                                   : XCFun DFT Library
   Mihaly Kallay                                 : mrcc  (arbitrary order and MRCC methods)
   Andreas Klamt, Michael Diedenhofen            : otool_cosmo (COSMO solvation model)
   Jiri Pittner, Ondrej Demel                    : Mk-CCSD
   Frank Weinhold                                : gennbo (NPA and NBO analysis)
   Christopher J. Cramer and Donald G. Truhlar   : smd solvation model
   Lars Goerigk                                  : TD-DFT with DH, B97 family of functionals
   V. Asgeirsson, H. Jonsson                     : NEB implementation
   FAccTs GmbH                                   : IRC, NEB, NEB-TS, Multilevel, MM, QM/MM, CI optimization
   S Lehtola, MJT Oliveira, MAL Marques          : LibXC Library


 Your calculation uses the libint2 library for the computation of 2-el integrals
 For citations please refer to: http://libint.valeyev.net

 Your ORCA version has been built with support for libXC version: 4.2.3
 For citations please refer to: https://tddft.org/programs/libxc/

 This ORCA versions uses:
   CBLAS   interface :  Fast vector & matrix operations
   LAPACKE interface :  Fast linear algebra routines
   SCALAPACK package :  Parallel linear algebra routines


----- Orbital basis set information -----
Your calculation utilizes the basis: def2-TZVP
   F. Weigend and R. Ahlrichs, Phys. Chem. Chem. Phys. 7, 3297 (2005).

================================================================================
                                        WARNINGS
                       Please study these warnings very carefully!
================================================================================


WARNING: The frozen-core approximation for MP2-gradient calculations is turned on by default.

INFO   : the flag for use of LIBINT has been found!

================================================================================
                                       INPUT FILE
================================================================================
NAME = 12h2o.su.etal.mol0,1,2,5,6,7,8,9,11-orca.engrad-mp2.def2tzvp.frozencore.inp
|  1> # 12h2o.su.etal.mol0,1,2,5,6,7,8,9,11
|  2> ! MP2 def2-TZVP EnGrad TightSCF
|  3> 
|  4> %pal
|  5>     nprocs 6
|  6> end
|  7> 
|  8> %maxcore 8000
|  9> 
| 10> %scf
| 11>     ConvForced true
| 12> end
| 13> 
| 14> *xyz 0 1
| 15> O   1.794470000   0.923410000   2.768350000
| 16> H   2.338250000   1.359750000   3.430940000
| 17> H   0.879480000   1.303000000   2.865760000
| 18> O  -1.794470000  -0.923410000   2.768350000
| 19> H  -2.338250000  -1.359750000   3.430940000
| 20> H  -0.879480000  -1.303000000   2.865760000
| 21> O   0.923410000  -1.794470000  -2.768350000
| 22> H   1.359750000  -2.338250000  -3.430940000
| 23> H   1.303000000  -0.879480000  -2.865760000
| 24> O   0.885520000  -1.737840000   0.052730000
| 25> H   1.284090000  -0.839590000   0.017130000
| 26> H   1.032320000  -2.090180000  -0.841890000
| 27> O   1.737840000   0.885520000  -0.052730000
| 28> H   2.090180000   1.032320000   0.841890000
| 29> H   0.839590000   1.284090000  -0.017130000
| 30> O  -1.737840000  -0.885520000  -0.052730000
| 31> H  -2.090180000  -1.032320000   0.841890000
| 32> H  -0.839590000  -1.284090000  -0.017130000
| 33> O   1.752130000   0.741530000  -2.896280000
| 34> H   2.036450000   0.920500000  -1.984040000
| 35> H   0.921210000   1.242140000  -2.984230000
| 36> O   0.741530000  -1.752130000   2.896280000
| 37> H   0.920500000  -2.036450000   1.984040000
| 38> H   1.242140000  -0.921210000   2.984230000
| 39> O  -0.741530000   1.752130000   2.896280000
| 40> H  -0.920500000   2.036450000   1.984040000
| 41> H  -1.242140000   0.921210000   2.984230000
| 42> *
| 43> 
| 44>                          ****END OF INPUT****
================================================================================

                     *******************************
                     * Energy+Gradient Calculation *
                     *******************************

---------------------------------
CARTESIAN COORDINATES (ANGSTROEM)
---------------------------------
  O      1.794470    0.923410    2.768350
  H      2.338250    1.359750    3.430940
  H      0.879480    1.303000    2.865760
  O     -1.794470   -0.923410    2.768350
  H     -2.338250   -1.359750    3.430940
  H     -0.879480   -1.303000    2.865760
  O      0.923410   -1.794470   -2.768350
  H      1.359750   -2.338250   -3.430940
  H      1.303000   -0.879480   -2.865760
  O      0.885520   -1.737840    0.052730
  H      1.284090   -0.839590    0.017130
  H      1.032320   -2.090180   -0.841890
  O      1.737840    0.885520   -0.052730
  H      2.090180    1.032320    0.841890
  H      0.839590    1.284090   -0.017130
  O     -1.737840   -0.885520   -0.052730
  H     -2.090180   -1.032320    0.841890
  H     -0.839590   -1.284090   -0.017130
  O      1.752130    0.741530   -2.896280
  H      2.036450    0.920500   -1.984040
  H      0.921210    1.242140   -2.984230
  O      0.741530   -1.752130    2.896280
  H      0.920500   -2.036450    1.984040
  H      1.242140   -0.921210    2.984230
  O     -0.741530    1.752130    2.896280
  H     -0.920500    2.036450    1.984040
  H     -1.242140    0.921210    2.984230

----------------------------
CARTESIAN COORDINATES (A.U.)
----------------------------
  NO LB      ZA    FRAG     MASS         X           Y           Z
   0 O     8.0000    0    15.999    3.391057    1.744992    5.231423
   1 H     1.0000    0     1.008    4.418652    2.569555    6.483537
   2 H     1.0000    0     1.008    1.661976    2.462313    5.415502
   3 O     8.0000    0    15.999   -3.391057   -1.744992    5.231423
   4 H     1.0000    0     1.008   -4.418652   -2.569555    6.483537
   5 H     1.0000    0     1.008   -1.661976   -2.462313    5.415502
   6 O     8.0000    0    15.999    1.744992   -3.391057   -5.231423
   7 H     1.0000    0     1.008    2.569555   -4.418652   -6.483537
   8 H     1.0000    0     1.008    2.462313   -1.661976   -5.415502
   9 O     8.0000    0    15.999    1.673390   -3.284042    0.099645
  10 H     1.0000    0     1.008    2.426578   -1.586595    0.032371
  11 H     1.0000    0     1.008    1.950802   -3.949868   -1.590942
  12 O     8.0000    0    15.999    3.284042    1.673390   -0.099645
  13 H     1.0000    0     1.008    3.949868    1.950802    1.590942
  14 H     1.0000    0     1.008    1.586595    2.426578   -0.032371
  15 O     8.0000    0    15.999   -3.284042   -1.673390   -0.099645
  16 H     1.0000    0     1.008   -3.949868   -1.950802    1.590942
  17 H     1.0000    0     1.008   -1.586595   -2.426578   -0.032371
  18 O     8.0000    0    15.999    3.311046    1.401289   -5.473176
  19 H     1.0000    0     1.008    3.848333    1.739493   -3.749292
  20 H     1.0000    0     1.008    1.740835    2.347304   -5.639377
  21 O     8.0000    0    15.999    1.401289   -3.311046    5.473176
  22 H     1.0000    0     1.008    1.739493   -3.848333    3.749292
  23 H     1.0000    0     1.008    2.347304   -1.740835    5.639377
  24 O     8.0000    0    15.999   -1.401289    3.311046    5.473176
  25 H     1.0000    0     1.008   -1.739493    3.848333    3.749292
  26 H     1.0000    0     1.008   -2.347304    1.740835    5.639377

--------------------------------
INTERNAL COORDINATES (ANGSTROEM)
--------------------------------
 O      0   0   0     0.000000000000     0.00000000     0.00000000
 H      1   0   0     0.961828878803     0.00000000     0.00000000
 H      1   2   0     0.995381322057   106.21731035     0.00000000
 O      3   1   2     3.480861789658   117.35405144   223.81249033
 H      4   3   1     0.961828878803   134.84484566    98.22461471
 H      4   3   1     0.995381322057    62.29205096    12.66575463
 O      6   4   3     5.935920367146   102.58474291   273.48279218
 H      7   6   4     0.961828878803   146.97742434   224.01286022
 H      7   6   4     0.995381322057    97.62005672    87.72090689
 O      7   6   4     2.821902722526    17.32744736   169.52589616
 H     10   7   6     0.983350632989    88.66470709   258.45499027
 H     10   7   6     0.972645187106    21.75017499   124.29821266
 O     11  10   7     1.785153773264   170.81379649    89.95043540
 H     13  11  10     0.972645187106   101.65007623   109.44492584
 H     13  11  10     0.983350632989    99.09581498     3.33484705
 O     10   7   6     2.760360281485    88.89773968   354.32454084
 H     16  10   7     0.972645187106   105.22009255   163.79109705
 H     16  10   7     0.983350632989     5.92595386    88.14524976
 O      9   7   6     1.682356278379   171.61043709   321.17145860
 H     19   9   7     0.972136791249   103.79460456    70.64587838
 H     19   9   7     0.974050112161   105.61118924   321.69395179
 O      6   4   3     1.682356278379   171.61043709   328.33166207
 H     22   6   4     0.972136791249   103.79460456   289.35412162
 H     22   6   4     0.974050112161   105.61118924    38.30604821
 O      3   1   2     1.682356278379   171.61043709   195.73896161
 H     25   3   1     0.972136791249   103.79460456   289.35412162
 H     25   3   1     0.974050112161   105.61118924    38.30604821

---------------------------
INTERNAL COORDINATES (A.U.)
---------------------------
 O      0   0   0     0.000000000000     0.00000000     0.00000000
 H      1   0   0     1.817593168635     0.00000000     0.00000000
 H      1   2   0     1.880998097508   106.21731035     0.00000000
 O      3   1   2     6.577875492484   117.35405144   223.81249033
 H      4   3   1     1.817593168635   134.84484566    98.22461471
 H      4   3   1     1.880998097508    62.29205096    12.66575463
 O      6   4   3    11.217263846671   102.58474291   273.48279218
 H      7   6   4     1.817593168635   146.97742434   224.01286022
 H      7   6   4     1.880998097508    97.62005672    87.72090689
 O      7   6   4     5.332623322141    17.32744736   169.52589616
 H     10   7   6     1.858263389967    88.66470709   258.45499027
 H     10   7   6     1.838033029106    21.75017499   124.29821266
 O     11  10   7     3.373451738406   170.81379649    89.95043540
 H     13  11  10     1.838033029106   101.65007623   109.44492584
 H     13  11  10     1.858263389967    99.09581498     3.33484705
 O     10   7   6     5.216324962960    88.89773968   354.32454084
 H     16  10   7     1.838033029106   105.22009255   163.79109705
 H     16  10   7     1.858263389967     5.92595386    88.14524976
 O      9   7   6     3.179192625819   171.61043709   321.17145860
 H     19   9   7     1.837072300170   103.79460456    70.64587838
 H     19   9   7     1.840687952699   105.61118924   321.69395179
 O      6   4   3     3.179192625819   171.61043709   328.33166207
 H     22   6   4     1.837072300170   103.79460456   289.35412162
 H     22   6   4     1.840687952699   105.61118924    38.30604821
 O      3   1   2     3.179192625819   171.61043709   195.73896161
 H     25   3   1     1.837072300170   103.79460456   289.35412162
 H     25   3   1     1.840687952699   105.61118924    38.30604821

---------------------
BASIS SET INFORMATION
---------------------
There are 2 groups of distinct atoms

 Group   1 Type O   : 11s6p2d1f contracted to 5s3p2d1f pattern {62111/411/11/1}
 Group   2 Type H   : 5s1p contracted to 3s1p pattern {311/1}

Atom   0O    basis set group =>   1
Atom   1H    basis set group =>   2
Atom   2H    basis set group =>   2
Atom   3O    basis set group =>   1
Atom   4H    basis set group =>   2
Atom   5H    basis set group =>   2
Atom   6O    basis set group =>   1
Atom   7H    basis set group =>   2
Atom   8H    basis set group =>   2
Atom   9O    basis set group =>   1
Atom  10H    basis set group =>   2
Atom  11H    basis set group =>   2
Atom  12O    basis set group =>   1
Atom  13H    basis set group =>   2
Atom  14H    basis set group =>   2
Atom  15O    basis set group =>   1
Atom  16H    basis set group =>   2
Atom  17H    basis set group =>   2
Atom  18O    basis set group =>   1
Atom  19H    basis set group =>   2
Atom  20H    basis set group =>   2
Atom  21O    basis set group =>   1
Atom  22H    basis set group =>   2
Atom  23H    basis set group =>   2
Atom  24O    basis set group =>   1
Atom  25H    basis set group =>   2
Atom  26H    basis set group =>   2


           ************************************************************
           *        Program running with 6 parallel MPI-processes     *
           *              working on a common directory               *
           ************************************************************
------------------------------------------------------------------------------
                           ORCA GTO INTEGRAL CALCULATION
------------------------------------------------------------------------------

                         BASIS SET STATISTICS AND STARTUP INFO

 # of primitive gaussian shells          ...  288
 # of primitive gaussian functions       ...  558
 # of contracted shells                  ...  171
 # of contracted basis functions         ...  387
 Highest angular momentum                ...    3
 Maximum contraction depth               ...    6
 Integral package used                   ... LIBINT
 Integral threshhold            Thresh   ...  2.500e-11
 Primitive cut-off              TCut     ...  2.500e-12


------------------------------ INTEGRAL EVALUATION ----------------------------


 * One electron integrals 
 Pre-screening matrix                    ... done
 Shell pair data                         ... done (   0.003 sec)



           ************************************************************
           *        Program running with 6 parallel MPI-processes     *
           *              working on a common directory               *
           ************************************************************
-------------------------------------------------------------------------------
                                 ORCA SCF
-------------------------------------------------------------------------------

------------
SCF SETTINGS
------------
Hamiltonian:
 Ab initio Hamiltonian  Method          .... Hartree-Fock(GTOs)


General Settings:
 Integral files         IntName         .... 12h2o.su.etal.mol0,1,2,5,6,7,8,9,11-orca.engrad-mp2.def2tzvp.frozencore
 Hartree-Fock type      HFTyp           .... RHF
 Total Charge           Charge          ....    0
 Multiplicity           Mult            ....    1
 Number of Electrons    NEL             ....   90
 Basis Dimension        Dim             ....  387
 Nuclear Repulsion      ENuc            ....    585.5217993942 Eh

Convergence Acceleration:
 DIIS                   CNVDIIS         .... on
   Start iteration      DIISMaxIt       ....    12
   Startup error        DIISStart       ....  0.200000
   # of expansion vecs  DIISMaxEq       ....     5
   Bias factor          DIISBfac        ....   1.050
   Max. coefficient     DIISMaxC        ....  10.000
 Newton-Raphson         CNVNR           .... off
 SOSCF                  CNVSOSCF        .... on
   Start iteration      SOSCFMaxIt      ....   150
   Startup grad/error   SOSCFStart      ....  0.003300
 Level Shifting         CNVShift        .... on
   Level shift para.    LevelShift      ....    0.2500
   Turn off err/grad.   ShiftErr        ....    0.0010
 Zerner damping         CNVZerner       .... off
 Static damping         CNVDamp         .... on
   Fraction old density DampFac         ....    0.7000
   Max. Damping (<1)    DampMax         ....    0.9800
   Min. Damping (>=0)   DampMin         ....    0.0000
   Turn off err/grad.   DampErr         ....    0.1000
 Fernandez-Rico         CNVRico         .... off

SCF Procedure:
 Maximum # iterations   MaxIter         ....   125
 SCF integral mode      SCFMode         .... Direct
   Integral package                     .... LIBINT
 Reset frequency        DirectResetFreq ....    20
 Integral Threshold     Thresh          ....  2.500e-11 Eh
 Primitive CutOff       TCut            ....  2.500e-12 Eh

Convergence Tolerance:
 Convergence Check Mode ConvCheckMode   .... Total+1el-Energy
 Convergence forced     ConvForced      .... 1
 Energy Change          TolE            ....  1.000e-08 Eh
 1-El. energy change                    ....  1.000e-05 Eh
 Orbital Gradient       TolG            ....  1.000e-05
 Orbital Rotation angle TolX            ....  1.000e-05
 DIIS Error             TolErr          ....  5.000e-07


Diagonalization of the overlap matrix:
Smallest eigenvalue                        ... 3.317e-03
Time for diagonalization                   ...    0.022 sec
Threshold for overlap eigenvalues          ... 1.000e-08
Number of eigenvalues below threshold      ... 0
Time for construction of square roots      ...    0.011 sec
Total time needed                          ...    0.033 sec

-------------------
DFT GRID GENERATION
-------------------

General Integration Accuracy     IntAcc      ...  4.340
Radial Grid Type                 RadialGrid  ... Gauss-Chebyshev
Angular Grid (max. acc.)         AngularGrid ... Lebedev-110
Angular grid pruning method      GridPruning ... 3 (G Style)
Weight generation scheme         WeightScheme... Becke
Basis function cutoff            BFCut       ...    1.0000e-11
Integration weight cutoff        WCut        ...    1.0000e-14
Grids for H and He will be reduced by one unit

# of grid points (after initial pruning)     ...  29736 (   0.0 sec)
# of grid points (after weights+screening)   ...  27440 (   0.0 sec)
nearest neighbour list constructed           ...    0.0 sec
Grid point re-assignment to atoms done       ...    0.0 sec
Grid point division into batches done        ...    0.0 sec
Reduced shell lists constructed in    0.1 sec

Total number of grid points                  ...    27440
Total number of batches                      ...      442
Average number of points per batch           ...       62
Average number of grid points per atom       ...     1016
Average number of shells per batch           ...    78.79 (46.07%)
Average number of basis functions per batch  ...   156.84 (40.53%)
Average number of large shells per batch     ...    52.20 (66.25%)
Average number of large basis fcns per batch ...   100.63 (64.16%)
Maximum spatial batch extension              ...  13.26, 17.21, 11.85 au
Average spatial batch extension              ...   0.55,  0.63,  0.54 au

Time for grid setup =    0.112 sec

------------------------------
INITIAL GUESS: MODEL POTENTIAL
------------------------------
Loading Hartree-Fock densities                     ... done
Calculating cut-offs                               ... done
Setting up the integral package                    ... done
Initializing the effective Hamiltonian             ... done
Starting the Coulomb interaction                   ... done (   0.1 sec)
Reading the grid                                   ... done
Mapping shells                                     ... done
Starting the XC term evaluation                    ... done (   0.1 sec)
Transforming the Hamiltonian                       ... done (   0.0 sec)
Diagonalizing the Hamiltonian                      ... done (   0.0 sec)
Back transforming the eigenvectors                 ... done (   0.0 sec)
Now organizing SCF variables                       ... done
                      ------------------
                      INITIAL GUESS DONE (   0.3 sec)
                      ------------------
--------------
SCF ITERATIONS
--------------
ITER       Energy         Delta-E        Max-DP      RMS-DP      [F,P]     Damp
               ***  Starting incremental Fock matrix formation  ***
  0   -683.8469455845   0.000000000000 0.04475386  0.00077446  0.3438978 0.7000
  1   -684.1361073117  -0.289161727183 0.02970092  0.00053886  0.2165597 0.7000
                               ***Turning on DIIS***
  2   -684.2907767326  -0.154669420882 0.01641487  0.00030504  0.1633949 0.7000
  3   -685.7429883016  -1.452211568999 0.00759599  0.00014375  0.1217938 0.7000
  4   -685.4515260537   0.291462247896 0.01710953  0.00033397  0.0861624 0.0000
  5   -684.6425584962   0.808967557505 0.00220720  0.00005255  0.0055550 0.0000
                      *** Initiating the SOSCF procedure ***
                           *** Shutting down DIIS ***
                      *** Re-Reading the Fockian *** 
                      *** Removing any level shift *** 
ITER      Energy       Delta-E        Grad      Rot      Max-DP    RMS-DP
  6   -684.60262255   0.0399359463  0.000719  0.000719  0.001359  0.000033
               *** Restarting incremental Fock matrix formation ***
  7   -684.59118783   0.0114347180  0.000247  0.000336  0.000621  0.000014
  8   -684.59120051  -0.0000126790  0.000122  0.000279  0.000516  0.000012
  9   -684.59120362  -0.0000031090  0.000063  0.000045  0.000097  0.000002
 10   -684.59120387  -0.0000002464  0.000015  0.000009  0.000023  0.000000
                  ***Gradient check signals convergence***
              ***Rediagonalizing the Fockian in SOSCF/NRSCF***

               *****************************************************
               *                     SUCCESS                       *
               *           SCF CONVERGED AFTER  11 CYCLES          *
               *****************************************************


----------------
TOTAL SCF ENERGY
----------------

Total Energy       :         -684.59120388 Eh          -18628.67372 eV

Components:
Nuclear Repulsion  :          585.52179939 Eh           15932.85817 eV
Electronic Energy  :        -1270.11300327 Eh          -34561.53189 eV
One Electron Energy:        -2112.98814362 Eh          -57497.33050 eV
Two Electron Energy:          842.87514035 Eh           22935.79860 eV

Virial components:
Potential Energy   :        -1368.40054433 Eh          -37236.07186 eV
Kinetic Energy     :          683.80934045 Eh           18607.39814 eV
Virial Ratio       :            2.00114339


---------------
SCF CONVERGENCE
---------------

  Last Energy change         ...   -8.9522e-09  Tolerance :   1.0000e-08
  Last MAX-Density change    ...    6.0137e-06  Tolerance :   1.0000e-07
  Last RMS-Density change    ...    1.1502e-07  Tolerance :   5.0000e-09
  Last Orbital Gradient      ...    2.0837e-06  Tolerance :   1.0000e-05
  Last Orbital Rotation      ...    2.6678e-06  Tolerance :   1.0000e-05

             **** THE GBW FILE WAS UPDATED (12h2o.su.etal.mol0,1,2,5,6,7,8,9,11-orca.engrad-mp2.def2tzvp.frozencore.gbw) ****
             **** DENSITY FILE WAS UPDATED (12h2o.su.etal.mol0,1,2,5,6,7,8,9,11-orca.engrad-mp2.def2tzvp.frozencore.scfp) ****
             **** ENERGY FILE WAS UPDATED (12h2o.su.etal.mol0,1,2,5,6,7,8,9,11-orca.engrad-mp2.def2tzvp.frozencore.en.tmp) ****
             **** THE GBW FILE WAS UPDATED (12h2o.su.etal.mol0,1,2,5,6,7,8,9,11-orca.engrad-mp2.def2tzvp.frozencore.gbw) ****
             **** DENSITY FILE WAS UPDATED (12h2o.su.etal.mol0,1,2,5,6,7,8,9,11-orca.engrad-mp2.def2tzvp.frozencore.scfp) ****
----------------
ORBITAL ENERGIES
----------------

  NO   OCC          E(Eh)            E(eV) 
   0   2.0000     -20.605661      -560.7085 
   1   2.0000     -20.589594      -560.2713 
   2   2.0000     -20.587779      -560.2220 
   3   2.0000     -20.582617      -560.0815 
   4   2.0000     -20.561173      -559.4980 
   5   2.0000     -20.553083      -559.2778 
   6   2.0000     -20.545818      -559.0801 
   7   2.0000     -20.538319      -558.8761 
   8   2.0000     -20.495480      -557.7104 
   9   2.0000      -1.395852       -37.9831 
  10   2.0000      -1.385198       -37.6932 
  11   2.0000      -1.370682       -37.2982 
  12   2.0000      -1.365970       -37.1699 
  13   2.0000      -1.356409       -36.9098 
  14   2.0000      -1.340501       -36.4769 
  15   2.0000      -1.333017       -36.2732 
  16   2.0000      -1.319490       -35.9052 
  17   2.0000      -1.279421       -34.8148 
  18   2.0000      -0.758345       -20.6356 
  19   2.0000      -0.751291       -20.4437 
  20   2.0000      -0.741447       -20.1758 
  21   2.0000      -0.731014       -19.8919 
  22   2.0000      -0.723109       -19.6768 
  23   2.0000      -0.716975       -19.5099 
  24   2.0000      -0.706451       -19.2235 
  25   2.0000      -0.706125       -19.2146 
  26   2.0000      -0.662628       -18.0310 
  27   2.0000      -0.655448       -17.8356 
  28   2.0000      -0.633149       -17.2289 
  29   2.0000      -0.615009       -16.7352 
  30   2.0000      -0.608267       -16.5518 
  31   2.0000      -0.600754       -16.3473 
  32   2.0000      -0.591080       -16.0841 
  33   2.0000      -0.571653       -15.5555 
  34   2.0000      -0.559201       -15.2166 
  35   2.0000      -0.545545       -14.8450 
  36   2.0000      -0.534944       -14.5566 
  37   2.0000      -0.532493       -14.4899 
  38   2.0000      -0.531145       -14.4532 
  39   2.0000      -0.516125       -14.0445 
  40   2.0000      -0.505158       -13.7460 
  41   2.0000      -0.497955       -13.5501 
  42   2.0000      -0.487768       -13.2728 
  43   2.0000      -0.483421       -13.1546 
  44   2.0000      -0.446599       -12.1526 
  45   0.0000       0.087323         2.3762 
  46   0.0000       0.127477         3.4688 
  47   0.0000       0.139408         3.7935 
  48   0.0000       0.147054         4.0016 
  49   0.0000       0.167363         4.5542 
  50   0.0000       0.193800         5.2736 
  51   0.0000       0.217803         5.9267 
  52   0.0000       0.234876         6.3913 
  53   0.0000       0.253041         6.8856 
  54   0.0000       0.268815         7.3148 
  55   0.0000       0.274240         7.4625 
  56   0.0000       0.284682         7.7466 
  57   0.0000       0.313556         8.5323 
  58   0.0000       0.320201         8.7131 
  59   0.0000       0.325885         8.8678 
  60   0.0000       0.339404         9.2357 
  61   0.0000       0.348928         9.4948 
  62   0.0000       0.362828         9.8730 
  63   0.0000       0.410099        11.1594 
  64   0.0000       0.440494        11.9865 
  65   0.0000       0.477351        12.9894 
  66   0.0000       0.487401        13.2628 
  67   0.0000       0.496023        13.4975 
  68   0.0000       0.506605        13.7854 
  69   0.0000       0.519049        14.1241 
  70   0.0000       0.526731        14.3331 
  71   0.0000       0.533171        14.5083 
  72   0.0000       0.537167        14.6170 
  73   0.0000       0.550195        14.9716 
  74   0.0000       0.551418        15.0048 
  75   0.0000       0.561621        15.2825 
  76   0.0000       0.570094        15.5130 
  77   0.0000       0.580719        15.8022 
  78   0.0000       0.598931        16.2977 
  79   0.0000       0.607932        16.5427 
  80   0.0000       0.617747        16.8097 
  81   0.0000       0.631681        17.1889 
  82   0.0000       0.645188        17.5565 
  83   0.0000       0.655986        17.8503 
  84   0.0000       0.665176        18.1004 
  85   0.0000       0.682906        18.5828 
  86   0.0000       0.705077        19.1861 
  87   0.0000       0.712253        19.3814 
  88   0.0000       0.719284        19.5727 
  89   0.0000       0.723781        19.6951 
  90   0.0000       0.737888        20.0790 
  91   0.0000       0.746954        20.3256 
  92   0.0000       0.758407        20.6373 
  93   0.0000       0.770718        20.9723 
  94   0.0000       0.774082        21.0638 
  95   0.0000       0.783372        21.3166 
  96   0.0000       0.790520        21.5111 
  97   0.0000       0.799196        21.7472 
  98   0.0000       0.807714        21.9790 
  99   0.0000       0.829463        22.5708 
 100   0.0000       0.844376        22.9766 
 101   0.0000       0.850671        23.1479 
 102   0.0000       0.856768        23.3138 
 103   0.0000       0.877625        23.8814 
 104   0.0000       0.885629        24.0992 
 105   0.0000       0.908770        24.7289 
 106   0.0000       0.936217        25.4757 
 107   0.0000       0.962961        26.2035 
 108   0.0000       0.985450        26.8155 
 109   0.0000       1.017594        27.6901 
 110   0.0000       1.028750        27.9937 
 111   0.0000       1.044156        28.4129 
 112   0.0000       1.065428        28.9918 
 113   0.0000       1.070537        29.1308 
 114   0.0000       1.115771        30.3617 
 115   0.0000       1.136523        30.9264 
 116   0.0000       1.225244        33.3406 
 117   0.0000       1.334455        36.3124 
 118   0.0000       1.354867        36.8678 
 119   0.0000       1.370998        37.3068 
 120   0.0000       1.381794        37.6005 
 121   0.0000       1.392814        37.9004 
 122   0.0000       1.407973        38.3129 
 123   0.0000       1.422341        38.7039 
 124   0.0000       1.425384        38.7867 
 125   0.0000       1.433253        39.0008 
 126   0.0000       1.442877        39.2627 
 127   0.0000       1.450667        39.4747 
 128   0.0000       1.457056        39.6485 
 129   0.0000       1.490322        40.5537 
 130   0.0000       1.494412        40.6650 
 131   0.0000       1.518295        41.3149 
 132   0.0000       1.523421        41.4544 
 133   0.0000       1.538291        41.8590 
 134   0.0000       1.548306        42.1315 
 135   0.0000       1.568728        42.6873 
 136   0.0000       1.580186        42.9991 
 137   0.0000       1.590688        43.2848 
 138   0.0000       1.602921        43.6177 
 139   0.0000       1.617054        44.0023 
 140   0.0000       1.618857        44.0513 
 141   0.0000       1.633003        44.4363 
 142   0.0000       1.654931        45.0330 
 143   0.0000       1.691146        46.0184 
 144   0.0000       1.802207        49.0405 
 145   0.0000       1.805110        49.1195 
 146   0.0000       1.828988        49.7693 
 147   0.0000       1.862247        50.6743 
 148   0.0000       1.889911        51.4271 
 149   0.0000       1.897227        51.6262 
 150   0.0000       1.905733        51.8576 
 151   0.0000       1.918894        52.2158 
 152   0.0000       1.938968        52.7620 
 153   0.0000       1.956546        53.2403 
 154   0.0000       1.971846        53.6567 
 155   0.0000       1.978885        53.8482 
 156   0.0000       2.002763        54.4980 
 157   0.0000       2.007674        54.6316 
 158   0.0000       2.008642        54.6579 
 159   0.0000       2.025192        55.1083 
 160   0.0000       2.041498        55.5520 
 161   0.0000       2.053246        55.8717 
 162   0.0000       2.071848        56.3779 
 163   0.0000       2.103424        57.2371 
 164   0.0000       2.104696        57.2717 
 165   0.0000       2.136946        58.1493 
 166   0.0000       2.149179        58.4821 
 167   0.0000       2.162447        58.8432 
 168   0.0000       2.172772        59.1241 
 169   0.0000       2.209812        60.1320 
 170   0.0000       2.224928        60.5434 
 171   0.0000       2.229032        60.6550 
 172   0.0000       2.243439        61.0471 
 173   0.0000       2.259987        61.4974 
 174   0.0000       2.277075        61.9624 
 175   0.0000       2.304231        62.7013 
 176   0.0000       2.309739        62.8512 
 177   0.0000       2.328677        63.3665 
 178   0.0000       2.340598        63.6909 
 179   0.0000       2.344219        63.7894 
 180   0.0000       2.360057        64.2204 
 181   0.0000       2.380731        64.7830 
 182   0.0000       2.394302        65.1523 
 183   0.0000       2.407232        65.5041 
 184   0.0000       2.411410        65.6178 
 185   0.0000       2.431755        66.1714 
 186   0.0000       2.449074        66.6427 
 187   0.0000       2.455778        66.8251 
 188   0.0000       2.479206        67.4626 
 189   0.0000       2.508795        68.2678 
 190   0.0000       2.517570        68.5066 
 191   0.0000       2.526966        68.7622 
 192   0.0000       2.535116        68.9840 
 193   0.0000       2.548917        69.3596 
 194   0.0000       2.555544        69.5399 
 195   0.0000       2.574492        70.0555 
 196   0.0000       2.586886        70.3928 
 197   0.0000       2.597279        70.6756 
 198   0.0000       2.607319        70.9488 
 199   0.0000       2.614523        71.1448 
 200   0.0000       2.628802        71.5333 
 201   0.0000       2.636642        71.7467 
 202   0.0000       2.646652        72.0191 
 203   0.0000       2.649638        72.1003 
 204   0.0000       2.666753        72.5660 
 205   0.0000       2.680440        72.9385 
 206   0.0000       2.692097        73.2557 
 207   0.0000       2.692996        73.2801 
 208   0.0000       2.716812        73.9282 
 209   0.0000       2.723782        74.1179 
 210   0.0000       2.749063        74.8058 
 211   0.0000       2.767549        75.3088 
 212   0.0000       2.788204        75.8709 
 213   0.0000       2.811667        76.5093 
 214   0.0000       2.821755        76.7839 
 215   0.0000       2.850567        77.5679 
 216   0.0000       2.895714        78.7964 
 217   0.0000       2.901928        78.9655 
 218   0.0000       2.934614        79.8549 
 219   0.0000       2.942980        80.0826 
 220   0.0000       2.955835        80.4324 
 221   0.0000       2.984361        81.2086 
 222   0.0000       2.991637        81.4066 
 223   0.0000       3.002341        81.6979 
 224   0.0000       3.013215        81.9938 
 225   0.0000       3.030778        82.4717 
 226   0.0000       3.034166        82.5638 
 227   0.0000       3.038372        82.6783 
 228   0.0000       3.065521        83.4171 
 229   0.0000       3.079990        83.8108 
 230   0.0000       3.091070        84.1123 
 231   0.0000       3.117716        84.8374 
 232   0.0000       3.131667        85.2170 
 233   0.0000       3.138013        85.3897 
 234   0.0000       3.178967        86.5041 
 235   0.0000       3.187255        86.7296 
 236   0.0000       3.203689        87.1768 
 237   0.0000       3.221717        87.6674 
 238   0.0000       3.231638        87.9373 
 239   0.0000       3.242220        88.2253 
 240   0.0000       3.285370        89.3995 
 241   0.0000       3.300508        89.8114 
 242   0.0000       3.318848        90.3104 
 243   0.0000       3.352689        91.2313 
 244   0.0000       3.361182        91.4624 
 245   0.0000       3.371455        91.7420 
 246   0.0000       3.411397        92.8288 
 247   0.0000       3.448666        93.8430 
 248   0.0000       3.496475        95.1439 
 249   0.0000       3.503371        95.3316 
 250   0.0000       3.538278        96.2814 
 251   0.0000       3.571627        97.1889 
 252   0.0000       4.030630       109.6790 
 253   0.0000       4.036075       109.8272 
 254   0.0000       4.052246       110.2672 
 255   0.0000       4.098158       111.5165 
 256   0.0000       4.113802       111.9422 
 257   0.0000       4.120405       112.1219 
 258   0.0000       4.156807       113.1125 
 259   0.0000       4.169440       113.4562 
 260   0.0000       4.195937       114.1773 
 261   0.0000       4.276392       116.3665 
 262   0.0000       4.295633       116.8901 
 263   0.0000       4.301573       117.0517 
 264   0.0000       4.329846       117.8211 
 265   0.0000       4.348410       118.3262 
 266   0.0000       4.373830       119.0180 
 267   0.0000       4.393508       119.5534 
 268   0.0000       4.395167       119.5986 
 269   0.0000       4.430691       120.5652 
 270   0.0000       5.499680       149.6539 
 271   0.0000       5.513340       150.0256 
 272   0.0000       5.517145       150.1291 
 273   0.0000       5.523033       150.2894 
 274   0.0000       5.544076       150.8620 
 275   0.0000       5.546444       150.9264 
 276   0.0000       5.553437       151.1167 
 277   0.0000       5.570728       151.5872 
 278   0.0000       5.606986       152.5738 
 279   0.0000       5.609626       152.6457 
 280   0.0000       5.637301       153.3988 
 281   0.0000       5.640683       153.4908 
 282   0.0000       5.652689       153.8175 
 283   0.0000       5.663762       154.1188 
 284   0.0000       5.671267       154.3230 
 285   0.0000       5.691983       154.8867 
 286   0.0000       5.696572       155.0116 
 287   0.0000       5.717752       155.5879 
 288   0.0000       5.775129       157.1492 
 289   0.0000       5.782489       157.3495 
 290   0.0000       5.798068       157.7734 
 291   0.0000       5.803454       157.9200 
 292   0.0000       5.807125       158.0199 
 293   0.0000       5.815842       158.2571 
 294   0.0000       5.825325       158.5152 
 295   0.0000       5.831771       158.6906 
 296   0.0000       5.833476       158.7370 
 297   0.0000       5.840687       158.9332 
 298   0.0000       5.845332       159.0596 
 299   0.0000       5.854670       159.3137 
 300   0.0000       5.859362       159.4413 
 301   0.0000       5.864652       159.5853 
 302   0.0000       5.866567       159.6374 
 303   0.0000       5.873206       159.8181 
 304   0.0000       5.880065       160.0047 
 305   0.0000       5.883431       160.0963 
 306   0.0000       5.888621       160.2375 
 307   0.0000       5.891433       160.3140 
 308   0.0000       5.904240       160.6625 
 309   0.0000       5.914319       160.9368 
 310   0.0000       5.920443       161.1034 
 311   0.0000       5.930336       161.3727 
 312   0.0000       5.935163       161.5040 
 313   0.0000       5.949928       161.9058 
 314   0.0000       5.967972       162.3968 
 315   0.0000       6.425902       174.8577 
 316   0.0000       6.448863       175.4825 
 317   0.0000       6.461509       175.8266 
 318   0.0000       6.464176       175.8992 
 319   0.0000       6.475372       176.2038 
 320   0.0000       6.480346       176.3392 
 321   0.0000       6.492321       176.6650 
 322   0.0000       6.505309       177.0185 
 323   0.0000       6.536867       177.8772 
 324   0.0000       6.646071       180.8488 
 325   0.0000       6.669214       181.4785 
 326   0.0000       6.690697       182.0631 
 327   0.0000       6.705309       182.4607 
 328   0.0000       6.724686       182.9880 
 329   0.0000       6.736062       183.2976 
 330   0.0000       6.746942       183.5936 
 331   0.0000       6.762654       184.0212 
 332   0.0000       6.792022       184.8203 
 333   0.0000       6.819890       185.5787 
 334   0.0000       6.841786       186.1745 
 335   0.0000       6.846394       186.2998 
 336   0.0000       6.858528       186.6300 
 337   0.0000       6.874143       187.0549 
 338   0.0000       6.879943       187.2128 
 339   0.0000       6.888846       187.4550 
 340   0.0000       6.899987       187.7582 
 341   0.0000       6.905423       187.9061 
 342   0.0000       6.912814       188.1072 
 343   0.0000       6.918000       188.2484 
 344   0.0000       6.921205       188.3356 
 345   0.0000       6.930671       188.5931 
 346   0.0000       6.941289       188.8821 
 347   0.0000       6.946590       189.0263 
 348   0.0000       6.956525       189.2967 
 349   0.0000       6.966861       189.5779 
 350   0.0000       6.971686       189.7092 
 351   0.0000       6.979694       189.9271 
 352   0.0000       6.986084       190.1010 
 353   0.0000       7.005886       190.6399 
 354   0.0000       7.030716       191.3155 
 355   0.0000       7.037895       191.5109 
 356   0.0000       7.075451       192.5328 
 357   0.0000       7.085357       192.8024 
 358   0.0000       7.090646       192.9463 
 359   0.0000       7.136579       194.1962 
 360   0.0000       7.352318       200.0668 
 361   0.0000       7.382346       200.8838 
 362   0.0000       7.408448       201.5941 
 363   0.0000       7.430745       202.2009 
 364   0.0000       7.457270       202.9226 
 365   0.0000       7.466642       203.1777 
 366   0.0000       7.492463       203.8803 
 367   0.0000       7.494208       203.9278 
 368   0.0000       7.519227       204.6086 
 369   0.0000       7.520723       204.6493 
 370   0.0000       7.537888       205.1164 
 371   0.0000       7.548837       205.4143 
 372   0.0000       7.565188       205.8592 
 373   0.0000       7.576642       206.1709 
 374   0.0000       7.583407       206.3550 
 375   0.0000       7.595742       206.6906 
 376   0.0000       7.647241       208.0920 
 377   0.0000       7.666909       208.6272 
 378   0.0000      44.956980      1223.3416 
 379   0.0000      44.977195      1223.8917 
 380   0.0000      44.985687      1224.1228 
 381   0.0000      44.998830      1224.4804 
 382   0.0000      45.016461      1224.9602 
 383   0.0000      45.047427      1225.8028 
 384   0.0000      45.059112      1226.1208 
 385   0.0000      45.113643      1227.6046 
 386   0.0000      45.221516      1230.5400 

                    ********************************
                    * MULLIKEN POPULATION ANALYSIS *
                    ********************************

-----------------------
MULLIKEN ATOMIC CHARGES
-----------------------
   0 O :   -0.800277
   1 H :    0.367842
   2 H :    0.413558
   3 O :   -0.795668
   4 H :    0.358290
   5 H :    0.415526
   6 O :   -0.763813
   7 H :    0.343310
   8 H :    0.399825
   9 O :   -0.800041
  10 H :    0.381543
  11 H :    0.408457
  12 O :   -0.768023
  13 H :    0.416172
  14 H :    0.360653
  15 O :   -0.778962
  16 H :    0.372425
  17 H :    0.379903
  18 O :   -0.727786
  19 H :    0.402877
  20 H :    0.360405
  21 O :   -0.767428
  22 H :    0.409332
  23 H :    0.386001
  24 O :   -0.743039
  25 H :    0.357803
  26 H :    0.411114
Sum of atomic charges:   -0.0000000

--------------------------------
MULLIKEN REDUCED ORBITAL CHARGES
--------------------------------
  0 O s       :     3.806902  s :     3.806902
      pz      :     1.725156  p :     4.970297
      px      :     1.445119
      py      :     1.800023
      dz2     :     0.003456  d :     0.021699
      dxz     :     0.004252
      dyz     :     0.004987
      dx2y2   :     0.002195
      dxy     :     0.006809
      f0      :     0.000080  f :     0.001378
      f+1     :     0.000312
      f-1     :     0.000168
      f+2     :     0.000061
      f-2     :     0.000345
      f+3     :     0.000082
      f-3     :     0.000330
  1 H s       :     0.586986  s :     0.586986
      pz      :     0.016829  p :     0.045172
      px      :     0.013696
      py      :     0.014647
  2 H s       :     0.530704  s :     0.530704
      pz      :     0.009821  p :     0.055738
      px      :     0.032893
      py      :     0.013025
  3 O s       :     3.807122  s :     3.807122
      pz      :     1.729267  p :     4.965238
      px      :     1.447926
      py      :     1.788045
      dz2     :     0.003770  d :     0.021932
      dxz     :     0.004568
      dyz     :     0.004984
      dx2y2   :     0.002184
      dxy     :     0.006426
      f0      :     0.000081  f :     0.001377
      f+1     :     0.000316
      f-1     :     0.000169
      f+2     :     0.000060
      f-2     :     0.000346
      f+3     :     0.000081
      f-3     :     0.000324
  4 H s       :     0.596395  s :     0.596395
      pz      :     0.016975  p :     0.045315
      px      :     0.013695
      py      :     0.014646
  5 H s       :     0.528632  s :     0.528632
      pz      :     0.009771  p :     0.055842
      px      :     0.033069
      py      :     0.013001
  6 O s       :     3.808962  s :     3.808962
      pz      :     1.705383  p :     4.930432
      px      :     1.810534
      py      :     1.414515
      dz2     :     0.003558  d :     0.022989
      dxz     :     0.005481
      dyz     :     0.004156
      dx2y2   :     0.002253
      dxy     :     0.007541
      f0      :     0.000078  f :     0.001429
      f+1     :     0.000177
      f-1     :     0.000309
      f+2     :     0.000070
      f-2     :     0.000348
      f+3     :     0.000357
      f-3     :     0.000089
  7 H s       :     0.610762  s :     0.610762
      pz      :     0.016882  p :     0.045927
      px      :     0.015096
      py      :     0.013949
  8 H s       :     0.543586  s :     0.543586
      pz      :     0.010263  p :     0.056589
      px      :     0.014141
      py      :     0.032185
  9 O s       :     3.798430  s :     3.798430
      pz      :     1.616194  p :     4.978380
      px      :     1.853020
      py      :     1.509166
      dz2     :     0.009800  d :     0.021906
      dxz     :     0.001870
      dyz     :     0.002332
      dx2y2   :     0.003161
      dxy     :     0.004743
      f0      :     0.000168  f :     0.001325
      f+1     :     0.000108
      f-1     :     0.000427
      f+2     :     0.000069
      f-2     :     0.000036
      f+3     :     0.000418
      f-3     :     0.000100
 10 H s       :     0.565944  s :     0.565944
      pz      :     0.009137  p :     0.052514
      px      :     0.014970
      py      :     0.028406
 11 H s       :     0.542931  s :     0.542931
      pz      :     0.025404  p :     0.048612
      px      :     0.012187
      py      :     0.011021
 12 O s       :     3.801391  s :     3.801391
      pz      :     1.621314  p :     4.941972
      px      :     1.468719
      py      :     1.851939
      dz2     :     0.010243  d :     0.023278
      dxz     :     0.002434
      dyz     :     0.002016
      dx2y2   :     0.003455
      dxy     :     0.005129
      f0      :     0.000166  f :     0.001383
      f+1     :     0.000438
      f-1     :     0.000111
      f+2     :     0.000068
      f-2     :     0.000036
      f+3     :     0.000109
      f-3     :     0.000455
 13 H s       :     0.535352  s :     0.535352
      pz      :     0.025603  p :     0.048476
      px      :     0.010755
      py      :     0.012118
 14 H s       :     0.597483  s :     0.597483
      pz      :     0.009320  p :     0.041864
      px      :     0.018651
      py      :     0.013893
 15 O s       :     3.807229  s :     3.807229
      pz      :     1.576256  p :     4.946228
      px      :     1.497535
      py      :     1.872437
      dz2     :     0.011004  d :     0.024120
      dxz     :     0.002890
      dyz     :     0.002432
      dx2y2   :     0.002986
      dxy     :     0.004807
      f0      :     0.000164  f :     0.001385
      f+1     :     0.000438
      f-1     :     0.000117
      f+2     :     0.000075
      f-2     :     0.000039
      f+3     :     0.000113
      f-3     :     0.000438
 16 H s       :     0.578505  s :     0.578505
      pz      :     0.024155  p :     0.049070
      px      :     0.011437
      py      :     0.013479
 17 H s       :     0.566035  s :     0.566035
      pz      :     0.009820  p :     0.054063
      px      :     0.028580
      py      :     0.015663
 18 O s       :     3.797593  s :     3.797593
      pz      :     1.572349  p :     4.903626
      px      :     1.545538
      py      :     1.785739
      dz2     :     0.011965  d :     0.025163
      dxz     :     0.001210
      dyz     :     0.002411
      dx2y2   :     0.002480
      dxy     :     0.007098
      f0      :     0.000229  f :     0.001404
      f+1     :     0.000383
      f-1     :     0.000156
      f+2     :     0.000050
      f-2     :     0.000055
      f+3     :     0.000053
      f-3     :     0.000478
 19 H s       :     0.549224  s :     0.549224
      pz      :     0.024833  p :     0.047899
      px      :     0.011097
      py      :     0.011969
 20 H s       :     0.595835  s :     0.595835
      pz      :     0.010537  p :     0.043759
      px      :     0.018371
      py      :     0.014852
 21 O s       :     3.792916  s :     3.792916
      pz      :     1.581024  p :     4.949289
      px      :     1.781610
      py      :     1.586655
      dz2     :     0.011649  d :     0.023888
      dxz     :     0.002167
      dyz     :     0.001178
      dx2y2   :     0.002334
      dxy     :     0.006561
      f0      :     0.000225  f :     0.001335
      f+1     :     0.000147
      f-1     :     0.000376
      f+2     :     0.000050
      f-2     :     0.000054
      f+3     :     0.000437
      f-3     :     0.000045
 22 H s       :     0.542854  s :     0.542854
      pz      :     0.025130  p :     0.047814
      px      :     0.011778
      py      :     0.010905
 23 H s       :     0.564361  s :     0.564361
      pz      :     0.009922  p :     0.049638
      px      :     0.015705
      py      :     0.024011
 24 O s       :     3.794974  s :     3.794974
      pz      :     1.519220  p :     4.922144
      px      :     1.790619
      py      :     1.612305
      dz2     :     0.012349  d :     0.024540
      dxz     :     0.002237
      dyz     :     0.001283
      dx2y2   :     0.002255
      dxy     :     0.006416
      f0      :     0.000250  f :     0.001380
      f+1     :     0.000153
      f-1     :     0.000388
      f+2     :     0.000051
      f-2     :     0.000056
      f+3     :     0.000438
      f-3     :     0.000044
 25 H s       :     0.598355  s :     0.598355
      pz      :     0.019176  p :     0.043841
      px      :     0.012905
      py      :     0.011760
 26 H s       :     0.539877  s :     0.539877
      pz      :     0.009121  p :     0.049009
      px      :     0.015132
      py      :     0.024756


                     *******************************
                     * LOEWDIN POPULATION ANALYSIS *
                     *******************************

----------------------
LOEWDIN ATOMIC CHARGES
----------------------
   0 O :   -0.327544
   1 H :    0.162295
   2 H :    0.156672
   3 O :   -0.327593
   4 H :    0.157656
   5 H :    0.157266
   6 O :   -0.344020
   7 H :    0.152500
   8 H :    0.154329
   9 O :   -0.318031
  10 H :    0.148450
  11 H :    0.162022
  12 O :   -0.297191
  13 H :    0.165830
  14 H :    0.174382
  15 O :   -0.378928
  16 H :    0.146216
  17 H :    0.145086
  18 O :   -0.285566
  19 H :    0.162773
  20 H :    0.172719
  21 O :   -0.300188
  22 H :    0.163478
  23 H :    0.154373
  24 O :   -0.290194
  25 H :    0.167407
  26 H :    0.165800

-------------------------------
LOEWDIN REDUCED ORBITAL CHARGES
-------------------------------
  0 O s       :     3.453924  s :     3.453924
      pz      :     1.682222  p :     4.843695
      px      :     1.408637
      py      :     1.752836
      dz2     :     0.004518  d :     0.027994
      dxz     :     0.006436
      dyz     :     0.005027
      dx2y2   :     0.003576
      dxy     :     0.008438
      f0      :     0.000081  f :     0.001931
      f+1     :     0.000423
      f-1     :     0.000256
      f+2     :     0.000031
      f-2     :     0.000600
      f+3     :     0.000083
      f-3     :     0.000456
  1 H s       :     0.672166  s :     0.672166
      pz      :     0.066054  p :     0.165540
      px      :     0.046361
      py      :     0.053124
  2 H s       :     0.644119  s :     0.644119
      pz      :     0.033135  p :     0.199209
      px      :     0.118302
      py      :     0.047772
  3 O s       :     3.455011  s :     3.455011
      pz      :     1.685187  p :     4.842202
      px      :     1.409357
      py      :     1.747657
      dz2     :     0.004796  d :     0.028438
      dxz     :     0.006812
      dyz     :     0.005143
      dx2y2   :     0.003597
      dxy     :     0.008089
      f0      :     0.000089  f :     0.001942
      f+1     :     0.000428
      f-1     :     0.000255
      f+2     :     0.000032
      f-2     :     0.000610
      f+3     :     0.000083
      f-3     :     0.000447
  4 H s       :     0.676823  s :     0.676823
      pz      :     0.066309  p :     0.165521
      px      :     0.046341
      py      :     0.052871
  5 H s       :     0.643046  s :     0.643046
      pz      :     0.033234  p :     0.199688
      px      :     0.118861
      py      :     0.047592
  6 O s       :     3.461011  s :     3.461011
      pz      :     1.675062  p :     4.851570
      px      :     1.781400
      py      :     1.395109
      dz2     :     0.004551  d :     0.029452
      dxz     :     0.005723
      dyz     :     0.006763
      dx2y2   :     0.003209
      dxy     :     0.009205
      f0      :     0.000081  f :     0.001987
      f+1     :     0.000263
      f-1     :     0.000426
      f+2     :     0.000034
      f-2     :     0.000619
      f+3     :     0.000480
      f-3     :     0.000084
  7 H s       :     0.682776  s :     0.682776
      pz      :     0.065645  p :     0.164724
      px      :     0.053382
      py      :     0.045697
  8 H s       :     0.650166  s :     0.650166
      pz      :     0.033411  p :     0.195506
      px      :     0.047600
      py      :     0.114495
  9 O s       :     3.448505  s :     3.448505
      pz      :     1.565065  p :     4.839612
      px      :     1.791137
      py      :     1.483410
      dz2     :     0.012942  d :     0.028018
      dxz     :     0.001140
      dyz     :     0.003331
      dx2y2   :     0.004724
      dxy     :     0.005881
      f0      :     0.000329  f :     0.001895
      f+1     :     0.000190
      f-1     :     0.000677
      f+2     :     0.000035
      f-2     :     0.000043
      f+3     :     0.000554
      f-3     :     0.000068
 10 H s       :     0.665789  s :     0.665789
      pz      :     0.030863  p :     0.185761
      px      :     0.052753
      py      :     0.102145
 11 H s       :     0.662524  s :     0.662524
      pz      :     0.096104  p :     0.175454
      px      :     0.042372
      py      :     0.036979
 12 O s       :     3.454986  s :     3.454986
      pz      :     1.567838  p :     4.809891
      px      :     1.454798
      py      :     1.787254
      dz2     :     0.013793  d :     0.030320
      dxz     :     0.003388
      dyz     :     0.001208
      dx2y2   :     0.005287
      dxy     :     0.006643
      f0      :     0.000326  f :     0.001994
      f+1     :     0.000694
      f-1     :     0.000197
      f+2     :     0.000036
      f-2     :     0.000040
      f+3     :     0.000073
      f-3     :     0.000629
 13 H s       :     0.659700  s :     0.659700
      pz      :     0.096718  p :     0.174469
      px      :     0.035680
      py      :     0.042071
 14 H s       :     0.670708  s :     0.670708
      pz      :     0.030697  p :     0.154910
      px      :     0.074925
      py      :     0.049287
 15 O s       :     3.464458  s :     3.464458
      pz      :     1.565666  p :     4.883407
      px      :     1.481208
      py      :     1.836533
      dz2     :     0.013790  d :     0.029121
      dxz     :     0.004020
      dyz     :     0.001536
      dx2y2   :     0.003906
      dxy     :     0.005869
      f0      :     0.000353  f :     0.001943
      f+1     :     0.000703
      f-1     :     0.000186
      f+2     :     0.000043
      f-2     :     0.000043
      f+3     :     0.000066
      f-3     :     0.000549
 16 H s       :     0.681149  s :     0.681149
      pz      :     0.091735  p :     0.172634
      px      :     0.037489
      py      :     0.043410
 17 H s       :     0.669258  s :     0.669258
      pz      :     0.030573  p :     0.185656
      px      :     0.102358
      py      :     0.052725
 18 O s       :     3.453591  s :     3.453591
      pz      :     1.542955  p :     4.797742
      px      :     1.528812
      py      :     1.725975
      dz2     :     0.015505  d :     0.032113
      dxz     :     0.001764
      dyz     :     0.001835
      dx2y2   :     0.003714
      dxy     :     0.009295
      f0      :     0.000410  f :     0.002121
      f+1     :     0.000562
      f-1     :     0.000333
      f+2     :     0.000021
      f-2     :     0.000046
      f+3     :     0.000027
      f-3     :     0.000722
 19 H s       :     0.665430  s :     0.665430
      pz      :     0.094343  p :     0.171796
      px      :     0.035936
      py      :     0.041518
 20 H s       :     0.669151  s :     0.669151
      pz      :     0.031140  p :     0.158130
      px      :     0.072215
      py      :     0.054776
 21 O s       :     3.445448  s :     3.445448
      pz      :     1.547347  p :     4.823271
      px      :     1.725266
      py      :     1.550658
      dz2     :     0.014546  d :     0.029481
      dxz     :     0.001631
      dyz     :     0.001712
      dx2y2   :     0.003428
      dxy     :     0.008164
      f0      :     0.000404  f :     0.001988
      f+1     :     0.000316
      f-1     :     0.000535
      f+2     :     0.000019
      f-2     :     0.000048
      f+3     :     0.000640
      f-3     :     0.000025
 22 H s       :     0.662968  s :     0.662968
      pz      :     0.095440  p :     0.173554
      px      :     0.041263
      py      :     0.036851
 23 H s       :     0.670489  s :     0.670489
      pz      :     0.031313  p :     0.175138
      px      :     0.057869
      py      :     0.085955
 24 O s       :     3.450663  s :     3.450663
      pz      :     1.514024  p :     4.806607
      px      :     1.730085
      py      :     1.562498
      dz2     :     0.016193  d :     0.030856
      dxz     :     0.001790
      dyz     :     0.002131
      dx2y2   :     0.003226
      dxy     :     0.007516
      f0      :     0.000473  f :     0.002069
      f+1     :     0.000324
      f-1     :     0.000571
      f+2     :     0.000020
      f-2     :     0.000052
      f+3     :     0.000603
      f-3     :     0.000025
 25 H s       :     0.673309  s :     0.673309
      pz      :     0.080383  p :     0.159283
      px      :     0.042049
      py      :     0.036852
 26 H s       :     0.657707  s :     0.657707
      pz      :     0.029089  p :     0.176494
      px      :     0.058031
      py      :     0.089374


                      *****************************
                      * MAYER POPULATION ANALYSIS *
                      *****************************

  NA   - Mulliken gross atomic population
  ZA   - Total nuclear charge
  QA   - Mulliken gross atomic charge
  VA   - Mayer's total valence
  BVA  - Mayer's bonded valence
  FA   - Mayer's free valence

  ATOM       NA         ZA         QA         VA         BVA        FA
  0 O      8.8003     8.0000    -0.8003     1.6686     1.6686    -0.0000
  1 H      0.6322     1.0000     0.3678     0.8822     0.8822    -0.0000
  2 H      0.5864     1.0000     0.4136     0.8684     0.8684    -0.0000
  3 O      8.7957     8.0000    -0.7957     1.6721     1.6721    -0.0000
  4 H      0.6417     1.0000     0.3583     0.8887     0.8887     0.0000
  5 H      0.5845     1.0000     0.4155     0.8686     0.8686     0.0000
  6 O      8.7638     8.0000    -0.7638     1.6991     1.6991    -0.0000
  7 H      0.6567     1.0000     0.3433     0.8985     0.8985     0.0000
  8 H      0.6002     1.0000     0.3998     0.8748     0.8748    -0.0000
  9 O      8.8000     8.0000    -0.8000     1.6706     1.6706     0.0000
 10 H      0.6185     1.0000     0.3815     0.8890     0.8890     0.0000
 11 H      0.5915     1.0000     0.4085     0.8712     0.8712    -0.0000
 12 O      8.7680     8.0000    -0.7680     1.7173     1.7173     0.0000
 13 H      0.5838     1.0000     0.4162     0.8611     0.8611     0.0000
 14 H      0.6393     1.0000     0.3607     0.8928     0.8928     0.0000
 15 O      8.7790     8.0000    -0.7790     1.6972     1.6972    -0.0000
 16 H      0.6276     1.0000     0.3724     0.8897     0.8897    -0.0000
 17 H      0.6201     1.0000     0.3799     0.8928     0.8928     0.0000
 18 O      8.7278     8.0000    -0.7278     1.7569     1.7569     0.0000
 19 H      0.5971     1.0000     0.4029     0.8610     0.8610    -0.0000
 20 H      0.6396     1.0000     0.3604     0.8843     0.8843     0.0000
 21 O      8.7674     8.0000    -0.7674     1.7245     1.7245    -0.0000
 22 H      0.5907     1.0000     0.4093     0.8601     0.8601    -0.0000
 23 H      0.6140     1.0000     0.3860     0.8829     0.8829    -0.0000
 24 O      8.7430     8.0000    -0.7430     1.7418     1.7418     0.0000
 25 H      0.6422     1.0000     0.3578     0.8879     0.8879     0.0000
 26 H      0.5889     1.0000     0.4111     0.8698     0.8698    -0.0000

  Mayer bond orders larger than 0.100000
B(  0-O ,  1-H ) :   0.8727 B(  0-O ,  2-H ) :   0.7686 B(  3-O ,  4-H ) :   0.8783 
B(  3-O ,  5-H ) :   0.7639 B(  6-O ,  7-H ) :   0.8901 B(  6-O ,  8-H ) :   0.7999 
B(  9-O , 10-H ) :   0.8249 B(  9-O , 11-H ) :   0.8183 B( 12-O , 13-H ) :   0.8127 
B( 12-O , 14-H ) :   0.8693 B( 15-O , 16-H ) :   0.8625 B( 15-O , 17-H ) :   0.8362 
B( 18-O , 19-H ) :   0.8354 B( 18-O , 20-H ) :   0.8779 B( 21-O , 22-H ) :   0.8258 
B( 21-O , 23-H ) :   0.8415 B( 24-O , 25-H ) :   0.8791 B( 24-O , 26-H ) :   0.8080 


-------
TIMINGS
-------

Total SCF time: 0 days 0 hours 0 min 40 sec 

Total time                  ....      40.522 sec
Sum of individual times     ....      40.174 sec  ( 99.1%)

Fock matrix formation       ....      39.420 sec  ( 97.3%)
Diagonalization             ....       0.207 sec  (  0.5%)
Density matrix formation    ....       0.019 sec  (  0.0%)
Population analysis         ....       0.019 sec  (  0.0%)
Initial guess               ....       0.231 sec  (  0.6%)
Orbital Transformation      ....       0.000 sec  (  0.0%)
Orbital Orthonormalization  ....       0.000 sec  (  0.0%)
DIIS solution               ....       0.075 sec  (  0.2%)
SOSCF solution              ....       0.091 sec  (  0.2%)


           ************************************************************
           *        Program running with 6 parallel MPI-processes     *
           *              working on a common directory               *
           ************************************************************

------------------------------------------------------------------------------
                                ORCA  MP2 
------------------------------------------------------------------------------

Freezing NCore=18 chemical core electrons
MP2 will be done in the AO integral direct mode
The Q1-step will be done using symmetric double matrices
Dimension of the basis                    ...  387
Memory devoted for MP2                    ... 8000 MB   
Memory needed for all in one shot         ... 1331 MB
Number of MOs that can be treated together...   35      
MP2 density construction                  ... relaxed
The MP2 gradient is requested => amplitudes will be stored on disk
Total number of MOs              ...   36
Number of MOs treated per batch  ...    6 
Number of batches necessary      ...    1 
OPERATORS   0/  0 PASS   0
-----------------------------------------------
 MP2 CORRELATION ENERGY   :     -2.339311004 Eh
-----------------------------------------------


---------------------
MP2 DENSITY FORMATION
---------------------

Completing the external part of the density      ... done
Storing the unrelaxed density                    ... done

Calculating G(D)                                 ... done
Completing the Lagrangian                        ... done
Solving the Z-vector equations                   ... 

------------------------------------------------------------------------------
                           ORCA CP-SCF CALCULATION
------------------------------------------------------------------------------

Input orbitals are from        ... 12h2o.su.etal.mol0,1,2,5,6,7,8,9,11-orca.engrad-mp2.def2tzvp.frozencore.gbw
Input Perturbation             ... 12h2o.su.etal.mol0,1,2,5,6,7,8,9,11-orca.engrad-mp2.def2tzvp.frozencore.pin.tmp
Wavefunction output            ... 12h2o.su.etal.mol0,1,2,5,6,7,8,9,11-orca.engrad-mp2.def2tzvp.frozencore.pout.tmp
Perturbation mode              ... Real perturbation (singlet)
Solver                         ... POPLE
Max. number of iterations      ... 128
Convergence tolerance          ... 1.000e-08
Integral handling              ... Direct
Number of perturbations        ... 1
Number of operators            ... 1
Orbital ranges used for CP-SCF:
 Operator 0:  Orbitals   0... 44  to  45...386
Variables per vector in CP-SCF ... 15390
Number of vectors sought       ... 1
     CP-SCF ITERATION   0: 
     CP-SCF ITERATION   1:      0.001180299209
     CP-SCF ITERATION   2:      0.000034672377
     CP-SCF ITERATION   3:      0.000001353400
     CP-SCF ITERATION   4:      0.000000169984
     CP-SCF ITERATION   5:      0.000000014628
     CP-SCF ITERATION   6:      0.000000000926
                                                 ... done
Finalizing the relaxed density                   ... done
Transforming P to the AO basis                   ... done
Storing the relaxed density                      ... done

------------------------------------
ENERGY WEIGHTED DENSITY FINALIZATION
------------------------------------

Gathering the parts of the W-matrix              ...                                                      done
Forming the Z-density                            ... done
Transforming Z to the AO basis                   ... done
Calculating G(Z)                                 ... done
Finalizing the W-matrix                          ...                                                      done
Transforming W to the AO basis and storing       ... done

                *********************************************
                * UNRELAXED MP2 DENSITY POPULATION ANALYSIS *
                *********************************************

------------------------------------------------------------------------------
                           ORCA POPULATION ANALYSIS
------------------------------------------------------------------------------
Input electron density              ... 12h2o.su.etal.mol0,1,2,5,6,7,8,9,11-orca.engrad-mp2.def2tzvp.frozencore.pmp2ur
BaseName (.gbw .S,...)              ... 12h2o.su.etal.mol0,1,2,5,6,7,8,9,11-orca.engrad-mp2.def2tzvp.frozencore

                    ********************************
                    * MULLIKEN POPULATION ANALYSIS *
                    ********************************

-----------------------
MULLIKEN ATOMIC CHARGES
-----------------------
   0 O :   -0.793479
   1 H :    0.365528
   2 H :    0.408563
   3 O :   -0.788890
   4 H :    0.355922
   5 H :    0.410368
   6 O :   -0.757702
   7 H :    0.341041
   8 H :    0.395248
   9 O :   -0.792583
  10 H :    0.376976
  11 H :    0.405187
  12 O :   -0.761258
  13 H :    0.413033
  14 H :    0.357532
  15 O :   -0.772518
  16 H :    0.369308
  17 H :    0.375463
  18 O :   -0.721160
  19 H :    0.399930
  20 H :    0.357963
  21 O :   -0.759958
  22 H :    0.406203
  23 H :    0.382552
  24 O :   -0.736004
  25 H :    0.355287
  26 H :    0.407447
Sum of atomic charges:    0.0000000

--------------------------------
MULLIKEN REDUCED ORBITAL CHARGES
--------------------------------
  0 O s       :     3.801974  s :     3.801974
      pz      :     1.713898  p :     4.937809
      px      :     1.436025
      py      :     1.787886
      dz2     :     0.009161  d :     0.049719
      dxz     :     0.009798
      dyz     :     0.010557
      dx2y2   :     0.007879
      dxy     :     0.012324
      f0      :     0.000454  f :     0.003977
      f+1     :     0.000680
      f-1     :     0.000536
      f+2     :     0.000434
      f-2     :     0.000713
      f+3     :     0.000460
      f-3     :     0.000700
  1 H s       :     0.587727  s :     0.587727
      pz      :     0.017280  p :     0.046745
      px      :     0.014130
      py      :     0.015336
  2 H s       :     0.534093  s :     0.534093
      pz      :     0.010616  p :     0.057344
      px      :     0.033004
      py      :     0.013724
  3 O s       :     3.802128  s :     3.802128
      pz      :     1.718206  p :     4.932874
      px      :     1.438870
      py      :     1.775798
      dz2     :     0.009461  d :     0.049912
      dxz     :     0.010105
      dyz     :     0.010528
      dx2y2   :     0.007867
      dxy     :     0.011952
      f0      :     0.000456  f :     0.003976
      f+1     :     0.000685
      f-1     :     0.000537
      f+2     :     0.000432
      f-2     :     0.000714
      f+3     :     0.000458
      f-3     :     0.000694
  4 H s       :     0.597154  s :     0.597154
      pz      :     0.017456  p :     0.046923
      px      :     0.014140
      py      :     0.015327
  5 H s       :     0.532191  s :     0.532191
      pz      :     0.010569  p :     0.057441
      px      :     0.033186
      py      :     0.013686
  6 O s       :     3.804055  s :     3.804055
      pz      :     1.694348  p :     4.899169
      px      :     1.799045
      py      :     1.405776
      dz2     :     0.009211  d :     0.050468
      dxz     :     0.010924
      dyz     :     0.009649
      dx2y2   :     0.007789
      dxy     :     0.012895
      f0      :     0.000451  f :     0.004011
      f+1     :     0.000543
      f-1     :     0.000676
      f+2     :     0.000440
      f-2     :     0.000714
      f+3     :     0.000724
      f-3     :     0.000464
  7 H s       :     0.611363  s :     0.611363
      pz      :     0.017369  p :     0.047596
      px      :     0.015829
      py      :     0.014398
  8 H s       :     0.546516  s :     0.546516
      pz      :     0.011080  p :     0.058236
      px      :     0.014872
      py      :     0.032284
  9 O s       :     3.793210  s :     3.793210
      pz      :     1.605829  p :     4.945188
      px      :     1.839908
      py      :     1.499451
      dz2     :     0.015397  d :     0.050241
      dxz     :     0.007686
      dyz     :     0.007920
      dx2y2   :     0.008898
      dxy     :     0.010341
      f0      :     0.000559  f :     0.003943
      f+1     :     0.000487
      f-1     :     0.000801
      f+2     :     0.000438
      f-2     :     0.000406
      f+3     :     0.000779
      f-3     :     0.000473
 10 H s       :     0.568823  s :     0.568823
      pz      :     0.009958  p :     0.054201
      px      :     0.015675
      py      :     0.028567
 11 H s       :     0.544779  s :     0.544779
      pz      :     0.025480  p :     0.050034
      px      :     0.012978
      py      :     0.011576
 12 O s       :     3.796307  s :     3.796307
      pz      :     1.611023  p :     4.909860
      px      :     1.459737
      py      :     1.839100
      dz2     :     0.015737  d :     0.051110
      dxz     :     0.007910
      dyz     :     0.007781
      dx2y2   :     0.009043
      dxy     :     0.010640
      f0      :     0.000556  f :     0.003980
      f+1     :     0.000808
      f-1     :     0.000490
      f+2     :     0.000435
      f-2     :     0.000404
      f+3     :     0.000478
      f-3     :     0.000809
 13 H s       :     0.537095  s :     0.537095
      pz      :     0.025689  p :     0.049872
      px      :     0.011283
      py      :     0.012900
 14 H s       :     0.599030  s :     0.599030
      pz      :     0.010135  p :     0.043438
      px      :     0.018667
      py      :     0.014636
 15 O s       :     3.802260  s :     3.802260
      pz      :     1.566450  p :     4.914925
      px      :     1.488185
      py      :     1.860289
      dz2     :     0.016240  d :     0.051368
      dxz     :     0.008326
      dyz     :     0.008014
      dx2y2   :     0.008524
      dxy     :     0.010264
      f0      :     0.000549  f :     0.003965
      f+1     :     0.000809
      f-1     :     0.000489
      f+2     :     0.000439
      f-2     :     0.000406
      f+3     :     0.000479
      f-3     :     0.000794
 16 H s       :     0.580000  s :     0.580000
      pz      :     0.024269  p :     0.050692
      px      :     0.012077
      py      :     0.014346
 17 H s       :     0.568742  s :     0.568742
      pz      :     0.010674  p :     0.055795
      px      :     0.028732
      py      :     0.016390
 18 O s       :     3.792455  s :     3.792455
      pz      :     1.562678  p :     4.872230
      px      :     1.536175
      py      :     1.773378
      dz2     :     0.017181  d :     0.052474
      dxz     :     0.006653
      dyz     :     0.008030
      dx2y2   :     0.008122
      dxy     :     0.012488
      f0      :     0.000614  f :     0.004000
      f+1     :     0.000752
      f-1     :     0.000535
      f+2     :     0.000414
      f-2     :     0.000423
      f+3     :     0.000427
      f-3     :     0.000837
 19 H s       :     0.550701  s :     0.550701
      pz      :     0.024884  p :     0.049369
      px      :     0.011723
      py      :     0.012761
 20 H s       :     0.596699  s :     0.596699
      pz      :     0.011323  p :     0.045338
      px      :     0.018541
      py      :     0.015474
 21 O s       :     3.787733  s :     3.787733
      pz      :     1.571142  p :     4.916617
      px      :     1.768733
      py      :     1.576742
      dz2     :     0.016952  d :     0.051658
      dxz     :     0.007846
      dyz     :     0.006721
      dx2y2   :     0.008082
      dxy     :     0.012057
      f0      :     0.000612  f :     0.003949
      f+1     :     0.000526
      f-1     :     0.000749
      f+2     :     0.000415
      f-2     :     0.000424
      f+3     :     0.000801
      f-3     :     0.000423
 22 H s       :     0.544537  s :     0.544537
      pz      :     0.025165  p :     0.049260
      px      :     0.012553
      py      :     0.011541
 23 H s       :     0.566262  s :     0.566262
      pz      :     0.010707  p :     0.051186
      px      :     0.016265
      py      :     0.024214
 24 O s       :     3.789733  s :     3.789733
      pz      :     1.510043  p :     4.890299
      px      :     1.777804
      py      :     1.602452
      dz2     :     0.017477  d :     0.051992
      dxz     :     0.007847
      dyz     :     0.006748
      dx2y2   :     0.007986
      dxy     :     0.011934
      f0      :     0.000630  f :     0.003980
      f+1     :     0.000529
      f-1     :     0.000756
      f+2     :     0.000414
      f-2     :     0.000424
      f+3     :     0.000804
      f-3     :     0.000423
 25 H s       :     0.599266  s :     0.599266
      pz      :     0.019260  p :     0.045447
      px      :     0.013724
      py      :     0.012462
 26 H s       :     0.542125  s :     0.542125
      pz      :     0.009843  p :     0.050428
      px      :     0.015653
      py      :     0.024931


                     *******************************
                     * LOEWDIN POPULATION ANALYSIS *
                     *******************************

----------------------
LOEWDIN ATOMIC CHARGES
----------------------
   0 O :   -0.323314
   1 H :    0.161017
   2 H :    0.153917
   3 O :   -0.323434
   4 H :    0.156302
   5 H :    0.154491
   6 O :   -0.340598
   7 H :    0.151182
   8 H :    0.151760
   9 O :   -0.313434
  10 H :    0.145701
  11 H :    0.159889
  12 O :   -0.292315
  13 H :    0.163754
  14 H :    0.172362
  15 O :   -0.375951
  16 H :    0.144082
  17 H :    0.142423
  18 O :   -0.281272
  19 H :    0.160846
  20 H :    0.171286
  21 O :   -0.295794
  22 H :    0.161447
  23 H :    0.152103
  24 O :   -0.285848
  25 H :    0.165843
  26 H :    0.163555

-------------------------------
LOEWDIN REDUCED ORBITAL CHARGES
-------------------------------
  0 O s       :     3.450296  s :     3.450296
      pz      :     1.670536  p :     4.811156
      px      :     1.400000
      py      :     1.740620
      dz2     :     0.010345  d :     0.057135
      dxz     :     0.012196
      dyz     :     0.010928
      dx2y2   :     0.009356
      dxy     :     0.014309
      f0      :     0.000467  f :     0.004727
      f+1     :     0.000840
      f-1     :     0.000644
      f+2     :     0.000411
      f-2     :     0.001012
      f+3     :     0.000474
      f-3     :     0.000879
  1 H s       :     0.670401  s :     0.670401
      pz      :     0.067225  p :     0.168582
      px      :     0.047268
      py      :     0.054088
  2 H s       :     0.644551  s :     0.644551
      pz      :     0.033951  p :     0.201532
      px      :     0.118963
      py      :     0.048619
  3 O s       :     3.451386  s :     3.451386
      pz      :     1.673666  p :     4.809741
[...]
                     * LOEWDIN POPULATION ANALYSIS *
                     *******************************

----------------------
LOEWDIN ATOMIC CHARGES
----------------------
   0 O :   -0.315674
   1 H :    0.162893
   2 H :    0.145767
   3 O :   -0.316013
   4 H :    0.158059
   5 H :    0.146150
   6 O :   -0.337621
   7 H :    0.153268
   8 H :    0.144563
   9 O :   -0.303856
  10 H :    0.139317
  11 H :    0.154900
  12 O :   -0.283722
  13 H :    0.158689
  14 H :    0.172393
  15 O :   -0.375149
  16 H :    0.140127
  17 H :    0.135697
  18 O :   -0.274702
  19 H :    0.157356
  20 H :    0.173335
  21 O :   -0.287103
  22 H :    0.157517
  23 H :    0.147598
  24 O :   -0.278662
  25 H :    0.167239
  26 H :    0.157634

-------------------------------
LOEWDIN REDUCED ORBITAL CHARGES
-------------------------------
  0 O s       :     3.451647  s :     3.451647
      pz      :     1.664863  p :     4.802518
      px      :     1.403971
      py      :     1.733683
      dz2     :     0.010426  d :     0.056742
      dxz     :     0.011875
      dyz     :     0.010888
      dx2y2   :     0.009424
      dxy     :     0.014129
      f0      :     0.000470  f :     0.004767
      f+1     :     0.000851
      f-1     :     0.000646
      f+2     :     0.000412
      f-2     :     0.001014
      f+3     :     0.000479
      f-3     :     0.000895
  1 H s       :     0.668713  s :     0.668713
      pz      :     0.067032  p :     0.168394
      px      :     0.046879
      py      :     0.054483
  2 H s       :     0.652383  s :     0.652383
      pz      :     0.034432  p :     0.201850
      px      :     0.118375
      py      :     0.049042
  3 O s       :     3.452994  s :     3.452994
      pz      :     1.668956  p :     4.801021
      px      :     1.404689
      py      :     1.727375
      dz2     :     0.010734  d :     0.057219
      dxz     :     0.012244
      dyz     :     0.011015
      dx2y2   :     0.009427
      dxy     :     0.013800
      f0      :     0.000478  f :     0.004780
      f+1     :     0.000857
      f-1     :     0.000645
      f+2     :     0.000412
      f-2     :     0.001024
      f+3     :     0.000480
      f-3     :     0.000885
  4 H s       :     0.673325  s :     0.673325
      pz      :     0.067618  p :     0.168615
      px      :     0.046896
      py      :     0.054101
  5 H s       :     0.651709  s :     0.651709
      pz      :     0.034628  p :     0.202141
      px      :     0.118800
      py      :     0.048712
  6 O s       :     3.458879  s :     3.458879
      pz      :     1.657808  p :     4.816553
      px      :     1.768748
      py      :     1.389997
      dz2     :     0.010330  d :     0.057385
      dxz     :     0.011427
      dyz     :     0.012110
      dx2y2   :     0.008862
      dxy     :     0.014655
      f0      :     0.000468  f :     0.004804
      f+1     :     0.000649
      f-1     :     0.000853
      f+2     :     0.000412
      f-2     :     0.001030
      f+3     :     0.000915
      f-3     :     0.000476
  7 H s       :     0.678638  s :     0.678638
      pz      :     0.066847  p :     0.168093
      px      :     0.055034
      py      :     0.046212
  8 H s       :     0.657311  s :     0.657311
      pz      :     0.034829  p :     0.198126
      px      :     0.049045
      py      :     0.114252
  9 O s       :     3.445496  s :     3.445496
      pz      :     1.552709  p :     4.796480
      px      :     1.767869
      py      :     1.475901
      dz2     :     0.018919  d :     0.057127
      dxz     :     0.006954
      dyz     :     0.008810
      dx2y2   :     0.010663
      dxy     :     0.011780
      f0      :     0.000757  f :     0.004754
      f+1     :     0.000589
      f-1     :     0.001134
      f+2     :     0.000413
      f-2     :     0.000419
      f+3     :     0.000986
      f-3     :     0.000456
 10 H s       :     0.671206  s :     0.671206
      pz      :     0.032265  p :     0.189477
      px      :     0.054249
      py      :     0.102963
 11 H s       :     0.666699  s :     0.666699
      pz      :     0.096782  p :     0.178401
      px      :     0.043761
      py      :     0.037857
 12 O s       :     3.452105  s :     3.452105
      pz      :     1.555659  p :     4.768346
      px      :     1.448289
      py      :     1.764399
      dz2     :     0.019564  d :     0.058457
      dxz     :     0.008741
      dyz     :     0.006973
      dx2y2   :     0.010941
      dxy     :     0.012238
      f0      :     0.000752  f :     0.004813
      f+1     :     0.001141
      f-1     :     0.000594
      f+2     :     0.000412
      f-2     :     0.000414
      f+3     :     0.000455
      f-3     :     0.001047
 13 H s       :     0.664093  s :     0.664093
      pz      :     0.097359  p :     0.177218
      px      :     0.036348
      py      :     0.043511
 14 H s       :     0.669305  s :     0.669305
      pz      :     0.032099  p :     0.158302
      px      :     0.075329
      py      :     0.050874
 15 O s       :     3.461727  s :     3.461727
      pz      :     1.556736  p :     4.851841
      px      :     1.474131
      py      :     1.820975
      dz2     :     0.019242  d :     0.056827
      dxz     :     0.009305
      dyz     :     0.007119
      dx2y2   :     0.009581
      dxy     :     0.011580
      f0      :     0.000770  f :     0.004754
      f+1     :     0.001157
      f-1     :     0.000574
      f+2     :     0.000416
      f-2     :     0.000415
      f+3     :     0.000447
      f-3     :     0.000974
 16 H s       :     0.683633  s :     0.683633
      pz      :     0.092667  p :     0.176240
      px      :     0.038564
      py      :     0.045010
 17 H s       :     0.674989  s :     0.674989
      pz      :     0.032038  p :     0.189314
      px      :     0.103043
      py      :     0.054232
 18 O s       :     3.450665  s :     3.450665
      pz      :     1.534997  p :     4.759480
      px      :     1.520678
      py      :     1.703804
      dz2     :     0.020870  d :     0.059622
      dxz     :     0.007056
      dyz     :     0.007436
      dx2y2   :     0.009378
      dxy     :     0.014883
      f0      :     0.000839  f :     0.004935
      f+1     :     0.000991
      f-1     :     0.000736
      f+2     :     0.000391
      f-2     :     0.000421
      f+3     :     0.000408
      f-3     :     0.001149
 19 H s       :     0.667890  s :     0.667890
      pz      :     0.094817  p :     0.174755
      px      :     0.036970
      py      :     0.042968
 20 H s       :     0.665380  s :     0.665380
      pz      :     0.032344  p :     0.161285
      px      :     0.072782
      py      :     0.056160
 21 O s       :     3.441925  s :     3.441925
      pz      :     1.539392  p :     4.782618
      px      :     1.701232
      py      :     1.541993
      dz2     :     0.020086  d :     0.057733
      dxz     :     0.007282
      dyz     :     0.007119
      dx2y2   :     0.009222
      dxy     :     0.014025
      f0      :     0.000835  f :     0.004826
      f+1     :     0.000721
      f-1     :     0.000970
      f+2     :     0.000390
      f-2     :     0.000425
      f+3     :     0.001076
      f-3     :     0.000409
 22 H s       :     0.666039  s :     0.666039
      pz      :     0.095953  p :     0.176444
      px      :     0.042494
      py      :     0.037997
 23 H s       :     0.673808  s :     0.673808
      pz      :     0.032642  p :     0.178595
      px      :     0.059114
      py      :     0.086840
 24 O s       :     3.447562  s :     3.447562
      pz      :     1.506882  p :     4.767667
      px      :     1.706016
      py      :     1.554768
      dz2     :     0.021370  d :     0.058548
      dxz     :     0.007358
      dyz     :     0.007408
      dx2y2   :     0.009004
      dxy     :     0.013408
      f0      :     0.000893  f :     0.004886
      f+1     :     0.000724
      f-1     :     0.001001
      f+2     :     0.000391
      f-2     :     0.000427
      f+3     :     0.001040
      f-3     :     0.000409
 25 H s       :     0.670182  s :     0.670182
      pz      :     0.081187  p :     0.162579
      px      :     0.043421
      py      :     0.037970
 26 H s       :     0.663007  s :     0.663007
      pz      :     0.030127  p :     0.179359
      px      :     0.059108
      py      :     0.090125


                      *****************************
                      * MAYER POPULATION ANALYSIS *
                      *****************************

  NA   - Mulliken gross atomic population
  ZA   - Total nuclear charge
  QA   - Mulliken gross atomic charge
  VA   - Mayer's total valence
  BVA  - Mayer's bonded valence
  FA   - Mayer's free valence

  ATOM       NA         ZA         QA         VA         BVA        FA
  0 O      8.7616     8.0000    -0.7616     2.0318     1.6408     0.3911
  1 H      0.6417     1.0000     0.3583     0.8932     0.8477     0.0455
  2 H      0.6164     1.0000     0.3836     0.9062     0.8617     0.0445
  3 O      8.7571     8.0000    -0.7571     2.0346     1.6435     0.3911
  4 H      0.6514     1.0000     0.3486     0.8998     0.8533     0.0465
  5 H      0.6163     1.0000     0.3837     0.9089     0.8644     0.0445
  6 O      8.7324     8.0000    -0.7324     2.0382     1.6500     0.3882
  7 H      0.6653     1.0000     0.3347     0.9086     0.8612     0.0474
  8 H      0.6275     1.0000     0.3725     0.9096     0.8646     0.0451
  9 O      8.7552     8.0000    -0.7552     2.0430     1.6525     0.3905
 10 H      0.6447     1.0000     0.3553     0.9262     0.8794     0.0468
 11 H      0.6135     1.0000     0.3865     0.9027     0.8602     0.0425
 12 O      8.7297     8.0000    -0.7297     2.0845     1.6965     0.3880
 13 H      0.6049     1.0000     0.3951     0.8919     0.8502     0.0417
 14 H      0.6519     1.0000     0.3481     0.9118     0.8635     0.0482
 15 O      8.7466     8.0000    -0.7466     2.0329     1.6431     0.3898
 16 H      0.6455     1.0000     0.3545     0.9163     0.8706     0.0457
 17 H      0.6470     1.0000     0.3530     0.9318     0.8853     0.0465
 18 O      8.6940     8.0000    -0.6940     2.1027     1.7208     0.3818
 19 H      0.6133     1.0000     0.3867     0.8851     0.8422     0.0429
 20 H      0.6475     1.0000     0.3525     0.8941     0.8474     0.0467
 21 O      8.7247     8.0000    -0.7247     2.0841     1.6986     0.3855
 22 H      0.6081     1.0000     0.3919     0.8858     0.8432     0.0426
 23 H      0.6345     1.0000     0.3655     0.9135     0.8688     0.0448
 24 O      8.7060     8.0000    -0.7060     2.0889     1.7054     0.3835
 25 H      0.6506     1.0000     0.3494     0.8991     0.8521     0.0470
 26 H      0.6124     1.0000     0.3876     0.9049     0.8626     0.0424

  Mayer bond orders larger than 0.100000
B(  0-O ,  1-H ) :   0.8365 B(  0-O ,  2-H ) :   0.7304 B(  2-H , 24-O ) :   0.1176 
B(  3-O ,  4-H ) :   0.8409 B(  3-O ,  5-H ) :   0.7263 B(  5-H , 21-O ) :   0.1219 
B(  6-O ,  7-H ) :   0.8519 B(  6-O ,  8-H ) :   0.7632 B(  9-O , 10-H ) :   0.7838 
B(  9-O , 11-H ) :   0.7867 B( 12-O , 13-H ) :   0.7817 B( 12-O , 14-H ) :   0.8303 
B( 15-O , 16-H ) :   0.8286 B( 15-O , 17-H ) :   0.7992 B( 18-O , 19-H ) :   0.8030 
B( 18-O , 20-H ) :   0.8403 B( 21-O , 22-H ) :   0.7935 B( 21-O , 23-H ) :   0.8062 
B( 24-O , 25-H ) :   0.8410 B( 24-O , 26-H ) :   0.7748 


----------------------------------
MP2 DERIVATIVE INTEGRAL GENERATION
----------------------------------


Input Wavefunction Amplitudes       ... 12h2o.su.etal.mol0,1,2,5,6,7,8,9,11-orca.engrad-mp2.def2tzvp.frozencore.mp2tsaa.tmp
Input Correlated Electron Density   ... 12h2o.su.etal.mol0,1,2,5,6,7,8,9,11-orca.engrad-mp2.def2tzvp.frozencore.pmp2re
Input Energy Weighted Density       ... 12h2o.su.etal.mol0,1,2,5,6,7,8,9,11-orca.engrad-mp2.def2tzvp.frozencore.wmp2.tmp
Input SCF Electron Density          ... 12h2o.su.etal.mol0,1,2,5,6,7,8,9,11-orca.engrad-mp2.def2tzvp.frozencore.scfp

One-Electron Terms    ...
                        ... One-Electron Terms done
Prescreening matrices              ... done

Batch handling in the gradient evaluation:
Memory available                      ... 8000.0 MB
Memory per occupied orbital in Q2     ...   41.1 MB
Memory per occupied orbital in Q3     ...    0.1 MB
Total memory requirement per |i>      ...   41.3 MB
Max. Number of orbitals possible      ...    193
Number of orbitals treated per batch  ...     36
Number of batches to be done          ...      1
Batch   0: i=    9 ...    44

---------------------------------------
MP2 TOTAL ENERGY:     -686.930514879 Eh
---------------------------------------

The final MP2 gradient
  0:   0.00241846  -0.00124897   0.00361678
  1:  -0.00073586  -0.00066447  -0.00147802
  2:  -0.00362974   0.00093734  -0.00324427
  3:  -0.00268268  -0.00495650  -0.00442158
  4:   0.00004398   0.00106003  -0.00112671
  5:   0.00283423   0.00168451  -0.00019602
  6:  -0.00590636  -0.00547192  -0.00308075
  7:  -0.00016746  -0.00096620   0.00060936
  8:   0.00540639   0.01358577   0.00258290
  9:  -0.00778378  -0.00421694  -0.00489168
 10:   0.00241623   0.00864539   0.00169305
 11:   0.00226464   0.00002017   0.00443717
 12:   0.01632496  -0.01069352   0.00257798
 13:  -0.00036566  -0.00001758  -0.00527514
 14:  -0.01439733   0.00797712   0.00029147
 15:  -0.00408226  -0.00113832  -0.00365764
 16:  -0.00374035  -0.00163234   0.00525958
 17:   0.01036517  -0.00183818   0.00133984
 18:   0.00738028  -0.00967748  -0.00158008
 19:  -0.00112419  -0.00007980   0.00006756
 20:  -0.00824985   0.00465043   0.00139987
 21:   0.00014777  -0.00279290  -0.00083267
 22:  -0.00015043   0.00130687   0.00277266
 23:  -0.00123619   0.00220932   0.00004600
 24:  -0.00368532  -0.00443938   0.01057800
 25:   0.00381394   0.00137231  -0.00839326
 26:   0.00452141   0.00638525   0.00090560

-----------------------------------
NORM OF THE MP2 GRADIENT:  0.045346
-----------------------------------

-------------------------   --------------------
FINAL SINGLE POINT ENERGY      -686.930514879195
-------------------------   --------------------


                            ***************************************
                            *     ORCA property calculations      *
                            ***************************************

                                    ---------------------
                                    Active property flags
                                    ---------------------
   (+) Dipole Moment


------------------------------------------------------------------------------
                       ORCA ELECTRIC PROPERTIES CALCULATION
------------------------------------------------------------------------------

Dipole Moment Calculation                       ... on
Quadrupole Moment Calculation                   ... off
Polarizability Calculation                      ... off
GBWName                                         ... 12h2o.su.etal.mol0,1,2,5,6,7,8,9,11-orca.engrad-mp2.def2tzvp.frozencore.gbw
Electron density file                           ... 12h2o.su.etal.mol0,1,2,5,6,7,8,9,11-orca.engrad-mp2.def2tzvp.frozencore.scfp
The origin for moment calculation is the CENTER OF MASS  = ( 0.757286, -0.567220  1.188502)

-------------
DIPOLE MOMENT
-------------
                                X             Y             Z
Electronic contribution:      0.27700       0.13298       0.03201
Nuclear contribution   :      0.67812       1.32903       0.72077
                        -----------------------------------------
Total Dipole Moment    :      0.95513       1.46201       0.75278
                        -----------------------------------------
Magnitude (a.u.)       :      1.90169
Magnitude (Debye)      :      4.83371



--------------------
Rotational spectrum 
--------------------
 
Rotational constants in cm-1:     0.032207     0.015970     0.013932 
Rotational constants in MHz :   965.534775   478.760006   417.659881 

 Dipole components along the rotational axes: 
x,y,z [a.u.] :     0.591164    -1.806980    -0.042140 
x,y,z [Debye]:     1.502620    -4.592977    -0.107110 

 

                         *** MP2 UNRELAXED DENSITY ***

------------------------------------------------------------------------------
                       ORCA ELECTRIC PROPERTIES CALCULATION
------------------------------------------------------------------------------

Dipole Moment Calculation                       ... on
Quadrupole Moment Calculation                   ... off
Polarizability Calculation                      ... off
GBWName                                         ... 12h2o.su.etal.mol0,1,2,5,6,7,8,9,11-orca.engrad-mp2.def2tzvp.frozencore.gbw
Electron density file                           ... 12h2o.su.etal.mol0,1,2,5,6,7,8,9,11-orca.engrad-mp2.def2tzvp.frozencore.pmp2ur
The origin for moment calculation is the CENTER OF MASS  = ( 0.757286, -0.567220  1.188502)

-------------
DIPOLE MOMENT
-------------
                                X             Y             Z
Electronic contribution:      0.27325       0.12164       0.02456
Nuclear contribution   :      0.67812       1.32903       0.72077
                        -----------------------------------------
Total Dipole Moment    :      0.95137       1.45067       0.74532
                        -----------------------------------------
Magnitude (a.u.)       :      1.88813
Magnitude (Debye)      :      4.79926



--------------------
Rotational spectrum 
--------------------
 
Rotational constants in cm-1:     0.032207     0.015970     0.013932 
Rotational constants in MHz :   965.534775   478.760006   417.659881 

 Dipole components along the rotational axes: 
x,y,z [a.u.] :     0.583982    -1.795117    -0.039673 
x,y,z [Debye]:     1.484364    -4.562824    -0.100841 

 

                           *** MP2 RELAXED DENSITY ***

------------------------------------------------------------------------------
                       ORCA ELECTRIC PROPERTIES CALCULATION
------------------------------------------------------------------------------

Dipole Moment Calculation                       ... on
Quadrupole Moment Calculation                   ... off
Polarizability Calculation                      ... off
GBWName                                         ... 12h2o.su.etal.mol0,1,2,5,6,7,8,9,11-orca.engrad-mp2.def2tzvp.frozencore.gbw
Electron density file                           ... 12h2o.su.etal.mol0,1,2,5,6,7,8,9,11-orca.engrad-mp2.def2tzvp.frozencore.pmp2re
The origin for moment calculation is the CENTER OF MASS  = ( 0.757286, -0.567220  1.188502)

-------------
DIPOLE MOMENT
-------------
                                X             Y             Z
Electronic contribution:      0.26685       0.12344       0.00591
Nuclear contribution   :      0.67812       1.32903       0.72077
                        -----------------------------------------
Total Dipole Moment    :      0.94498       1.45247       0.72668
                        -----------------------------------------
Magnitude (a.u.)       :      1.87902
Magnitude (Debye)      :      4.77608



--------------------
Rotational spectrum 
--------------------
 
Rotational constants in cm-1:     0.032207     0.015970     0.013932 
Rotational constants in MHz :   965.534775   478.760006   417.659881 

 Dipole components along the rotational axes: 
x,y,z [a.u.] :     0.568286    -1.790302    -0.050729 
x,y,z [Debye]:     1.444469    -4.550586    -0.128942 

 

Timings for individual modules:

Sum of individual times         ...      298.044 sec (=   4.967 min)
GTO integral calculation        ...        1.158 sec (=   0.019 min)   0.4 %
SCF iterations                  ...       41.249 sec (=   0.687 min)  13.8 %
MP2 module                      ...      255.636 sec (=   4.261 min)  85.8 %
                             ****ORCA TERMINATED NORMALLY****
TOTAL RUN TIME: 0 days 0 hours 4 minutes 59 seconds 38 msec
