
                                 *****************
                                 * O   R   C   A *
                                 *****************

           --- An Ab Initio, DFT and Semiempirical electronic structure package ---

                  #######################################################
                  #                        -***-                        #
                  #          Department of theory and spectroscopy      #
                  #               Directorship: Frank Neese             #
                  #        Max Planck Institute fuer Kohlenforschung    #
                  #                Kaiser Wilhelm Platz 1               #
                  #                 D-45470 Muelheim/Ruhr               #
                  #                      Germany                        #
                  #                                                     #
                  #                  All rights reserved                #
                  #                        -***-                        #
                  #######################################################


                         Program Version 4.2.0 -  RELEASE  -


 With contributions from (in alphabetic order):
   Daniel Aravena         : Magnetic Suceptibility
   Michael Atanasov       : Ab Initio Ligand Field Theory (pilot matlab implementation)
   Alexander A. Auer      : GIAO ZORA, VPT2
   Ute Becker             : Parallelization
   Giovanni Bistoni       : ED, misc. LED, open-shell LED, HFLED
   Martin Brehm           : Molecular dynamics
   Dmytro Bykov           : SCF Hessian
   Vijay G. Chilkuri      : MRCI spin determinant printing, contributions to CSF-ICE
   Dipayan Datta          : RHF DLPNO-CCSD density
   Achintya Kumar Dutta   : EOM-CC, STEOM-CC
   Dmitry Ganyushin       : Spin-Orbit,Spin-Spin,Magnetic field MRCI
   Miquel Garcia          : C-PCM Hessian, Gaussian charge scheme
   Yang Guo               : DLPNO-NEVPT2, CIM, IAO-localization
   Andreas Hansen         : Spin unrestricted coupled pair/coupled cluster methods
   Benjamin Helmich-Paris : CASSCF linear response (MC-RPA)
   Lee Huntington         : MR-EOM, pCC
   Robert Izsak           : Overlap fitted RIJCOSX, COSX-SCS-MP3, EOM
   Christian Kollmar      : KDIIS, OOCD, Brueckner-CCSD(T), CCSD density
   Simone Kossmann        : Meta GGA functionals, TD-DFT gradient, OOMP2, MP2 Hessian
   Martin Krupicka        : AUTO-CI
   Lucas Lang             : DCDCAS
   Dagmar Lenk            : GEPOL surface, SMD
   Dimitrios Liakos       : Extrapolation schemes; Compound Job, initial MDCI parallelization
   Dimitrios Manganas     : Further ROCIS development; embedding schemes
   Dimitrios Pantazis     : SARC Basis sets
   Taras Petrenko         : DFT Hessian,TD-DFT gradient, ASA, ECA, R-Raman, ABS, FL, XAS/XES, NRVS
   Peter Pinski           : DLPNO-MP2, DLPNO-MP2 Gradient
   Christoph Reimann      : Effective Core Potentials
   Marius Retegan         : Local ZFS, SOC
   Christoph Riplinger    : Optimizer, TS searches, QM/MM, DLPNO-CCSD(T), (RO)-DLPNO pert. Triples
   Tobias Risthaus        : Range-separated hybrids, TD-DFT gradient, RPA, STAB
   Michael Roemelt        : Original ROCIS implementation
   Masaaki Saitow         : Open-shell DLPNO-CCSD energy and density
   Barbara Sandhoefer     : DKH picture change effects
   Avijit Sen             : IP-ROCIS
   Kantharuban Sivalingam : CASSCF convergence, NEVPT2, FIC-MRCI
   Bernardo de Souza      : ESD, SOC TD-DFT
   Georgi Stoychev        : AutoAux, RI-MP2 NMR
   Willem Van den Heuvel  : Paramagnetic NMR
   Boris Wezisla          : Elementary symmetry handling
   Frank Wennmohs         : Technical directorship


 We gratefully acknowledge several colleagues who have allowed us to
 interface, adapt or use parts of their codes:
   Stefan Grimme, W. Hujo, H. Kruse,             : VdW corrections, initial TS optimization,
                  C. Bannwarth                     DFT functionals, gCP, sTDA/sTD-DF
   Ed Valeev, F. Pavosevic, A. Kumar             : LibInt (2-el integral package), F12 methods
   Garnet Chan, S. Sharma, J. Yang, R. Olivares  : DMRG
   Ulf Ekstrom                                   : XCFun DFT Library
   Mihaly Kallay                                 : mrcc  (arbitrary order and MRCC methods)
   Andreas Klamt, Michael Diedenhofen            : otool_cosmo (COSMO solvation model)
   Jiri Pittner, Ondrej Demel                    : Mk-CCSD
   Frank Weinhold                                : gennbo (NPA and NBO analysis)
   Christopher J. Cramer and Donald G. Truhlar   : smd solvation model
   Lars Goerigk                                  : TD-DFT with DH, B97 family of functionals
   V. Asgeirsson, H. Jonsson                     : NEB implementation
   FAccTs GmbH                                   : IRC, NEB, NEB-TS, Multilevel, MM, QM/MM, CI optimization
   S Lehtola, MJT Oliveira, MAL Marques          : LibXC Library


 Your calculation uses the libint2 library for the computation of 2-el integrals
 For citations please refer to: http://libint.valeyev.net

 Your ORCA version has been built with support for libXC version: 4.2.3
 For citations please refer to: https://tddft.org/programs/libxc/

 This ORCA versions uses:
   CBLAS   interface :  Fast vector & matrix operations
   LAPACKE interface :  Fast linear algebra routines
   SCALAPACK package :  Parallel linear algebra routines


----- Orbital basis set information -----
Your calculation utilizes the basis: def2-TZVP
   F. Weigend and R. Ahlrichs, Phys. Chem. Chem. Phys. 7, 3297 (2005).

================================================================================
                                        WARNINGS
                       Please study these warnings very carefully!
================================================================================


WARNING: The frozen-core approximation for MP2-gradient calculations is turned on by default.

INFO   : the flag for use of LIBINT has been found!

================================================================================
                                       INPUT FILE
================================================================================
NAME = 12h2o.su.etal.mol0,1,3,11-orca.engrad-mp2.def2tzvp.frozencore.inp
|  1> # 12h2o.su.etal.mol0,1,3,11
|  2> ! MP2 def2-TZVP EnGrad TightSCF
|  3> 
|  4> %pal
|  5>     nprocs 6
|  6> end
|  7> 
|  8> %maxcore 8000
|  9> 
| 10> %scf
| 11>     ConvForced true
| 12> end
| 13> 
| 14> *xyz 0 1
| 15> O   1.794470000   0.923410000   2.768350000
| 16> H   2.338250000   1.359750000   3.430940000
| 17> H   0.879480000   1.303000000   2.865760000
| 18> O  -1.794470000  -0.923410000   2.768350000
| 19> H  -2.338250000  -1.359750000   3.430940000
| 20> H  -0.879480000  -1.303000000   2.865760000
| 21> O  -1.752130000  -0.741530000  -2.896280000
| 22> H  -2.036450000  -0.920500000  -1.984040000
| 23> H  -0.921210000  -1.242140000  -2.984230000
| 24> O  -0.741530000   1.752130000   2.896280000
| 25> H  -0.920500000   2.036450000   1.984040000
| 26> H  -1.242140000   0.921210000   2.984230000
| 27> *
| 28> 
| 29>                          ****END OF INPUT****
================================================================================

                     *******************************
                     * Energy+Gradient Calculation *
                     *******************************

---------------------------------
CARTESIAN COORDINATES (ANGSTROEM)
---------------------------------
  O      1.794470    0.923410    2.768350
  H      2.338250    1.359750    3.430940
  H      0.879480    1.303000    2.865760
  O     -1.794470   -0.923410    2.768350
  H     -2.338250   -1.359750    3.430940
  H     -0.879480   -1.303000    2.865760
  O     -1.752130   -0.741530   -2.896280
  H     -2.036450   -0.920500   -1.984040
  H     -0.921210   -1.242140   -2.984230
  O     -0.741530    1.752130    2.896280
  H     -0.920500    2.036450    1.984040
  H     -1.242140    0.921210    2.984230

----------------------------
CARTESIAN COORDINATES (A.U.)
----------------------------
  NO LB      ZA    FRAG     MASS         X           Y           Z
   0 O     8.0000    0    15.999    3.391057    1.744992    5.231423
   1 H     1.0000    0     1.008    4.418652    2.569555    6.483537
   2 H     1.0000    0     1.008    1.661976    2.462313    5.415502
   3 O     8.0000    0    15.999   -3.391057   -1.744992    5.231423
   4 H     1.0000    0     1.008   -4.418652   -2.569555    6.483537
   5 H     1.0000    0     1.008   -1.661976   -2.462313    5.415502
   6 O     8.0000    0    15.999   -3.311046   -1.401289   -5.473176
   7 H     1.0000    0     1.008   -3.848333   -1.739493   -3.749292
   8 H     1.0000    0     1.008   -1.740835   -2.347304   -5.639377
   9 O     8.0000    0    15.999   -1.401289    3.311046    5.473176
  10 H     1.0000    0     1.008   -1.739493    3.848333    3.749292
  11 H     1.0000    0     1.008   -2.347304    1.740835    5.639377

--------------------------------
INTERNAL COORDINATES (ANGSTROEM)
--------------------------------
 O      0   0   0     0.000000000000     0.00000000     0.00000000
 H      1   0   0     0.961828878803     0.00000000     0.00000000
 H      1   2   0     0.995381322057   106.21731035     0.00000000
 O      3   1   2     3.480861789658   117.35405144   223.81249033
 H      4   3   1     0.961828878803   134.84484566    98.22461471
 H      4   3   1     0.995381322057    62.29205096    12.66575463
 O      4   3   1     5.667707300743    90.09768939   276.02472436
 H      7   4   3     0.972136791249    18.92045113   191.47242104
 H      7   4   3     0.974050112161    94.59568686    71.02022155
 O      3   1   2     1.682356278379   171.61043709   195.73896161
 H     10   3   1     0.972136791249   103.79460456   289.35412162
 H     10   3   1     0.974050112161   105.61118924    38.30604821

---------------------------
INTERNAL COORDINATES (A.U.)
---------------------------
 O      0   0   0     0.000000000000     0.00000000     0.00000000
 H      1   0   0     1.817593168635     0.00000000     0.00000000
 H      1   2   0     1.880998097508   106.21731035     0.00000000
 O      3   1   2     6.577875492484   117.35405144   223.81249033
 H      4   3   1     1.817593168635   134.84484566    98.22461471
 H      4   3   1     1.880998097508    62.29205096    12.66575463
 O      4   3   1    10.710414605631    90.09768939   276.02472436
 H      7   4   3     1.837072300170    18.92045113   191.47242104
 H      7   4   3     1.840687952699    94.59568686    71.02022155
 O      3   1   2     3.179192625819   171.61043709   195.73896161
 H     10   3   1     1.837072300170   103.79460456   289.35412162
 H     10   3   1     1.840687952699   105.61118924    38.30604821

---------------------
BASIS SET INFORMATION
---------------------
There are 2 groups of distinct atoms

 Group   1 Type O   : 11s6p2d1f contracted to 5s3p2d1f pattern {62111/411/11/1}
 Group   2 Type H   : 5s1p contracted to 3s1p pattern {311/1}

Atom   0O    basis set group =>   1
Atom   1H    basis set group =>   2
Atom   2H    basis set group =>   2
Atom   3O    basis set group =>   1
Atom   4H    basis set group =>   2
Atom   5H    basis set group =>   2
Atom   6O    basis set group =>   1
Atom   7H    basis set group =>   2
Atom   8H    basis set group =>   2
Atom   9O    basis set group =>   1
Atom  10H    basis set group =>   2
Atom  11H    basis set group =>   2


           ************************************************************
           *        Program running with 6 parallel MPI-processes     *
           *              working on a common directory               *
           ************************************************************
------------------------------------------------------------------------------
                           ORCA GTO INTEGRAL CALCULATION
------------------------------------------------------------------------------

                         BASIS SET STATISTICS AND STARTUP INFO

 # of primitive gaussian shells          ...  128
 # of primitive gaussian functions       ...  248
 # of contracted shells                  ...   76
 # of contracted basis functions         ...  172
 Highest angular momentum                ...    3
 Maximum contraction depth               ...    6
 Integral package used                   ... LIBINT
 Integral threshhold            Thresh   ...  2.500e-11
 Primitive cut-off              TCut     ...  2.500e-12


------------------------------ INTEGRAL EVALUATION ----------------------------


 * One electron integrals 
 Pre-screening matrix                    ... done
 Shell pair data                         ... done (   0.001 sec)



           ************************************************************
           *        Program running with 6 parallel MPI-processes     *
           *              working on a common directory               *
           ************************************************************
-------------------------------------------------------------------------------
                                 ORCA SCF
-------------------------------------------------------------------------------

------------
SCF SETTINGS
------------
Hamiltonian:
 Ab initio Hamiltonian  Method          .... Hartree-Fock(GTOs)


General Settings:
 Integral files         IntName         .... 12h2o.su.etal.mol0,1,3,11-orca.engrad-mp2.def2tzvp.frozencore
 Hartree-Fock type      HFTyp           .... RHF
 Total Charge           Charge          ....    0
 Multiplicity           Mult            ....    1
 Number of Electrons    NEL             ....   40
 Basis Dimension        Dim             ....  172
 Nuclear Repulsion      ENuc            ....    113.4367680446 Eh

Convergence Acceleration:
 DIIS                   CNVDIIS         .... on
   Start iteration      DIISMaxIt       ....    12
   Startup error        DIISStart       ....  0.200000
   # of expansion vecs  DIISMaxEq       ....     5
   Bias factor          DIISBfac        ....   1.050
   Max. coefficient     DIISMaxC        ....  10.000
 Newton-Raphson         CNVNR           .... off
 SOSCF                  CNVSOSCF        .... on
   Start iteration      SOSCFMaxIt      ....   150
   Startup grad/error   SOSCFStart      ....  0.003300
 Level Shifting         CNVShift        .... on
   Level shift para.    LevelShift      ....    0.2500
   Turn off err/grad.   ShiftErr        ....    0.0010
 Zerner damping         CNVZerner       .... off
 Static damping         CNVDamp         .... on
   Fraction old density DampFac         ....    0.7000
   Max. Damping (<1)    DampMax         ....    0.9800
   Min. Damping (>=0)   DampMin         ....    0.0000
   Turn off err/grad.   DampErr         ....    0.1000
 Fernandez-Rico         CNVRico         .... off

SCF Procedure:
 Maximum # iterations   MaxIter         ....   125
 SCF integral mode      SCFMode         .... Direct
   Integral package                     .... LIBINT
 Reset frequency        DirectResetFreq ....    20
 Integral Threshold     Thresh          ....  2.500e-11 Eh
 Primitive CutOff       TCut            ....  2.500e-12 Eh

Convergence Tolerance:
 Convergence Check Mode ConvCheckMode   .... Total+1el-Energy
 Convergence forced     ConvForced      .... 1
 Energy Change          TolE            ....  1.000e-08 Eh
 1-El. energy change                    ....  1.000e-05 Eh
 Orbital Gradient       TolG            ....  1.000e-05
 Orbital Rotation angle TolX            ....  1.000e-05
 DIIS Error             TolErr          ....  5.000e-07


Diagonalization of the overlap matrix:
Smallest eigenvalue                        ... 4.624e-03
Time for diagonalization                   ...    0.005 sec
Threshold for overlap eigenvalues          ... 1.000e-08
Number of eigenvalues below threshold      ... 0
Time for construction of square roots      ...    0.002 sec
Total time needed                          ...    0.007 sec

-------------------
DFT GRID GENERATION
-------------------

General Integration Accuracy     IntAcc      ...  4.340
Radial Grid Type                 RadialGrid  ... Gauss-Chebyshev
Angular Grid (max. acc.)         AngularGrid ... Lebedev-110
Angular grid pruning method      GridPruning ... 3 (G Style)
Weight generation scheme         WeightScheme... Becke
Basis function cutoff            BFCut       ...    1.0000e-11
Integration weight cutoff        WCut        ...    1.0000e-14
Grids for H and He will be reduced by one unit

# of grid points (after initial pruning)     ...  13216 (   0.0 sec)
# of grid points (after weights+screening)   ...  12821 (   0.0 sec)
nearest neighbour list constructed           ...    0.0 sec
Grid point re-assignment to atoms done       ...    0.0 sec
Grid point division into batches done        ...    0.0 sec
Reduced shell lists constructed in    0.0 sec

Total number of grid points                  ...    12821
Total number of batches                      ...      207
Average number of points per batch           ...       61
Average number of grid points per atom       ...     1068
Average number of shells per batch           ...    37.11 (48.83%)
Average number of basis functions per batch  ...    76.33 (44.38%)
Average number of large shells per batch     ...    26.83 (72.31%)
Average number of large basis fcns per batch ...    54.72 (71.69%)
Maximum spatial batch extension              ...  12.95, 19.62, 15.12 au
Average spatial batch extension              ...   0.74,  0.91,  0.73 au

Time for grid setup =    0.030 sec

------------------------------
INITIAL GUESS: MODEL POTENTIAL
------------------------------
Loading Hartree-Fock densities                     ... done
Calculating cut-offs                               ... done
Setting up the integral package                    ... done
Initializing the effective Hamiltonian             ... done
Starting the Coulomb interaction                   ... done (   0.0 sec)
Reading the grid                                   ... done
Mapping shells                                     ... done
Starting the XC term evaluation                    ... done (   0.0 sec)
Transforming the Hamiltonian                       ... done (   0.0 sec)
Diagonalizing the Hamiltonian                      ... done (   0.0 sec)
Back transforming the eigenvectors                 ... done (   0.0 sec)
Now organizing SCF variables                       ... done
                      ------------------
                      INITIAL GUESS DONE (   0.1 sec)
                      ------------------
--------------
SCF ITERATIONS
--------------
ITER       Energy         Delta-E        Max-DP      RMS-DP      [F,P]     Damp
               ***  Starting incremental Fock matrix formation  ***
  0   -303.8684496985   0.000000000000 0.04408806  0.00120288  0.3497670 0.7000
  1   -304.0162575050  -0.147807806487 0.02931283  0.00082880  0.2163151 0.7000
                               ***Turning on DIIS***
  2   -304.0939393902  -0.077681885165 0.01639092  0.00045721  0.1637760 0.7000
  3   -304.7783550654  -0.684415675257 0.00755479  0.00020243  0.1218636 0.7000
  4   -304.6381906101   0.140164455329 0.01664769  0.00046418  0.0862328 0.0000
  5   -304.2718965556   0.366294054451 0.00212897  0.00007485  0.0053078 0.0000
                      *** Initiating the SOSCF procedure ***
                           *** Shutting down DIIS ***
                      *** Re-Reading the Fockian *** 
                      *** Removing any level shift *** 
ITER      Energy       Delta-E        Grad      Rot      Max-DP    RMS-DP
  6   -304.24962578   0.0222707777  0.001216  0.001216  0.001373  0.000045
               *** Restarting incremental Fock matrix formation ***
  7   -304.24303002   0.0065957562  0.000359  0.000508  0.000687  0.000020
  8   -304.24303578  -0.0000057586  0.000254  0.000382  0.000514  0.000017
  9   -304.24303718  -0.0000013958  0.000101  0.000076  0.000102  0.000003
 10   -304.24303729  -0.0000001141  0.000010  0.000008  0.000020  0.000000
                  ***Gradient check signals convergence***
              ***Rediagonalizing the Fockian in SOSCF/NRSCF***

               *****************************************************
               *                     SUCCESS                       *
               *           SCF CONVERGED AFTER  11 CYCLES          *
               *****************************************************


----------------
TOTAL SCF ENERGY
----------------

Total Energy       :         -304.24303729 Eh           -8278.87393 eV

Components:
Nuclear Repulsion  :          113.43676804 Eh            3086.77139 eV
Electronic Energy  :         -417.67980534 Eh          -11365.64532 eV
One Electron Energy:         -645.66364234 Eh          -17569.40092 eV
Two Electron Energy:          227.98383701 Eh            6203.75560 eV

Virial components:
Potential Energy   :         -608.05399680 Eh          -16545.99043 eV
Kinetic Energy     :          303.81095951 Eh            8267.11650 eV
Virial Ratio       :            2.00142219


---------------
SCF CONVERGENCE
---------------

  Last Energy change         ...   -2.2623e-09  Tolerance :   1.0000e-08
  Last MAX-Density change    ...    4.7285e-06  Tolerance :   1.0000e-07
  Last RMS-Density change    ...    1.6895e-07  Tolerance :   5.0000e-09
  Last Orbital Gradient      ...    2.2381e-06  Tolerance :   1.0000e-05
  Last Orbital Rotation      ...    3.3500e-06  Tolerance :   1.0000e-05

             **** THE GBW FILE WAS UPDATED (12h2o.su.etal.mol0,1,3,11-orca.engrad-mp2.def2tzvp.frozencore.gbw) ****
             **** DENSITY FILE WAS UPDATED (12h2o.su.etal.mol0,1,3,11-orca.engrad-mp2.def2tzvp.frozencore.scfp) ****
             **** ENERGY FILE WAS UPDATED (12h2o.su.etal.mol0,1,3,11-orca.engrad-mp2.def2tzvp.frozencore.en.tmp) ****
             **** THE GBW FILE WAS UPDATED (12h2o.su.etal.mol0,1,3,11-orca.engrad-mp2.def2tzvp.frozencore.gbw) ****
             **** DENSITY FILE WAS UPDATED (12h2o.su.etal.mol0,1,3,11-orca.engrad-mp2.def2tzvp.frozencore.scfp) ****
----------------
ORBITAL ENERGIES
----------------

  NO   OCC          E(Eh)            E(eV) 
   0   2.0000     -20.601284      -560.5895 
   1   2.0000     -20.570947      -559.7639 
   2   2.0000     -20.561030      -559.4941 
   3   2.0000     -20.517226      -558.3021 
   4   2.0000      -1.379794       -37.5461 
   5   2.0000      -1.358852       -36.9762 
   6   2.0000      -1.340309       -36.4717 
   7   2.0000      -1.299236       -35.3540 
   8   2.0000      -0.746854       -20.3229 
   9   2.0000      -0.720659       -19.6101 
  10   2.0000      -0.703128       -19.1331 
  11   2.0000      -0.687198       -18.6996 
  12   2.0000      -0.623460       -16.9652 
  13   2.0000      -0.594583       -16.1794 
  14   2.0000      -0.577807       -15.7229 
  15   2.0000      -0.551259       -15.0005 
  16   2.0000      -0.539169       -14.6715 
  17   2.0000      -0.505197       -13.7471 
  18   2.0000      -0.502080       -13.6623 
  19   2.0000      -0.467978       -12.7343 
  20   0.0000       0.100322         2.7299 
  21   0.0000       0.129061         3.5119 
  22   0.0000       0.150539         4.0964 
  23   0.0000       0.174281         4.7424 
  24   0.0000       0.189447         5.1551 
  25   0.0000       0.201067         5.4713 
  26   0.0000       0.276175         7.5151 
  27   0.0000       0.333594         9.0776 
  28   0.0000       0.459582        12.5059 
  29   0.0000       0.486749        13.2451 
  30   0.0000       0.508447        13.8355 
  31   0.0000       0.520130        14.1535 
  32   0.0000       0.552975        15.0472 
  33   0.0000       0.562083        15.2950 
  34   0.0000       0.566816        15.4238 
  35   0.0000       0.581952        15.8357 
  36   0.0000       0.598992        16.2994 
  37   0.0000       0.602417        16.3926 
  38   0.0000       0.636841        17.3293 
  39   0.0000       0.640072        17.4172 
  40   0.0000       0.646034        17.5795 
  41   0.0000       0.664915        18.0933 
  42   0.0000       0.727384        19.7931 
  43   0.0000       0.736528        20.0419 
  44   0.0000       0.744556        20.2604 
  45   0.0000       0.770499        20.9663 
  46   0.0000       0.783400        21.3174 
  47   0.0000       0.789292        21.4777 
  48   0.0000       0.829074        22.5603 
  49   0.0000       0.913166        24.8485 
  50   0.0000       0.975781        26.5523 
  51   0.0000       1.024111        27.8675 
  52   0.0000       1.358215        36.9589 
  53   0.0000       1.385740        37.7079 
  54   0.0000       1.406244        38.2658 
  55   0.0000       1.407341        38.2957 
  56   0.0000       1.425038        38.7773 
  57   0.0000       1.440645        39.2019 
  58   0.0000       1.488423        40.5021 
  59   0.0000       1.505000        40.9531 
  60   0.0000       1.543977        42.0137 
  61   0.0000       1.548278        42.1308 
  62   0.0000       1.599810        43.5330 
  63   0.0000       1.628688        44.3188 
  64   0.0000       1.782930        48.5160 
  65   0.0000       1.789787        48.7026 
  66   0.0000       1.824380        49.6439 
  67   0.0000       1.851242        50.3749 
  68   0.0000       1.872735        50.9597 
  69   0.0000       1.905610        51.8543 
  70   0.0000       1.969737        53.5993 
  71   0.0000       1.971933        53.6590 
  72   0.0000       2.023349        55.0581 
  73   0.0000       2.050660        55.8013 
  74   0.0000       2.069324        56.3092 
  75   0.0000       2.149902        58.5018 
  76   0.0000       2.242865        61.0314 
  77   0.0000       2.287379        62.2427 
  78   0.0000       2.295802        62.4719 
  79   0.0000       2.309063        62.8328 
  80   0.0000       2.339839        63.6703 
  81   0.0000       2.346744        63.8582 
  82   0.0000       2.365742        64.3751 
  83   0.0000       2.381592        64.8064 
  84   0.0000       2.392292        65.0976 
  85   0.0000       2.421961        65.9049 
  86   0.0000       2.514954        68.4354 
  87   0.0000       2.544745        69.2460 
  88   0.0000       2.574442        70.0541 
  89   0.0000       2.583606        70.3035 
  90   0.0000       2.604664        70.8765 
  91   0.0000       2.640500        71.8517 
  92   0.0000       2.670699        72.6734 
  93   0.0000       2.676087        72.8200 
  94   0.0000       2.691537        73.2404 
  95   0.0000       2.782855        75.7253 
  96   0.0000       2.872834        78.1738 
  97   0.0000       2.928327        79.6838 
  98   0.0000       2.945243        80.1441 
  99   0.0000       2.950155        80.2778 
 100   0.0000       2.953492        80.3686 
 101   0.0000       2.966708        80.7282 
 102   0.0000       3.002316        81.6972 
 103   0.0000       3.026003        82.3417 
 104   0.0000       3.038343        82.6775 
 105   0.0000       3.071006        83.5663 
 106   0.0000       3.101283        84.3902 
 107   0.0000       3.141832        85.4936 
 108   0.0000       3.222374        87.6853 
 109   0.0000       3.245730        88.3208 
 110   0.0000       3.281603        89.2970 
 111   0.0000       3.517503        95.7161 
 112   0.0000       3.959078       107.7320 
 113   0.0000       4.013594       109.2154 
 114   0.0000       4.036567       109.8406 
 115   0.0000       4.116471       112.0149 
 116   0.0000       4.276190       116.3610 
 117   0.0000       4.304369       117.1278 
 118   0.0000       4.310570       117.2966 
 119   0.0000       4.406308       119.9017 
 120   0.0000       5.510129       149.9382 
 121   0.0000       5.533527       150.5749 
 122   0.0000       5.549408       151.0071 
 123   0.0000       5.588246       152.0639 
 124   0.0000       5.606672       152.5653 
 125   0.0000       5.653462       153.8385 
 126   0.0000       5.671884       154.3398 
 127   0.0000       5.688187       154.7834 
 128   0.0000       5.775371       157.1558 
 129   0.0000       5.806084       157.9916 
 130   0.0000       5.822502       158.4383 
 131   0.0000       5.823675       158.4703 
 132   0.0000       5.843846       159.0191 
 133   0.0000       5.852489       159.2543 
 134   0.0000       5.872404       159.7962 
 135   0.0000       5.880443       160.0150 
 136   0.0000       5.884500       160.1254 
 137   0.0000       5.895540       160.4258 
 138   0.0000       5.896438       160.4502 
 139   0.0000       5.969084       162.4270 
 140   0.0000       6.393356       173.9721 
 141   0.0000       6.473908       176.1640 
 142   0.0000       6.489175       176.5794 
 143   0.0000       6.508184       177.0967 
 144   0.0000       6.666448       181.4033 
 145   0.0000       6.694870       182.1767 
 146   0.0000       6.706542       182.4943 
 147   0.0000       6.755620       183.8298 
 148   0.0000       6.829725       185.8463 
 149   0.0000       6.831897       185.9054 
 150   0.0000       6.842206       186.1859 
 151   0.0000       6.876210       187.1112 
 152   0.0000       6.885387       187.3609 
 153   0.0000       6.887051       187.4062 
 154   0.0000       6.913495       188.1258 
 155   0.0000       6.926864       188.4895 
 156   0.0000       6.946142       189.0141 
 157   0.0000       6.968867       189.6325 
 158   0.0000       6.994010       190.3167 
 159   0.0000       7.088760       192.8950 
 160   0.0000       7.345676       199.8860 
 161   0.0000       7.360725       200.2955 
 162   0.0000       7.437409       202.3822 
 163   0.0000       7.456002       202.8881 
 164   0.0000       7.504801       204.2160 
 165   0.0000       7.509005       204.3304 
 166   0.0000       7.534987       205.0374 
 167   0.0000       7.578441       206.2199 
 168   0.0000      44.814048      1219.4522 
 169   0.0000      44.848377      1220.3864 
 170   0.0000      44.963907      1223.5301 
 171   0.0000      44.968398      1223.6523 

                    ********************************
                    * MULLIKEN POPULATION ANALYSIS *
                    ********************************

-----------------------
MULLIKEN ATOMIC CHARGES
-----------------------
   0 O :   -0.762908
   1 H :    0.333477
   2 H :    0.391544
   3 O :   -0.730470
   4 H :    0.365834
   5 H :    0.380665
   6 O :   -0.692584
   7 H :    0.345963
   8 H :    0.346533
   9 O :   -0.732302
  10 H :    0.361928
  11 H :    0.392319
Sum of atomic charges:    0.0000000

--------------------------------
MULLIKEN REDUCED ORBITAL CHARGES
--------------------------------
  0 O s       :     3.808000  s :     3.808000
      pz      :     1.720119  p :     4.929589
      px      :     1.408782
      py      :     1.800688
      dz2     :     0.004086  d :     0.023854
      dxz     :     0.004735
      dyz     :     0.005620
      dx2y2   :     0.002329
      dxy     :     0.007084
      f0      :     0.000088  f :     0.001465
      f+1     :     0.000329
      f-1     :     0.000183
      f+2     :     0.000069
      f-2     :     0.000359
      f+3     :     0.000088
      f-3     :     0.000350
  1 H s       :     0.620492  s :     0.620492
      pz      :     0.017167  p :     0.046031
      px      :     0.013807
      py      :     0.015057
  2 H s       :     0.551339  s :     0.551339
      pz      :     0.010824  p :     0.057116
      px      :     0.032235
      py      :     0.014057
  3 O s       :     3.809318  s :     3.809318
      pz      :     1.737161  p :     4.895121
      px      :     1.376850
      py      :     1.781110
      dz2     :     0.004382  d :     0.024530
      dxz     :     0.004962
      dyz     :     0.005554
      dx2y2   :     0.002573
      dxy     :     0.007059
      f0      :     0.000093  f :     0.001501
      f+1     :     0.000352
      f-1     :     0.000183
      f+2     :     0.000061
      f-2     :     0.000356
      f+3     :     0.000091
      f-3     :     0.000365
  4 H s       :     0.588902  s :     0.588902
      pz      :     0.017287  p :     0.045265
      px      :     0.013302
      py      :     0.014676
  5 H s       :     0.578173  s :     0.578173
      pz      :     0.010948  p :     0.041162
      px      :     0.018128
      py      :     0.012085
  6 O s       :     3.814555  s :     3.814555
      pz      :     1.501114  p :     4.850006
      px      :     1.530538
      py      :     1.818354
      dz2     :     0.012247  d :     0.026479
      dxz     :     0.001241
      dyz     :     0.003132
      dx2y2   :     0.002161
      dxy     :     0.007698
      f0      :     0.000271  f :     0.001544
      f+1     :     0.000386
      f-1     :     0.000177
      f+2     :     0.000057
      f-2     :     0.000057
      f+3     :     0.000071
      f-3     :     0.000526
  7 H s       :     0.609175  s :     0.609175
      pz      :     0.018940  p :     0.044862
      px      :     0.012259
      py      :     0.013662
  8 H s       :     0.608837  s :     0.608837
      pz      :     0.010636  p :     0.044631
      px      :     0.018252
      py      :     0.015743
  9 O s       :     3.795942  s :     3.795942
      pz      :     1.521551  p :     4.909983
      px      :     1.793592
      py      :     1.594839
      dz2     :     0.012261  d :     0.024972
      dxz     :     0.002406
      dyz     :     0.001233
      dx2y2   :     0.002348
      dxy     :     0.006724
      f0      :     0.000253  f :     0.001405
      f+1     :     0.000158
      f-1     :     0.000389
      f+2     :     0.000052
      f-2     :     0.000056
      f+3     :     0.000447
      f-3     :     0.000049
 10 H s       :     0.594379  s :     0.594379
      pz      :     0.019236  p :     0.043694
      px      :     0.012715
      py      :     0.011742
 11 H s       :     0.558346  s :     0.558346
      pz      :     0.009596  p :     0.049335
      px      :     0.015573
      py      :     0.024166


                     *******************************
                     * LOEWDIN POPULATION ANALYSIS *
                     *******************************

----------------------
LOEWDIN ATOMIC CHARGES
----------------------
   0 O :   -0.376462
   1 H :    0.147764
   2 H :    0.150509
   3 O :   -0.318355
   4 H :    0.165251
   5 H :    0.192768
   6 O :   -0.331777
   7 H :    0.165073
   8 H :    0.166657
   9 O :   -0.292473
  10 H :    0.171309
  11 H :    0.159738

-------------------------------
LOEWDIN REDUCED ORBITAL CHARGES
-------------------------------
  0 O s       :     3.468156  s :     3.468156
      pz      :     1.705484  p :     4.876573
      px      :     1.391952
      py      :     1.779136
      dz2     :     0.004314  d :     0.029724
      dxz     :     0.007207
      dyz     :     0.005837
      dx2y2   :     0.003362
      dxy     :     0.009004
      f0      :     0.000073  f :     0.002010
      f+1     :     0.000441
      f-1     :     0.000265
      f+2     :     0.000034
      f-2     :     0.000632
      f+3     :     0.000085
      f-3     :     0.000479
  1 H s       :     0.687896  s :     0.687896
      pz      :     0.065563  p :     0.164340
      px      :     0.045586
      py      :     0.053191
  2 H s       :     0.654526  s :     0.654526
      pz      :     0.033641  p :     0.194965
      px      :     0.113568
      py      :     0.047756
  3 O s       :     3.467495  s :     3.467495
      pz      :     1.712476  p :     4.817368
      px      :     1.363158
      py      :     1.741733
      dz2     :     0.004997  d :     0.031427
      dxz     :     0.007062
      dyz     :     0.005471
      dx2y2   :     0.004316
      dxy     :     0.009581
      f0      :     0.000078  f :     0.002065
      f+1     :     0.000457
      f-1     :     0.000271
      f+2     :     0.000033
      f-2     :     0.000609
      f+3     :     0.000089
      f-3     :     0.000528
  4 H s       :     0.671258  s :     0.671258
      pz      :     0.066450  p :     0.163491
      px      :     0.044484
      py      :     0.052557
  5 H s       :     0.658572  s :     0.658572
      pz      :     0.033238  p :     0.148660
      px      :     0.072031
      py      :     0.043391
  6 O s       :     3.474542  s :     3.474542
      pz      :     1.508700  p :     4.821149
      px      :     1.524249
      py      :     1.788200
      dz2     :     0.016795  d :     0.033852
      dxz     :     0.002107
      dyz     :     0.002564
      dx2y2   :     0.002333
      dxy     :     0.010053
      f0      :     0.000490  f :     0.002234
      f+1     :     0.000599
      f-1     :     0.000334
      f+2     :     0.000027
      f-2     :     0.000048
      f+3     :     0.000003
      f-3     :     0.000734
  7 H s       :     0.677494  s :     0.677494
      pz      :     0.080211  p :     0.157433
      px      :     0.035199
      py      :     0.042022
  8 H s       :     0.676842  s :     0.676842
      pz      :     0.029734  p :     0.156501
      px      :     0.071861
      py      :     0.054906
  9 O s       :     3.453845  s :     3.453845
      pz      :     1.516065  p :     4.804707
      px      :     1.734002
      py      :     1.554639
      dz2     :     0.016222  d :     0.031804
      dxz     :     0.001943
      dyz     :     0.002046
      dx2y2   :     0.003392
      dxy     :     0.008201
      f0      :     0.000467  f :     0.002117
      f+1     :     0.000337
      f-1     :     0.000575
      f+2     :     0.000021
      f-2     :     0.000051
      f+3     :     0.000639
      f-3     :     0.000026
 10 H s       :     0.669573  s :     0.669573
      pz      :     0.080600  p :     0.159118
      px      :     0.041934
      py      :     0.036584
 11 H s       :     0.665734  s :     0.665734
      pz      :     0.029555  p :     0.174529
      px      :     0.058101
      py      :     0.086872


                      *****************************
                      * MAYER POPULATION ANALYSIS *
                      *****************************

  NA   - Mulliken gross atomic population
  ZA   - Total nuclear charge
  QA   - Mulliken gross atomic charge
  VA   - Mayer's total valence
  BVA  - Mayer's bonded valence
  FA   - Mayer's free valence

  ATOM       NA         ZA         QA         VA         BVA        FA
  0 O      8.7629     8.0000    -0.7629     1.6914     1.6914     0.0000
  1 H      0.6665     1.0000     0.3335     0.9043     0.9043    -0.0000
  2 H      0.6085     1.0000     0.3915     0.8853     0.8853     0.0000
  3 O      8.7305     8.0000    -0.7305     1.7611     1.7611    -0.0000
  4 H      0.6342     1.0000     0.3658     0.8811     0.8811    -0.0000
  5 H      0.6193     1.0000     0.3807     0.8696     0.8696    -0.0000
  6 O      8.6926     8.0000    -0.6926     1.7791     1.7791     0.0000
  7 H      0.6540     1.0000     0.3460     0.8944     0.8944    -0.0000
  8 H      0.6535     1.0000     0.3465     0.8937     0.8937     0.0000
  9 O      8.7323     8.0000    -0.7323     1.7467     1.7467     0.0000
 10 H      0.6381     1.0000     0.3619     0.8821     0.8821     0.0000
 11 H      0.6077     1.0000     0.3923     0.8781     0.8781     0.0000

  Mayer bond orders larger than 0.100000
B(  0-O ,  1-H ) :   0.8987 B(  0-O ,  2-H ) :   0.8122 B(  3-O ,  4-H ) :   0.8740 
B(  3-O ,  5-H ) :   0.8586 B(  6-O ,  7-H ) :   0.8898 B(  6-O ,  8-H ) :   0.8894 
B(  9-O , 10-H ) :   0.8774 B(  9-O , 11-H ) :   0.8335 

-------
TIMINGS
-------

Total SCF time: 0 days 0 hours 0 min 3 sec 

Total time                  ....       3.564 sec
Sum of individual times     ....       3.360 sec  ( 94.3%)

Fock matrix formation       ....       3.158 sec  ( 88.6%)
Diagonalization             ....       0.029 sec  (  0.8%)
Density matrix formation    ....       0.004 sec  (  0.1%)
Population analysis         ....       0.012 sec  (  0.3%)
Initial guess               ....       0.106 sec  (  3.0%)
Orbital Transformation      ....       0.000 sec  (  0.0%)
Orbital Orthonormalization  ....       0.000 sec  (  0.0%)
DIIS solution               ....       0.009 sec  (  0.3%)
SOSCF solution              ....       0.011 sec  (  0.3%)


           ************************************************************
           *        Program running with 6 parallel MPI-processes     *
           *              working on a common directory               *
           ************************************************************

------------------------------------------------------------------------------
                                ORCA  MP2 
------------------------------------------------------------------------------

Freezing NCore=8 chemical core electrons
MP2 will be done in the AO integral direct mode
The Q1-step will be done using symmetric double matrices
Dimension of the basis                    ...  172
Memory devoted for MP2                    ... 8000 MB   
Memory needed for all in one shot         ...   60 MB
Number of MOs that can be treated together...  408      
MP2 density construction                  ... relaxed
The MP2 gradient is requested => amplitudes will be stored on disk
Total number of MOs              ...   16
Number of MOs treated per batch  ...    3 
Number of batches necessary      ...    1 
OPERATORS   0/  0 PASS   0
-----------------------------------------------
 MP2 CORRELATION ENERGY   :     -1.028162406 Eh
-----------------------------------------------


---------------------
MP2 DENSITY FORMATION
---------------------

Completing the external part of the density      ... done
Storing the unrelaxed density                    ... done

Calculating G(D)                                 ... done
Completing the Lagrangian                        ... done
Solving the Z-vector equations                   ... 

------------------------------------------------------------------------------
                           ORCA CP-SCF CALCULATION
------------------------------------------------------------------------------

Input orbitals are from        ... 12h2o.su.etal.mol0,1,3,11-orca.engrad-mp2.def2tzvp.frozencore.gbw
Input Perturbation             ... 12h2o.su.etal.mol0,1,3,11-orca.engrad-mp2.def2tzvp.frozencore.pin.tmp
Wavefunction output            ... 12h2o.su.etal.mol0,1,3,11-orca.engrad-mp2.def2tzvp.frozencore.pout.tmp
Perturbation mode              ... Real perturbation (singlet)
Solver                         ... POPLE
Max. number of iterations      ... 128
Convergence tolerance          ... 1.000e-08
Integral handling              ... Direct
Number of perturbations        ... 1
Number of operators            ... 1
Orbital ranges used for CP-SCF:
 Operator 0:  Orbitals   0... 19  to  20...171
Variables per vector in CP-SCF ... 3040
Number of vectors sought       ... 1
     CP-SCF ITERATION   0: 
     CP-SCF ITERATION   1:      0.000466431616
     CP-SCF ITERATION   2:      0.000010665735
     CP-SCF ITERATION   3:      0.000000588390
     CP-SCF ITERATION   4:      0.000000042431
     CP-SCF ITERATION   5:      0.000000003226
                                                 ... done
Finalizing the relaxed density                   ... done
Transforming P to the AO basis                   ... done
Storing the relaxed density                      ... done

------------------------------------
ENERGY WEIGHTED DENSITY FINALIZATION
------------------------------------

Gathering the parts of the W-matrix              ...                                                      done
Forming the Z-density                            ... done
Transforming Z to the AO basis                   ... done
Calculating G(Z)                                 ... done
Finalizing the W-matrix                          ...                                                      done
Transforming W to the AO basis and storing       ... done

                *********************************************
                * UNRELAXED MP2 DENSITY POPULATION ANALYSIS *
                *********************************************

------------------------------------------------------------------------------
                           ORCA POPULATION ANALYSIS
------------------------------------------------------------------------------
Input electron density              ... 12h2o.su.etal.mol0,1,3,11-orca.engrad-mp2.def2tzvp.frozencore.pmp2ur
BaseName (.gbw .S,...)              ... 12h2o.su.etal.mol0,1,3,11-orca.engrad-mp2.def2tzvp.frozencore

                    ********************************
                    * MULLIKEN POPULATION ANALYSIS *
                    ********************************

-----------------------
MULLIKEN ATOMIC CHARGES
-----------------------
   0 O :   -0.757439
   1 H :    0.331225
   2 H :    0.387006
   3 O :   -0.724930
   4 H :    0.363667
   5 H :    0.377880
   6 O :   -0.687902
   7 H :    0.343627
   8 H :    0.344182
   9 O :   -0.725844
  10 H :    0.359524
  11 H :    0.389004
Sum of atomic charges:    0.0000000

--------------------------------
MULLIKEN REDUCED ORBITAL CHARGES
--------------------------------
  0 O s       :     3.803063  s :     3.803063
      pz      :     1.709721  p :     4.899482
      px      :     1.400358
      py      :     1.789404
      dz2     :     0.009549  d :     0.050862
      dxz     :     0.010100
      dyz     :     0.010946
      dx2y2   :     0.007826
      dxy     :     0.012441
      f0      :     0.000456  f :     0.004032
      f+1     :     0.000693
      f-1     :     0.000546
      f+2     :     0.000437
      f-2     :     0.000724
      f+3     :     0.000461
      f-3     :     0.000715
  1 H s       :     0.621015  s :     0.621015
      pz      :     0.017681  p :     0.047760
      px      :     0.014275
      py      :     0.015804
  2 H s       :     0.554196  s :     0.554196
      pz      :     0.011662  p :     0.058798
      px      :     0.032340
      py      :     0.014796
  3 O s       :     3.804446  s :     3.804446
      pz      :     1.726535  p :     4.865069
      px      :     1.369180
      py      :     1.769354
      dz2     :     0.009765  d :     0.051359
      dxz     :     0.010245
      dyz     :     0.010946
      dx2y2   :     0.008019
      dxy     :     0.012384
      f0      :     0.000462  f :     0.004056
      f+1     :     0.000712
      f-1     :     0.000548
      f+2     :     0.000429
      f-2     :     0.000719
      f+3     :     0.000461
      f-3     :     0.000725
  4 H s       :     0.589522  s :     0.589522
      pz      :     0.017760  p :     0.046811
      px      :     0.013687
      py      :     0.015363
  5 H s       :     0.579458  s :     0.579458
      pz      :     0.011776  p :     0.042662
      px      :     0.018061
      py      :     0.012824
  6 O s       :     3.809744  s :     3.809744
      pz      :     1.492331  p :     4.821340
      px      :     1.521771
      py      :     1.807237
      dz2     :     0.017202  d :     0.052729
      dxz     :     0.006542
      dyz     :     0.008511
      dx2y2   :     0.007597
      dxy     :     0.012878
      f0      :     0.000645  f :     0.004089
      f+1     :     0.000748
      f-1     :     0.000546
      f+2     :     0.000414
      f-2     :     0.000420
      f+3     :     0.000438
      f-3     :     0.000878
  7 H s       :     0.609862  s :     0.609862
      pz      :     0.019032  p :     0.046511
      px      :     0.012950
      py      :     0.014529
  8 H s       :     0.609540  s :     0.609540
      pz      :     0.011422  p :     0.046278
      px      :     0.018430
      py      :     0.016426
  9 O s       :     3.790734  s :     3.790734
      pz      :     1.512436  p :     4.878819
      px      :     1.781104
      py      :     1.585279
      dz2     :     0.017385  d :     0.052289
      dxz     :     0.007986
      dyz     :     0.006670
      dx2y2   :     0.008055
      dxy     :     0.012192
      f0      :     0.000633  f :     0.004002
      f+1     :     0.000534
      f-1     :     0.000756
      f+2     :     0.000415
      f-2     :     0.000424
      f+3     :     0.000812
      f-3     :     0.000427
 10 H s       :     0.595187  s :     0.595187
      pz      :     0.019321  p :     0.045289
      px      :     0.013539
      py      :     0.012429
 11 H s       :     0.560164  s :     0.560164
      pz      :     0.010343  p :     0.050832
      px      :     0.016132
      py      :     0.024357


                     *******************************
                     * LOEWDIN POPULATION ANALYSIS *
                     *******************************

----------------------
LOEWDIN ATOMIC CHARGES
----------------------
   0 O :   -0.374131
   1 H :    0.146484
   2 H :    0.147990
   3 O :   -0.314605
   4 H :    0.164169
   5 H :    0.191102
   6 O :   -0.329117
   7 H :    0.163750
   8 H :    0.165314
   9 O :   -0.288506
  10 H :    0.169917
  11 H :    0.157632

-------------------------------
LOEWDIN REDUCED ORBITAL CHARGES
-------------------------------
  0 O s       :     3.464522  s :     3.464522
      pz      :     1.695132  p :     4.847035
      px      :     1.383684
      py      :     1.768219
      dz2     :     0.009856  d :     0.057802
      dxz     :     0.012793
      dyz     :     0.011485
      dx2y2   :     0.008961
      dxy     :     0.014706
      f0      :     0.000451  f :     0.004772
      f+1     :     0.000853
      f-1     :     0.000647
      f+2     :     0.000410
      f-2     :     0.001041
      f+3     :     0.000472
      f-3     :     0.000898
  1 H s       :     0.685856  s :     0.685856
      pz      :     0.066880  p :     0.167660
      px      :     0.046563
      py      :     0.054217
  2 H s       :     0.654569  s :     0.654569
      pz      :     0.034479  p :     0.197441
      px      :     0.114328
      py      :     0.048634
  3 O s       :     3.463717  s :     3.463717
      pz      :     1.701936  p :     4.786792
      px      :     1.355120
      py      :     1.729736
      dz2     :     0.010502  d :     0.059284
      dxz     :     0.012559
      dyz     :     0.011139
      dx2y2   :     0.009854
      dxy     :     0.015229
      f0      :     0.000456  f :     0.004812
      f+1     :     0.000864
      f-1     :     0.000655
      f+2     :     0.000408
      f-2     :     0.001015
      f+3     :     0.000474
      f-3     :     0.000940
  4 H s       :     0.669390  s :     0.669390
      pz      :     0.067633  p :     0.166441
      px      :     0.045294
      py      :     0.053513
  5 H s       :     0.657290  s :     0.657290
      pz      :     0.034051  p :     0.151608
      px      :     0.073211
      py      :     0.044346
  6 O s       :     3.470776  s :     3.470776
      pz      :     1.499583  p :     4.792202
      px      :     1.515224
      py      :     1.777394
      dz2     :     0.022450  d :     0.061168
      dxz     :     0.007342
      dyz     :     0.007883
      dx2y2   :     0.007752
      dxy     :     0.015742
      f0      :     0.000904  f :     0.004971
      f+1     :     0.001015
      f-1     :     0.000726
      f+2     :     0.000389
      f-2     :     0.000418
      f+3     :     0.000375
      f-3     :     0.001144
  7 H s       :     0.675629  s :     0.675629
      pz      :     0.081827  p :     0.160620
      px      :     0.035942
      py      :     0.042852
  8 H s       :     0.674995  s :     0.674995
      pz      :     0.030469  p :     0.159690
      px      :     0.073249
      py      :     0.055972
  9 O s       :     3.450049  s :     3.450049
      pz      :     1.506690  p :     4.773410
      px      :     1.721600
      py      :     1.545120
      dz2     :     0.022042  d :     0.060135
      dxz     :     0.007450
      dyz     :     0.007425
      dx2y2   :     0.009053
      dxy     :     0.014166
      f0      :     0.000888  f :     0.004911
      f+1     :     0.000737
      f-1     :     0.000997
      f+2     :     0.000390
      f-2     :     0.000426
      f+3     :     0.001064
      f-3     :     0.000409
 10 H s       :     0.667857  s :     0.667857
      pz      :     0.082129  p :     0.162226
      px      :     0.042743
      py      :     0.037354
 11 H s       :     0.665094  s :     0.665094
      pz      :     0.030284  p :     0.177275
      px      :     0.059003
      py      :     0.087988


                      *****************************
                      * MAYER POPULATION ANALYSIS *
                      *****************************

  NA   - Mulliken gross atomic population
  ZA   - Total nuclear charge
  QA   - Mulliken gross atomic charge
  VA   - Mayer's total valence
  BVA  - Mayer's bonded valence
  FA   - Mayer's free valence

  ATOM       NA         ZA         QA         VA         BVA        FA
  0 O      8.7574     8.0000    -0.7574     2.0048     1.6131     0.3917
  1 H      0.6688     1.0000     0.3312     0.9103     0.8625     0.0479
  2 H      0.6130     1.0000     0.3870     0.8928     0.8468     0.0460
  3 O      8.7249     8.0000    -0.7249     2.0704     1.6811     0.3894
  4 H      0.6363     1.0000     0.3637     0.8866     0.8417     0.0449
  5 H      0.6221     1.0000     0.3779     0.8756     0.8289     0.0467
  6 O      8.6879     8.0000    -0.6879     2.0811     1.6972     0.3839
  7 H      0.6564     1.0000     0.3436     0.9003     0.8531     0.0472
  8 H      0.6558     1.0000     0.3442     0.8997     0.8523     0.0473
  9 O      8.7258     8.0000    -0.7258     2.0556     1.6682     0.3874
 10 H      0.6405     1.0000     0.3595     0.8879     0.8416     0.0463
 11 H      0.6110     1.0000     0.3890     0.8845     0.8403     0.0441

  Mayer bond orders larger than 0.100000
B(  0-O ,  1-H ) :   0.8574 B(  0-O ,  2-H ) :   0.7757 B(  3-O ,  4-H ) :   0.8351 
B(  3-O ,  5-H ) :   0.8185 B(  6-O ,  7-H ) :   0.8488 B(  6-O ,  8-H ) :   0.8483 
B(  9-O , 10-H ) :   0.8373 B(  9-O , 11-H ) :   0.7970 


                *******************************************
                * RELAXED MP2 DENSITY POPULATION ANALYSIS *
                *******************************************

------------------------------------------------------------------------------
                           ORCA POPULATION ANALYSIS
------------------------------------------------------------------------------
Input electron density              ... 12h2o.su.etal.mol0,1,3,11-orca.engrad-mp2.def2tzvp.frozencore.pmp2re
BaseName (.gbw .S,...)              ... 12h2o.su.etal.mol0,1,3,11-orca.engrad-mp2.def2tzvp.frozencore

                    ********************************
                    * MULLIKEN POPULATION ANALYSIS *
                    ********************************

-----------------------
MULLIKEN ATOMIC CHARGES
-----------------------
   0 O :   -0.738648
   1 H :    0.325221
   2 H :    0.364046
   3 O :   -0.705048
   4 H :    0.357307
   5 H :    0.370762
   6 O :   -0.675075
   7 H :    0.337109
   8 H :    0.337835
   9 O :   -0.699723
  10 H :    0.353972
  11 H :    0.372242
Sum of atomic charges:    0.0000000

--------------------------------
MULLIKEN REDUCED ORBITAL CHARGES
--------------------------------
  0 O s       :     3.803425  s :     3.803425
      pz      :     1.704916  p :     4.882288
      px      :     1.394016
      py      :     1.783356
      dz2     :     0.009346  d :     0.048969
      dxz     :     0.009535
      dyz     :     0.010644
      dx2y2   :     0.007699
      dxy     :     0.011745
      f0      :     0.000454  f :     0.003967
      f+1     :     0.000676
      f-1     :     0.000538
      f+2     :     0.000437
      f-2     :     0.000705
      f+3     :     0.000459
      f-3     :     0.000698
  1 H s       :     0.626232  s :     0.626232
      pz      :     0.017852  p :     0.048547
      px      :     0.014269
      py      :     0.016425
  2 H s       :     0.576913  s :     0.576913
      pz      :     0.012423  p :     0.059041
      px      :     0.031270
      py      :     0.015348
  3 O s       :     3.807566  s :     3.807566
      pz      :     1.721609  p :     4.844322
      px      :     1.366282
      py      :     1.756432
      dz2     :     0.009491  d :     0.049178
      dxz     :     0.009670
      dyz     :     0.010690
      dx2y2   :     0.007739
      dxy     :     0.011588
      f0      :     0.000459  f :     0.003982
      f+1     :     0.000694
      f-1     :     0.000540
      f+2     :     0.000429
      f-2     :     0.000698
      f+3     :     0.000459
      f-3     :     0.000703
  4 H s       :     0.595219  s :     0.595219
      pz      :     0.017881  p :     0.047474
      px      :     0.013602
      py      :     0.015991
  5 H s       :     0.586063  s :     0.586063
      pz      :     0.012592  p :     0.043175
      px      :     0.017089
      py      :     0.013494
  6 O s       :     3.814919  s :     3.814919
      pz      :     1.485961  p :     4.805758
      px      :     1.517415
      py      :     1.802382
      dz2     :     0.015818  d :     0.050384
      dxz     :     0.006469
      dyz     :     0.008465
      dx2y2   :     0.007523
      dxy     :     0.012109
      f0      :     0.000627  f :     0.004014
      f+1     :     0.000725
      f-1     :     0.000535
      f+2     :     0.000415
      f-2     :     0.000419
      f+3     :     0.000439
      f-3     :     0.000854
  7 H s       :     0.615632  s :     0.615632
      pz      :     0.018267  p :     0.047259
      px      :     0.013511
      py      :     0.015481
  8 H s       :     0.615146  s :     0.615146
      pz      :     0.012112  p :     0.047019
      px      :     0.017913
      py      :     0.016994
  9 O s       :     3.790531  s :     3.790531
      pz      :     1.506917  p :     4.854863
      px      :     1.763648
      py      :     1.584299
      dz2     :     0.016102  d :     0.050398
      dxz     :     0.007966
      dyz     :     0.006621
      dx2y2   :     0.008065
      dxy     :     0.011644
      f0      :     0.000615  f :     0.003929
      f+1     :     0.000525
      f-1     :     0.000735
      f+2     :     0.000416
      f-2     :     0.000422
      f+3     :     0.000789
      f-3     :     0.000427
 10 H s       :     0.600099  s :     0.600099
      pz      :     0.018565  p :     0.045929
      px      :     0.014415
      py      :     0.012949
 11 H s       :     0.576476  s :     0.576476
      pz      :     0.010941  p :     0.051283
      px      :     0.016476
      py      :     0.023866


                     *******************************
                     * LOEWDIN POPULATION ANALYSIS *
                     *******************************

----------------------
LOEWDIN ATOMIC CHARGES
----------------------
   0 O :   -0.376455
   1 H :    0.148295
   2 H :    0.140562
   3 O :   -0.312116
   4 H :    0.165982
   5 H :    0.192297
   6 O :   -0.332422
   7 H :    0.165352
   8 H :    0.166995
   9 O :   -0.283014
  10 H :    0.171675
  11 H :    0.152848

-------------------------------
LOEWDIN REDUCED ORBITAL CHARGES
-------------------------------
  0 O s       :     3.466125  s :     3.466125
      pz      :     1.694753  p :     4.848519
      px      :     1.387298
      py      :     1.766467
      dz2     :     0.009804  d :     0.057001
      dxz     :     0.012424
      dyz     :     0.011394
      dx2y2   :     0.008941
      dxy     :     0.014439
      f0      :     0.000454  f :     0.004810
      f+1     :     0.000865
      f-1     :     0.000648
      f+2     :     0.000411
      f-2     :     0.001042
      f+3     :     0.000476
      f-3     :     0.000914
  1 H s       :     0.683763  s :     0.683763
      pz      :     0.066997  p :     0.167942
      px      :     0.046170
      py      :     0.054775
  2 H s       :     0.661738  s :     0.661738
      pz      :     0.035189  p :     0.197700
      px      :     0.113283
      py      :     0.049228
  3 O s       :     3.465249  s :     3.465249
      pz      :     1.701251  p :     4.783947
      px      :     1.360314
      py      :     1.722383
      dz2     :     0.010344  d :     0.058091
      dxz     :     0.012184
      dyz     :     0.011104
      dx2y2   :     0.009641
      dxy     :     0.014818
      f0      :     0.000458  f :     0.004829
      f+1     :     0.000870
      f-1     :     0.000655
      f+2     :     0.000408
      f-2     :     0.001015
      f+3     :     0.000476
      f-3     :     0.000946
  4 H s       :     0.667834  s :     0.667834
      pz      :     0.067675  p :     0.166184
      px      :     0.044563
      py      :     0.053945
  5 H s       :     0.656246  s :     0.656246
      pz      :     0.034774  p :     0.151457
      px      :     0.071728
      py      :     0.044955
  6 O s       :     3.473020  s :     3.473020
      pz      :     1.501294  p :     4.794621
      px      :     1.517506
      py      :     1.775821
      dz2     :     0.021664  d :     0.059793
      dxz     :     0.007189
      dyz     :     0.007901
      dx2y2   :     0.007684
      dxy     :     0.015356
      f0      :     0.000905  f :     0.004988
      f+1     :     0.001024
      f-1     :     0.000724
      f+2     :     0.000391
      f-2     :     0.000417
      f+3     :     0.000375
      f-3     :     0.001152
  7 H s       :     0.673877  s :     0.673877
      pz      :     0.080981  p :     0.160771
      px      :     0.036045
      py      :     0.043745
  8 H s       :     0.673158  s :     0.673158
      pz      :     0.030750  p :     0.159847
      px      :     0.072527
      py      :     0.056570
  9 O s       :     3.451017  s :     3.451017
      pz      :     1.508834  p :     4.767695
      px      :     1.711726
      py      :     1.547134
      dz2     :     0.021413  d :     0.059368
      dxz     :     0.007482
      dyz     :     0.007295
      dx2y2   :     0.009160
      dxy     :     0.014018
      f0      :     0.000887  f :     0.004934
      f+1     :     0.000738
      f-1     :     0.001005
      f+2     :     0.000391
      f-2     :     0.000426
      f+3     :     0.001076
      f-3     :     0.000410
 10 H s       :     0.666077  s :     0.666077
      pz      :     0.081224  p :     0.162248
      px      :     0.043393
      py      :     0.037631
 11 H s       :     0.669411  s :     0.669411
      pz      :     0.030643  p :     0.177741
      px      :     0.059459
      py      :     0.087639


                      *****************************
                      * MAYER POPULATION ANALYSIS *
                      *****************************

  NA   - Mulliken gross atomic population
  ZA   - Total nuclear charge
  QA   - Mulliken gross atomic charge
  VA   - Mayer's total valence
  BVA  - Mayer's bonded valence
  FA   - Mayer's free valence

  ATOM       NA         ZA         QA         VA         BVA        FA
  0 O      8.7386     8.0000    -0.7386     2.0114     1.6245     0.3870
  1 H      0.6748     1.0000     0.3252     0.9139     0.8660     0.0480
  2 H      0.6360     1.0000     0.3640     0.9214     0.8761     0.0453
  3 O      8.7050     8.0000    -0.7050     2.0940     1.7101     0.3838
  4 H      0.6427     1.0000     0.3573     0.8914     0.8464     0.0450
  5 H      0.6292     1.0000     0.3708     0.8826     0.8360     0.0466
  6 O      8.6751     8.0000    -0.6751     2.0853     1.7060     0.3792
  7 H      0.6629     1.0000     0.3371     0.9050     0.8577     0.0473
  8 H      0.6622     1.0000     0.3378     0.9042     0.8568     0.0474
  9 O      8.6997     8.0000    -0.6997     2.0879     1.7063     0.3817
 10 H      0.6460     1.0000     0.3540     0.8914     0.8450     0.0464
 11 H      0.6278     1.0000     0.3722     0.9076     0.8641     0.0436

  Mayer bond orders larger than 0.100000
B(  0-O ,  1-H ) :   0.8607 B(  0-O ,  2-H ) :   0.7781 B(  3-O ,  4-H ) :   0.8389 
B(  3-O ,  5-H ) :   0.8222 B(  6-O ,  7-H ) :   0.8533 B(  6-O ,  8-H ) :   0.8527 
B(  9-O , 10-H ) :   0.8403 B(  9-O , 11-H ) :   0.7998 


----------------------------------
MP2 DERIVATIVE INTEGRAL GENERATION
----------------------------------


Input Wavefunction Amplitudes       ... 12h2o.su.etal.mol0,1,3,11-orca.engrad-mp2.def2tzvp.frozencore.mp2tsaa.tmp
Input Correlated Electron Density   ... 12h2o.su.etal.mol0,1,3,11-orca.engrad-mp2.def2tzvp.frozencore.pmp2re
Input Energy Weighted Density       ... 12h2o.su.etal.mol0,1,3,11-orca.engrad-mp2.def2tzvp.frozencore.wmp2.tmp
Input SCF Electron Density          ... 12h2o.su.etal.mol0,1,3,11-orca.engrad-mp2.def2tzvp.frozencore.scfp

One-Electron Terms    ...
                        ... One-Electron Terms done
Prescreening matrices              ... done

Batch handling in the gradient evaluation:
Memory available                      ... 8000.0 MB
Memory per occupied orbital in Q2     ...    3.6 MB
Memory per occupied orbital in Q3     ...    0.1 MB
Total memory requirement per |i>      ...    3.7 MB
Max. Number of orbitals possible      ...   2176
Number of orbitals treated per batch  ...     16
Number of batches to be done          ...      1
Batch   0: i=    4 ...    19

---------------------------------------
MP2 TOTAL ENERGY:     -305.271199698 Eh
---------------------------------------

The final MP2 gradient
  0:   0.00962827  -0.00159141  -0.00046320
  1:   0.00188956  -0.00029883   0.00055722
  2:  -0.01743318   0.00454905  -0.00103986
  3:  -0.02735255   0.00509778  -0.00052696
  4:  -0.00091210   0.00222690  -0.00163751
  5:   0.02605166  -0.00824464   0.00148358
  6:  -0.00678685   0.00769639  -0.00799784
  7:  -0.00250677  -0.00182111   0.00849806
  8:   0.00928127  -0.00590985  -0.00072495
  9:   0.00729093  -0.00231189   0.00874728
 10:  -0.00036519   0.00089857  -0.00791654
 11:   0.00121495  -0.00029095   0.00102074

-----------------------------------
NORM OF THE MP2 GRADIENT:  0.050307
-----------------------------------

-------------------------   --------------------
FINAL SINGLE POINT ENERGY      -305.271199698272
-------------------------   --------------------


                            ***************************************
                            *     ORCA property calculations      *
                            ***************************************

                                    ---------------------
                                    Active property flags
                                    ---------------------
   (+) Dipole Moment


------------------------------------------------------------------------------
                       ORCA ELECTRIC PROPERTIES CALCULATION
------------------------------------------------------------------------------

Dipole Moment Calculation                       ... on
Quadrupole Moment Calculation                   ... off
Polarizability Calculation                      ... off
GBWName                                         ... 12h2o.su.etal.mol0,1,3,11-orca.engrad-mp2.def2tzvp.frozencore.gbw
Electron density file                           ... 12h2o.su.etal.mol0,1,3,11-orca.engrad-mp2.def2tzvp.frozencore.scfp
The origin for moment calculation is the CENTER OF MASS  = (-1.181599,  0.445026  2.655892)

-------------
DIPOLE MOMENT
-------------
                                X             Y             Z
Electronic contribution:     -0.35969       0.03676      -0.15938
Nuclear contribution   :     -0.11069      -1.02062       1.26519
                        -----------------------------------------
Total Dipole Moment    :     -0.47037      -0.98386       1.10580
                        -----------------------------------------
Magnitude (a.u.)       :      1.55308
Magnitude (Debye)      :      3.94760



--------------------
Rotational spectrum 
--------------------
 
Rotational constants in cm-1:     0.096805     0.030304     0.026269 
Rotational constants in MHz :  2902.131605   908.490859   787.521086 

 Dipole components along the rotational axes: 
x,y,z [a.u.] :     0.556907    -1.252276    -0.730550 
x,y,z [Debye]:     1.415545    -3.183032    -1.856911 

 

                         *** MP2 UNRELAXED DENSITY ***

------------------------------------------------------------------------------
                       ORCA ELECTRIC PROPERTIES CALCULATION
------------------------------------------------------------------------------

Dipole Moment Calculation                       ... on
Quadrupole Moment Calculation                   ... off
Polarizability Calculation                      ... off
GBWName                                         ... 12h2o.su.etal.mol0,1,3,11-orca.engrad-mp2.def2tzvp.frozencore.gbw
Electron density file                           ... 12h2o.su.etal.mol0,1,3,11-orca.engrad-mp2.def2tzvp.frozencore.pmp2ur
The origin for moment calculation is the CENTER OF MASS  = (-1.181599,  0.445026  2.655892)

-------------
DIPOLE MOMENT
-------------
                                X             Y             Z
Electronic contribution:     -0.36280       0.04581      -0.17159
Nuclear contribution   :     -0.11069      -1.02062       1.26519
                        -----------------------------------------
Total Dipole Moment    :     -0.47349      -0.97482       1.09360
                        -----------------------------------------
Magnitude (a.u.)       :      1.53961
Magnitude (Debye)      :      3.91339



--------------------
Rotational spectrum 
--------------------
 
Rotational constants in cm-1:     0.096805     0.030304     0.026269 
Rotational constants in MHz :  2902.131605   908.490859   787.521086 

 Dipole components along the rotational axes: 
x,y,z [a.u.] :     0.547455    -1.245895    -0.720036 
x,y,z [Debye]:     1.391519    -3.166813    -1.830186 

 

                           *** MP2 RELAXED DENSITY ***

------------------------------------------------------------------------------
                       ORCA ELECTRIC PROPERTIES CALCULATION
------------------------------------------------------------------------------

Dipole Moment Calculation                       ... on
Quadrupole Moment Calculation                   ... off
Polarizability Calculation                      ... off
GBWName                                         ... 12h2o.su.etal.mol0,1,3,11-orca.engrad-mp2.def2tzvp.frozencore.gbw
Electron density file                           ... 12h2o.su.etal.mol0,1,3,11-orca.engrad-mp2.def2tzvp.frozencore.pmp2re
The origin for moment calculation is the CENTER OF MASS  = (-1.181599,  0.445026  2.655892)

-------------
DIPOLE MOMENT
-------------
                                X             Y             Z
Electronic contribution:     -0.37545       0.05051      -0.18708
Nuclear contribution   :     -0.11069      -1.02062       1.26519
                        -----------------------------------------
Total Dipole Moment    :     -0.48613      -0.97011       1.07811
                        -----------------------------------------
Magnitude (a.u.)       :      1.52963
Magnitude (Debye)      :      3.88800



--------------------
Rotational spectrum 
--------------------
 
Rotational constants in cm-1:     0.096805     0.030304     0.026269 
Rotational constants in MHz :  2902.131605   908.490859   787.521086 

 Dipole components along the rotational axes: 
x,y,z [a.u.] :     0.530629    -1.247556    -0.708373 
x,y,z [Debye]:     1.348752    -3.171034    -1.800542 

 

Timings for individual modules:

Sum of individual times         ...       13.914 sec (=   0.232 min)
GTO integral calculation        ...        0.884 sec (=   0.015 min)   6.4 %
SCF iterations                  ...        4.218 sec (=   0.070 min)  30.3 %
MP2 module                      ...        8.812 sec (=   0.147 min)  63.3 %
                             ****ORCA TERMINATED NORMALLY****
TOTAL RUN TIME: 0 days 0 hours 0 minutes 14 seconds 760 msec
