801
 energy: -1312.879171105738 gnorm: 0.001772268566 xtb: 6.4.1 (afa7bdf)
O         1.38111282128755   -6.62613297250825    4.17717343854902
H         1.05843062051619   -7.51252208085846    3.89514745104245
H         2.19742850395824   -6.47923423322302    3.68080670078480
O        -5.17790324937133   -4.74707620252753   -1.12128911723666
H        -4.36597000311682   -5.02761762082958   -0.65705409473538
H        -5.80994656186205   -5.48465621541297   -1.02639156430450
O        -8.55791448974153   -4.93112231222533   -1.63672042185211
H        -8.79760010135219   -4.38932992584269   -0.87081814005953
H        -8.04099011693977   -5.67308979658413   -1.30119009710442
O        -0.60771540422395    3.42403505946948   10.17129370738481
H        -0.82051511870729    2.98127452823707    9.32829597978020
H         0.33752501642626    3.27482595650460   10.31137549384469
O        -3.55046489304077   -1.02492218801197    9.27180351997223
H        -3.73546328632555   -0.14680443553249    8.88249296935471
H        -3.10941800534675   -0.83434051804186   10.12722819888628
O         2.39653792266386   -3.31283427567641    7.76965107721918
H         1.86690177251095   -3.83052193737056    7.12807545959205
H         1.87600327804358   -2.48683819253418    7.89852736065974
O         8.72688252905280   -7.30281547204061   -0.01708837961910
H         8.64212067430763   -6.39292731898742    0.33081346117728
H         8.03150242031446   -7.37711394217342   -0.68674798462541
O         1.27458938003571    8.26644282166620    1.85953105419663
H         0.98646101176040    7.42210028960204    2.25667011978894
H         0.47732380265673    8.71098302750462    1.52896913845892
O         2.00945034757051   -0.02838583814071   10.15973460613415
H         1.68535895017494   -0.93870872972315   10.21969338449991
H         1.22507951371044    0.47680421634667    9.90072968298037
O        -2.76814994062774   -1.69173069090824   -1.54977141621826
H        -3.10722002539395   -1.86670703190671   -0.65579368205211
H        -1.80469571483356   -1.84154498498494   -1.48692393402386
O         2.58594825401515   -9.68427124305348    5.50362118564104
H         1.94908139631936   -9.65119355541020    4.77560408848302
H         3.35932126967270   -9.17730495588498    5.20284802161784
O        -1.28656883683780    2.62623296614324    7.71758023160090
H        -0.41732429124204    2.72479118755822    7.28652139234805
H        -1.96581078870158    2.51107446429446    7.04091430356293
O       -10.36268679715317   -1.80346934453677    2.57915939764297
H        -9.85198501347738   -1.81672993455936    3.40270171734158
H       -11.17524024672406   -1.32700254909337    2.82057830631737
O        -1.88669570668835   -2.71242362142345   -5.16836082680539
H        -1.98431308136149   -3.46873592948368   -5.77186814623450
H        -1.99931093583339   -3.10582131165560   -4.28221494873985
O        -0.03762324986496    0.05543361134349    0.57061082319219
H        -0.69317708561486    0.23139154278285   -0.13623886425031
H         0.10929609524996   -0.90949102234647    0.65743636303655
O         4.27021312597046    6.64861282630966   -3.53125531458340
H         3.38974335618008    6.21720047076290   -3.45846499423447
H         4.70250277614519    6.46412431084205   -2.68337495755074
O        -2.85388697755494   -3.94036011599288   -2.95164814855722
H        -3.65451730750340   -4.18978596170310   -3.43746944959249
H        -3.02827376651577   -3.12712286399164   -2.42877114664902
O        -6.62362948408170    4.02510947996226   -7.74385549604652
H        -6.89385778692160    3.64724509567355   -6.88729147211997
H        -5.65346687487533    4.09522840400415   -7.72867365772422
O        -7.43969012627018    3.62825267365618    6.91032789414512
H        -7.63739617194522    4.01347236005798    6.03684832065665
H        -6.66271566037335    4.14015121499213    7.20512721296824
O        -3.86271513137420    8.18028324503849   -6.61350418475594
H        -3.93032680265062    8.91717178690072   -5.99135049684158
H        -4.37278162565492    7.46527620781570   -6.21038462143343
O         3.84462433324904   -6.41747842399088    2.67561776522481
H         4.31064355812212   -6.79002549810696    1.90940741641271
H         4.07596491788797   -7.01752791684215    3.43601682103118
O         7.00954000001889    6.84613783590331    0.82050014015973
H         7.32895700858514    5.90525819860134    0.86874459724535
H         7.74976413394879    7.37653097175223    0.52957928474521
O        -0.32168384901850   -1.54947297179855   -7.58577161105053
H        -0.03056474988130   -2.14328089287719   -8.30964597813527
H        -1.28630468023685   -1.47430801963399   -7.63079892764418
O         0.72881740136366    6.26461251564292   -5.70111925359636
H         1.29206389870100    6.07635172025266   -6.45204370955604
H        -0.18645938729399    6.30477390198371   -6.04914112971582
O        -6.96980302889507   -0.47347910374852    0.96321587496669
H        -6.62687855257819   -0.37485157737765    0.05204377776078
H        -6.88023854820256   -1.41170201885333    1.16848827243540
O         7.80824544913587    1.49577954359155   -6.18134409644403
H         7.17475737969887    2.19506840247759   -6.52873443069541
H         8.67782617768161    1.77889240685409   -6.46584474292691
O         4.98056860934268   -4.53506418777617    4.22818011473595
H         4.46619082866426   -4.74488186743428    5.02328747683035
H         4.62059606987385   -5.10835401601474    3.53179361391376
O        -1.84217560346308   -8.46372265337039   -0.40244610133349
H        -1.83754969193832   -7.59376468333989   -0.84456299051442
H        -2.78491041216765   -8.60295831626047   -0.19934519283499
O        -2.63479836980362   -0.21437139807622    4.94695705583820
H        -1.73726477858858   -0.22670894894003    5.31676863277010
H        -2.52798123901912   -0.10526131477767    3.98508336158427
O         1.86259651513886    6.81417194066606    5.59151677438027
H         2.58283040297423    6.36731764284480    6.05473901699335
H         2.30414858760968    7.53565564828038    5.06997797186467
O         4.61855003279830    7.16156866412895    2.15642302525495
H         5.53992788029269    7.18538189888134    1.86140882159395
H         4.11156827363105    7.57013439370966    1.43620294218943
O         3.17583005602938   -7.46551905152028   -2.36617242987095
H         2.48061944172955   -7.88044269049204   -2.89861166994097
H         2.97384703270278   -7.72490169684034   -1.44634042583157
O        -5.13569861276905    3.63150349852360   -4.38136939815779
H        -5.77339544401703    3.07315754546710   -3.90380368790145
H        -4.85539798025863    3.09003283075294   -5.14474882734509
O        -4.08353396289822    2.26971064959416   -9.03910477837649
H        -3.89017138058294    3.20934301295303   -9.08392862019570
H        -3.31906857016145    1.79406785372867   -9.41788845559365
O         0.70929383978453   -4.60413369313312    6.12042409254808
H         1.08394122697963   -5.19094681255476    5.45386035618268
H         0.34559620573501   -5.15748755445273    6.84026473713533
O         4.59205411044074    3.29149884919765    8.74016961503201
H         4.33633168149836    2.35559687073693    8.56443032392137
H         5.54456130032000    3.25934674308289    8.92284381862567
O        -5.19712161239738   -5.05480928801472    2.47132700207026
H        -5.27880979219229   -4.71003990957837    3.38004342805993
H        -5.82424435899666   -5.80376540877713    2.39735817398913
O        -0.90882465293696    7.40961850237578    6.13605987154517
H        -1.16972875204706    7.00268326241053    6.96653077862090
H         0.05563276000094    7.36807833858959    6.08726778564069
O        -5.81811219036670   -3.86112202772620    4.78590702561940
H        -5.01408750626472   -3.35210484569323    5.04552491347736
H        -6.32053746623394   -3.26746485610552    4.15081585724535
O         9.47747928190068   -2.23153975402990    6.91867243199924
H         9.97947215558581   -2.50866073457733    7.68330091359121
H         9.46324659690717   -1.23359209149487    6.92426470292647
O         1.78825685307073   -7.48178926283977    6.79136132329554
H         1.59860437503559   -7.15004848943739    5.89547302461054
H         2.07680398856950   -8.40150646377739    6.62975023039729
O        -2.10536004916032    0.39305228300616    2.31062763659115
H        -2.85300064500995    0.30209630348804    1.69091817726267
H        -1.30884377405874    0.17461581994539    1.78902369747807
O        -9.58359282463256    6.26859565293284   -5.27827737054874
H        -9.96283454259308    5.37550776216313   -5.28040258265308
H        -8.93359337459149    6.30803570392542   -5.99941870254578
O         7.92129448810351    1.06863604846082   -3.41034006299367
H         7.85491307384874    1.22387516635828   -4.36473616136202
H         8.85924880543805    1.16593036553780   -3.17066726736557
O        -6.92890308938050   -7.07511469560737    2.30363706174883
H        -7.50768688431373   -6.97997775551372    3.08990554302250
H        -6.38644712958721   -7.85842771033209    2.46181805550492
O         1.46040073300676    0.18411829395483   -6.67368753146412
H         0.85771864210831   -0.51473410764700   -6.99631595288075
H         2.36811917942461   -0.11100985531802   -6.84243693957146
O        -1.06895062820320   -6.31343385587123   -4.20776512573843
H        -0.59093716213457   -5.47063478162644   -3.99430319837892
H        -1.61882676494919   -6.44708379740050   -3.40664293581797
O        -1.71700871516607    6.48974457759679   -6.84490225623731
H        -2.27407773683127    7.27715042985718   -6.71819583308948
H        -2.32400959468411    5.84070112365795   -7.22849563461814
O         2.25649980338703    0.76281803277955   -0.73714579492036
H         1.36940523926336    0.53586767215271   -0.41315328856027
H         2.19273691670729    1.47118469061813   -1.39787436210556
O        -4.06836953681395    9.47056416249646   -4.14995478680174
H        -3.33370411350518    8.81373489734445   -4.11536900910113
H        -4.83982223848693    8.99704805746098   -3.78637186927588
O         2.58802789862306   -5.18338469678505   -3.66632565231895
H         3.33097502749642   -4.59662034418446   -3.86079858255412
H         2.93089509964384   -5.92650519042747   -3.12983514490781
O         4.89692241411527    6.26424080701832   -0.85409413037744
H         5.70448085166769    6.45288052625351   -0.34977070376322
H         4.28748336656017    7.00345878151857   -0.64458210577265
O         3.25847295701038   -2.92836906599508   -8.39462795695697
H         3.90324889215241   -3.12986579346300   -9.07311742612344
H         3.42028075533691   -1.99676601558910   -8.13367421451279
O         1.90735514816975    5.46214321723839   -3.33602525474590
H         1.43636359621936    5.58308382422894   -4.17722735763293
H         1.92419711115908    4.50563204064647   -3.15026884729503
O         7.77664062925522    4.35883984860948    0.82294738093557
H         7.63820120920895    3.97275833982855   -0.05475651655952
H         7.25636845189875    3.79066397407784    1.42603629005244
O         0.45797848075813    2.65491211197124    1.35358392691468
H         0.48077333372689    1.70059642923464    1.20604039977475
H         1.13171039219540    2.88660710880547    2.01502939001218
O        -6.22558809000309   -3.22013823828923    0.80985676132831
H        -5.93684119059782   -3.66578610246152   -0.01304377666935
H        -5.99039074980024   -3.84144017083818    1.52794591203478
O         2.11522599758884    3.47354190531830   -9.70442238802391
H         1.46814834503603    2.77673032775266   -9.45451667616994
H         2.11909330174951    3.51208439730286  -10.66005505325285
O         7.35489799828278   -0.93567287965557    0.76528107981268
H         6.72349717811401   -0.20959118257222    0.57335084050718
H         8.13003577964250   -0.78301808636626    0.19620982283239
O        -5.71958691474937   -0.39361367143084   -1.32630023327780
H        -5.56260616927815   -1.22311710072094   -1.82180376534207
H        -5.88744021533413    0.28954062079872   -1.99436709421763
O         0.18228449119428   -4.10483937154973   -3.50318581415205
H         0.28483320779145   -3.61376649039640   -4.34710547097275
H         1.07666327543644   -4.45780512234975   -3.33313358442225
O         3.58979807838775    5.27938044125928    7.23705357677003
H         2.94133806827998    5.64810596879368    7.85741087909479
H         4.09159452810325    4.62756451647696    7.77049377129458
O        -1.56424627150816    5.03030765879892   -4.10263732097223
H        -1.66283825842010    5.98408311764844   -4.27307642818336
H        -2.21383420310284    4.84750246332010   -3.39222142362978
O         7.37108335256513   -5.22302644427890    5.26466800003621
H         8.05168199741840   -4.58342643890436    4.98289674791336
H         6.53899289222979   -4.92496895904011    4.84046885966864
O        -5.81074030909832    7.58178564841125   -3.20924487215302
H        -5.47832698721781    7.04253345282407   -3.95532834790068
H        -5.34110480258691    7.27833399660526   -2.40280996708519
O         0.72200593380423   -3.28127351760745   -9.31318745771415
H         0.42331085608495   -4.08977106962546   -8.86588592248515
H         1.64999087216740   -3.17342782561548   -9.02577314354275
O         2.89614811737818    0.04847801028709    6.07486384749864
H         3.37771596005202   -0.79322550242673    5.92575131869062
H         2.88913240371811    0.53112656561727    5.23577068578855
O         3.89414340224445    0.74280152698634    8.44197445342605
H         3.26084428528323    0.43539322597760    9.12857166322000
H         3.44837972306530    0.60322552013863    7.58117112909194
O         7.34980408786120    2.55903201207441   -1.21464466716830
H         7.48272221078713    2.12524535809190   -2.07770061308328
H         6.61355997098775    2.06552343479241   -0.79364259903442
O         4.01637624394580   -2.34979246631651    5.97518609536967
H         3.52628688509777   -2.76170191900705    6.72897800316652
H         4.94911805477717   -2.36367839468386    6.20729551774481
O        -4.25042057182918    2.19568344121948   -1.65414473307237
H        -4.15608265154481    1.49379489259572   -2.33773017525430
H        -5.16566774815252    2.49562580223577   -1.70706234655742
O         0.24457359617162   -9.66018022327300    0.95125703268096
H        -0.43213830718082   -9.16161327899166    0.46252263985443
H         1.07743074825165   -9.47641196646653    0.49710309473627
O        -2.25428210210731   -6.09826773832575    6.70968314194453
H        -1.47494384737569   -6.17713183350010    7.28324667951400
H        -3.00728592559238   -5.83011901041613    7.28965872713281
O        -3.76258792515413   -7.66632174472104    5.17337085194381
H        -3.11094032129066   -7.11385178560289    5.65626700379282
H        -3.62321017836772   -8.56650616066484    5.46823860835854
O         7.50070400120713   -8.56137996395459    1.95523381089212
H         8.08138860874059   -8.13343105624184    1.27465063182744
H         7.77802534473644   -9.47414214470255    2.02878362848648
O         9.14965486937162   -3.31779473670112    4.42237027967162
H         9.45964813330028   -2.98642215953529    5.27837011892100
H         8.71912420276755   -2.54771310984543    3.99529033503176
O         5.09811076994517   -4.21777772713358   -4.24017438355049
H         4.83472323356478   -4.48847113533899   -5.14441358333625
H         5.91817678937394   -3.70518015498124   -4.32553385995353
O         1.67899404339309    6.22493762845077    9.01019934934455
H         1.75527984533708    6.99175858089698    9.57527434729785
H         0.71459098804903    6.10467334960575    8.80781886560360
O         7.07196663195690   -7.85453892421419    4.66988980646727
H         7.30141952208119   -7.98551041285997    3.74020647992959
H         7.31458100107920   -6.93942798930409    4.90984448557309
O         3.01464136694234    8.50734951205714    3.95843076411910
H         2.36172781340743    8.65858310243116    3.25209887187821
H         3.73746047002598    8.03914092108194    3.50924988131316
O         6.17025785623819   -3.23825686114732    0.23285698840292
H         6.63948983150213   -2.38655070114525    0.39035451886671
H         5.46035363231968   -3.22750686725160    0.90548602602137
O         2.40335965638255   -3.25214509669776    3.97640428783474
H         3.05213235122958   -3.13422031761734    4.68746396488568
H         1.90029802314082   -2.41118141763055    3.96157575859735
O         5.50099162031493    0.26662968532162    3.50565238540085
H         5.60460506798138    0.73113738928559    4.36268164153835
H         5.83469419618785    0.90887336889451    2.85802994010569
O         0.62414700884429   -9.07801564463200    3.53585227779276
H        -0.26862412260101   -9.30998568892084    3.81897204390073
H         0.62434261809062   -9.26297905851331    2.56914446024866
O        -2.33520588008792   -4.74591852627086    4.41277188632865
H        -1.45507216156452   -4.46415061016120    4.08378377224567
H        -2.19996470327162   -5.18319299912390    5.27256116192843
O        -3.31929788143142   -5.60171514097664    0.64926590319356
H        -3.86626071971279   -5.19378954753883    1.34421334766687
H        -2.49044104223809   -5.06810971388361    0.51558808780363
O         6.22703542668557    3.26502671517149   -7.21189504927152
H         5.88634081959554    3.86407292512472   -6.51909629116854
H         5.42160348837433    2.88855014106886   -7.61379212804260
O        -3.33826803227727    2.14779707502983    5.95918682232473
H        -3.18745347555081    1.26422031583361    5.54778038598754
H        -4.11535607091908    2.55640388939154    5.52172251183431
O         0.57873942937663   -6.76554991715199    1.29621173406834
H         0.36248972720016   -6.59752627200052    0.35696080104166
H        -0.27121303334919   -6.80900005092575    1.76708781361746
O        -6.78235945158592   -6.80341726420204   -0.43618559795529
H        -6.04257489038107   -7.43874336512422   -0.45107287321483
H        -7.06596230758487   -6.79561494875030    0.49214903120466
O        -0.95899371330209   -4.53056547617029    0.46789709828814
H        -0.72759955991067   -3.76793634010988   -0.08963299558104
H        -0.65510125519808   -4.31576477847564    1.36106748977571
O        -5.47329124813598   -2.61314874682289   -2.72363762504957
H        -5.29646186380872   -3.38089686161476   -2.15613939199647
H        -6.39951112397658   -2.73316332576677   -3.04808089952266
O         0.66627415865583    1.35563940459990   -8.97876443665761
H         0.85403981003608    0.60851038019595   -9.57891474878921
H         0.97535851311366    1.07942318504329   -8.09230033481572
O        -4.46065929450737    6.67509983790372   -1.06641504764317
H        -3.71251467243015    7.30494710968354   -1.08775412451612
H        -4.09668552522914    5.86403651269216   -1.49159064023600
O        -6.24842299209509   -0.08467846942409   -5.54242609615816
H        -7.03879775374530   -0.62007212688038   -5.61317438577582
H        -5.50043273519449   -0.71130473442232   -5.41765098242677
O         6.44524931109930    2.59842214791210    2.43700946201915
H         6.83359533154763    2.82648508668875    3.29788261888715
H         5.63406628014426    3.15541506282692    2.40225572120736
O         2.32506368326714   -1.99028712227672   -1.96195460087921
H         2.49561611079587   -2.06944128079513   -2.92676827316219
H         2.43578840889104   -2.90284577991314   -1.62077290699654
O        -3.89983520534790    0.13072385887493   -3.26212420550667
H        -3.42105051939307   -0.47942166717337   -2.67879229436935
H        -3.41130350272548    0.19400172754528   -4.10185322803516
O         0.10688544984785    4.59087905632886    6.24633385991115
H        -0.64190866204461    4.60866348770973    5.61712307871549
H         0.73641602088437    5.26305064572006    5.97046567161680
O         3.07970221201176    3.15817216081231    5.65189813101442
H         3.92291182692023    2.66983309525733    5.61618565579799
H         3.26093102593014    3.98391967212116    6.13858162299860
O        -0.01161106391204   -6.13370760078739    8.23541516707863
H         0.50698873419718   -5.60887488696567    8.91047635123248
H         0.60237857252918   -6.81950174252971    7.91555738239220
O        -6.16645804933731    6.94822355578169    4.20334343364940
H        -5.31581526183375    6.74225739638947    4.64505528450560
H        -5.96450012628115    7.16130060641624    3.28530247472074
O        -3.88246810013527    5.32907321875810    2.78331635565900
H        -4.44308832388981    6.04704626561629    2.42783207494894
H        -3.65227511603866    4.81109373180336    1.98935871005076
O        -4.43301305408692   -8.02476966735759    0.17082239823102
H        -4.60247539464092   -8.29562493532993    1.09249390205915
H        -4.04681823249250   -7.13051079332507    0.23561440517684
O        -2.09024728740048   -9.47823090698910    2.89319201257010
H        -1.63393831448771   -9.87273055407081    2.14489377218179
H        -1.98463577940612   -8.50597275799949    2.79150395463744
O        -8.90129157157384   -3.09908323166367    0.48828447572879
H        -9.40957104698242   -2.78469157175733    1.24771735109979
H        -7.96028468832439   -3.12441709078225    0.75792895692731
O        -9.87563408322989    4.27547727419960   -2.12968974470415
H        -9.17590030524209    4.91074354600962   -2.34275874096746
H        -9.50316835633964    3.68483253230444   -1.45178655308823
O         1.32244664749539    2.11883015489954    7.41153878625902
H         1.93893847398927    2.47351714651380    6.74406690789147
H         1.58488141760539    2.51484047995137    8.25817259119685
O        -2.03154345373862   -6.14155881610006   -1.75466386757347
H        -1.12192049813403   -5.91723147640189   -1.47866400436500
H        -2.42720485830382   -5.29209161563790   -2.03878574601339
O        -4.06600094469169    1.47508499960073    8.46452460583568
H        -3.82645283095093    1.73577206958079    7.55347597649219
H        -5.02885484919139    1.58028413683329    8.53686530833312
O        10.27493245919555    1.51704153977628   -2.06727765595844
H        10.09366093675830    0.73584895566422   -1.51487806675965
H        10.01532000017040    2.28006778358082   -1.54725986726398
O        10.76035553791507    0.45380384606418    2.20709151694633
H        11.22827491947966   -0.25534269435039    1.74226423543310
H        10.12880356666471    0.83401005275817    1.57047041367505
O        -7.54965440699590    4.69315117267058    4.43527934708687
H        -7.13308492216340    5.58446451594068    4.36699955116034
H        -8.14766778440001    4.60314009998103    3.67978848409754
O         2.65221431552026    2.93278486270365   -5.59173067455824
H         1.83522942717669    3.18896569648871   -5.11519054688755
H         2.91841941728998    2.10193125499123   -5.16380835796578
O        -7.27630238975573   -2.75161863714629    6.79747746134021
H        -6.88930411862507   -3.25589953825218    6.05498665005637
H        -6.63029310049497   -2.88769995665367    7.51262820642296
O        -0.26742856893115   -2.56024314951345   -1.36363848258714
H        -0.25929874400793   -3.17482586612169   -2.12454996469013
H         0.61187928991955   -2.14702837953232   -1.39402446621535
O         0.20420411720181   -2.22588574288397   10.28047740506782
H        -0.34332535760543   -2.27054754819313    9.46802351106172
H        -0.37481344758693   -1.88063145268315   10.96311514127255
O         2.50634516222663   -4.46856613068447   -1.04837858949772
H         2.40534668250471   -4.45646561665218   -0.06798008244698
H         3.42192423120492   -4.74092284417120   -1.23890963883046
O        -7.44195549245973    6.37753499856327   -7.03801019511172
H        -7.27034931600248    7.02927321962482   -7.71664251556788
H        -7.21651544920519    5.48148529002349   -7.42707631169833
O         8.67134622644955   -0.99184436863890    3.13432190134141
H         9.50822274836877   -0.56373679672285    2.87025231786184
H         8.10731089166099   -1.03330194854444    2.33908984076604
O        -8.18841462417430   -6.71251934501132    4.62632392899778
H        -8.74636971594526   -5.94842259995399    4.77308760721737
H        -7.43279067766360   -6.63174300110071    5.24675234526567
O        -3.62711240914404   -2.64855324058783    5.57087474998819
H        -3.02718025773670   -3.28711892954733    5.13811703085010
H        -3.32076336598535   -1.75103850336303    5.33091509848287
O         4.86522367520164    4.60657798347913   -5.33762444830034
H         4.73788731268342    5.40347000393755   -4.79753806976329
H         4.00026765413739    4.17120660563821   -5.42518027253756
O         0.50752980650802    8.51696765810617   -4.01305715600360
H         0.76257937485445    7.83925415900757   -4.65774963112219
H         0.46067969194715    8.04790214375619   -3.14471580328730
O        -0.69598450767623   -2.29641160780198    5.78741140020213
H        -0.18964788917930   -3.11933089166623    5.69929051973959
H        -1.25101224617877   -2.43318041817599    6.57758978140441
O        -0.85012795622706   -9.88774192027862   -2.46733809792667
H        -1.60275218783678  -10.25123479665789   -2.93177193317441
H        -1.20277137918442   -9.41862152899261   -1.68092716930453
O        -3.91679013270621    4.74029726390282   -7.39728471251983
H        -4.31470884091922    5.30237528758633   -6.71231351610955
H        -3.39842053023842    4.06499232638252   -6.91194361647758
O         2.04455358016230    3.71958868625847    3.25196811369569
H         1.49527077484752    4.52106231049499    3.28351656374933
H         2.32761559316041    3.50239709622807    4.16309540908796
O        -3.12747638315768    2.56527039992049   10.78427895833757
H        -3.36265988095750    2.14491670915981    9.93496264818825
H        -2.18522922221419    2.79134548871390   10.74213721979536
O        -4.38196321589278   -5.52345136248315    8.17840095952378
H        -4.57128509338822   -4.55609854624829    8.17991513048073
H        -5.07664347710431   -5.90948524227458    7.61787114910127
O        -2.06396432193081    7.70708033326955   -3.89296536822810
H        -1.21408250988746    8.13556028371243   -4.11733913254244
H        -2.11758272871094    7.75215830147145   -2.91749224797947
O        -2.41933224247185    8.40673129004723   -1.31252423448888
H        -2.65244022611278    9.32785383733835   -1.55461065918803
H        -1.69907638465096    8.47799279255983   -0.67135746545381
O        -7.95325736069566   -3.02037946004362   -3.45481221785365
H        -8.41487219624707   -2.31770340779178   -2.96159097371166
H        -8.17704631960567   -3.82788940716986   -2.95271378509353
O         3.01035729275990    8.97367608946368   -2.65034976053944
H         3.53381131873186    8.27064447460064   -3.07635078201102
H         2.17385601696562    9.01134155812624   -3.13605287086892
O         4.11038054270031   -4.96541499260677   -6.63419797506897
H         3.72700036416367   -4.21988526348926   -7.12058838147040
H         3.39246043246398   -5.59959062650455   -6.50317286054198
O        -2.67786275016041    0.43929985966279   -5.63084962190884
H        -1.76256056500583    0.64042031578553   -5.36073277964916
H        -3.11076935530986    1.28153355241114   -5.86778415243264
O         1.37969720900244   -4.66340980908490    9.86716669897622
H         0.87927871823848   -3.91471566884524   10.23505082009880
H         1.98617459901925   -4.24231077821195    9.22848345717482
O        -7.04716002935007   -2.24542014004972    3.23589366215577
H        -7.73581953543259   -1.84030670752605    3.78978653718802
H        -6.32764342713280   -1.58052530880309    3.13535874814078
O         6.36606243357203    0.28767806202547    7.63638775585311
H         6.44866026779141   -0.60528442183100    7.23531781452940
H         5.49250160952973    0.31212222602644    8.08284061876287
O        -7.70917123208316    3.66935824530323   -5.26227615805352
H        -8.65348884869925    3.48519884914037   -5.28679872623911
H        -7.60561560254992    4.37036094763747   -4.60153257514219
O        -2.07041860568200    4.25556676579079    4.72546126377658
H        -2.51716645428675    3.53616132330277    5.20379345728086
H        -2.03063440241357    3.94838427620476    3.79581290315244
O         3.92548665779543   -0.42281412950377   -7.75894427666588
H         3.86572027060379    0.52636392273505   -7.99770064657206
H         4.85719270755835   -0.56597831883520   -7.51479164027464
O        -5.12422126394098    7.32688792753669    1.53080488777870
H        -4.48471760403693    8.03723682731611    1.70564319308741
H        -5.00102583246459    7.07426986206400    0.59637035791303
O         2.58054916324076   -8.29755898657325    0.16690495040930
H         2.02290501996480   -7.69207994534184    0.68451534512055
H         3.48080183586579   -8.23677474913647    0.51466628974726
O        -1.94032927654489    3.03367715898006    2.32193545252487
H        -2.13511710304620    2.08097293530199    2.44030047924840
H        -1.02551057598203    3.03825972742677    1.95297733635520
O        -4.18017669299815    0.54646313552578    0.61321499322672
H        -4.51910678091288    0.06114969143185   -0.16491846108323
H        -4.77449106690883    1.31305973479595    0.66645272738551
O         0.58258469202916   -6.30758224509862   -1.34629358893220
H         0.79865771526415   -6.93688592441977   -2.04928836271868
H         1.26641050638333   -5.60793550613030   -1.35398024373491
O        -2.14615495418095   -4.83468187703318    9.68582657909868
H        -1.45913749509121   -5.47474898804779    9.47335766921482
H        -2.99296313662313   -5.22342886122779    9.43726941523232
O         0.86587183445192   -3.14368634578168   -5.86119636501060
H         0.76872514274881   -3.92818837461011   -6.43280684562548