7
Energy:   -129.96705622
O    1.25499293   1.51042448   0.73688511
H    1.28905805   2.45709336   0.87432402
H    2.06293535   1.18148810   1.13091778
O   -1.28013849  -1.60813065  -0.67587642
H   -1.22559956  -1.78250018   0.26372596
H   -1.80267277  -2.33057872  -1.02409842
K   -0.32130802   0.70563603  -1.51062531
