7
Energy:   -130.07122969
O   -2.26395259  -0.86760846   1.42060827
H   -2.30666767  -1.29003941   2.27848901
H   -3.07180677  -1.13376048   0.98155637
O    2.19037988   0.98037637  -1.47765336
H    2.55136652   1.86656664  -1.45341897
H    2.94636675   0.41780514  -1.64566917
K   -0.00621639  -0.03938793  -0.08207645
