7
Energy:   -129.11427804
O    0.62759231   1.23841290   2.28849465
H    1.07487859   0.69423653   2.93659874
H    0.09107556   1.83763009   2.80745552
O   -0.41691124  -1.17100746  -2.35144499
H   -1.32867685  -1.45419889  -2.42013228
H    0.05391623  -1.72462664  -2.97438892
K   -0.24468771   0.61222397  -0.28449362
