7
Energy:   -129.01059505
O    1.75683834   1.61547152   1.09820127
H    1.45185035   2.44857326   1.45758361
H    2.05984614   1.12190554   1.86031067
O   -1.62747471  -1.53852622  -1.22172171
H   -2.49763650  -1.43336388  -1.60641793
H   -1.70758884  -2.30399465  -0.65262447
K    0.55670185   0.05405161  -0.97898102
