22
Energy:   -596.70696136
O   -0.40573760   0.94964397   2.24202794
H   -0.72230151   1.38633664   3.03279886
H   -0.22897455   1.66276852   1.62848083
O   -1.50413873  -2.25449072  -2.32630081
H   -1.88805954  -3.11458710  -2.15579895
H   -1.57253257  -2.14489559  -3.27474324
O    1.16870608  -1.42425152  -0.67967792
H    1.83363276  -2.01623391  -1.03133287
H    1.62219727  -0.93431656   0.00628223
O    2.13795947   0.21470466   1.30217215
H    2.90442959   0.12401377   1.86832634
H    1.40094143   0.29691040   1.90738159
O    0.76260515   2.34406821   0.09999638
H    1.15524665   3.20932180  -0.01576517
H    1.49196982   1.78280808   0.36314291
O   -0.74400262   0.85648175  -1.65710968
H   -1.21845160   1.40516666  -2.28166943
H   -0.22296928   1.47340072  -1.14313780
O   -1.60909395  -0.99268894   0.70856024
H   -1.28189895  -0.35053177   1.33848838
H   -2.34194745  -1.41582680   1.15589897
Li  -0.71268545  -1.00440074  -1.03614766
