22
Energy:   -586.11811442
O    1.14573461   0.32055956   4.00230139
H    0.40146437   0.21142745   4.59423370
H    1.90678353   0.37181171   4.58058299
O    0.34889835   2.46877604   1.09381594
H    0.23227087   3.36606690   0.78156767
H    0.56024510   2.56343680   2.02258057
O   -1.50972766   0.19292335  -0.18501891
H   -1.81937728  -0.46120599  -0.81148819
H   -2.29969620   0.47854631   0.27389402
O   -2.39323113  -1.68656322  -2.04972479
H   -2.71990245  -2.53734511  -1.75699988
H   -3.01513592  -1.40922704  -2.72244384
O    1.28650573   0.82194700  -1.59613161
H    0.98990860   0.08823417  -2.13458075
H    2.01098427   1.20509184  -2.09066444
O    1.23955439  -0.45868190   1.37810085
H    1.74912129  -1.26547351   1.30286315
H    1.24272380  -0.25925741   2.31429083
O    0.25781647  -1.34124709  -2.83002288
H   -0.65714856  -1.56201280  -2.65585813
H    0.52614231  -1.95336995  -3.51525182
Li   0.35080244   0.75810496   0.11944845
