22
Energy:   -585.60587458
O   -2.77977463   0.83918416   0.06386843
H   -3.05187359   1.71050162   0.35196544
H   -3.59798813   0.39053358  -0.14937128
O   -0.67752645  -2.88489536  -1.37816352
H   -0.89359682  -3.68987363  -0.90746677
H   -0.87277979  -3.08270704  -2.29412123
O    1.99471666  -1.02318691  -0.67661794
H    2.17701462  -0.08453993  -0.63255944
H    2.82542918  -1.41672161  -0.94359920
O    1.08083076   1.11964152   2.35932468
H    1.79171380   0.69462739   2.83915812
H    0.72131012   1.75627568   2.97712214
O    1.63570870   1.69540303  -0.32782381
H    2.13134397   2.50184357  -0.47006018
H    1.49075160   1.66644299   0.61789317
O   -0.55366427   0.39706208  -1.61410280
H    0.07978686   1.09399496  -1.44305874
H   -1.37816454   0.72984207  -1.25957687
O   -0.64087268  -0.69156263   1.09146623
H   -0.09912970  -0.14380173   1.65953699
H   -1.45757823  -0.20197455   0.99385784
Li   0.04725991  -1.21447901  -0.67053894
