22
Energy:   -588.85347521
O   -1.54129983   1.99209058  -2.34527883
H   -2.18534289   1.80159760  -3.02729995
H   -1.32729401   2.91684232  -2.46884086
O    0.90009204  -2.31970719  -2.37635479
H    0.40127866  -2.76648489  -3.06031878
H    1.80240057  -2.61055633  -2.50855897
O   -1.72477847   0.93790204   0.24604564
H   -2.49385108   1.17637025   0.76362855
H   -1.85286614   1.38144861  -0.59246008
O    1.20478539   0.67045374   1.69009204
H    2.03482600   1.14190970   1.61942584
H    1.05961221   0.57996082   2.63188163
O    0.60456156   0.35394966  -1.51693607
H    0.01680294   0.89483387  -2.04439785
H    0.76272025  -0.42251669  -2.05388828
O    0.78600126   0.40980857   4.36299706
H    0.42550181   1.07058857   4.95430221
H    1.17319220  -0.24574335   4.94314076
O   -0.08251648  -1.96306023   0.22503962
H   -0.27091128  -2.75083533   0.73508828
H    0.22680865  -2.29191258  -0.61900182
Li   0.00010154  -0.00158989   0.32231476
