22
Energy:   -577.49326261
O   -0.90817923   0.35192658   0.10032825
H   -0.45372116   0.44292491   0.93783587
H   -1.26706418  -0.53528777   0.11718473
O   -0.78056665   2.60064981  -2.23935561
H   -1.60059681   2.98108208  -1.92462768
H   -0.41395325   3.26745833  -2.82003872
O    1.86246825   1.05574565  -1.09131470
H    2.20611895   1.18416510  -0.20720809
H    2.63130115   0.83821466  -1.61838973
O   -1.76048085  -2.20167258  -0.81511789
H   -2.70630360  -2.32266563  -0.89885469
H   -1.44501155  -3.02580605  -0.44428773
O    1.39333733  -1.37975425   4.01291659
H    2.28022781  -1.55422961   4.32790147
H    0.82619403  -1.86677218   4.61074086
O   -0.43466263  -0.62389366  -2.72181449
H   -0.50326199  -0.89285654  -3.63788487
H   -0.89774389  -1.30636659  -2.23599733
O    0.60659820   0.64918400   2.33337318
H    0.89646067  -0.09280704   2.86409052
H    0.52149150   1.37102567   2.95621609
Li  -0.04615788   0.91686405  -1.55193319
