22
Energy:   -591.27228979
O   -3.00861471   1.68778249  -0.28028194
H   -3.25941197   2.58366343  -0.05504889
H   -3.83957513   1.23470547  -0.42331286
O    2.63803143  -3.35259601   0.95636166
H    2.34687077  -4.17402272   1.35223472
H    3.46142548  -3.57435781   0.52153321
O    1.07711343   1.70560569  -0.32218864
H    0.51198826   1.83477595  -1.08388440
H    1.74666738   2.38496879  -0.40215827
O   -0.98515830   1.34425405  -2.17075712
H   -1.21687972   1.67220881  -3.03965453
H   -1.75880133   1.51790950  -1.63451828
O    1.84396680  -0.85822838   1.68453724
H    2.13298544  -1.73866411   1.44467685
H    2.37075571  -0.63331958   2.45144097
O    0.03137976  -1.01418410  -1.04590977
H    0.13694106  -1.84327472  -1.51249031
H   -0.35636584  -0.42322697  -1.69139785
O   -1.16795089   0.45537342   1.42452420
H   -1.85957164   0.88340322   0.91986284
H   -1.55739157   0.30500789   2.28589404
Li   0.53858315   0.02220577   0.54827037
