22
Energy:   -587.45715207
O   -0.96073070  -1.12229083   1.09947118
H   -1.22764292  -0.78497475   1.95457794
H   -1.51391265  -1.89117016   0.96146336
O   -0.31567853   0.00464147  -3.75193000
H   -1.13913787  -0.13705892  -4.21890706
H    0.31821518   0.20834480  -4.43961857
O    2.35891392  -0.36658990   0.36774813
H    2.95612753  -0.90497624  -0.15158597
H    2.90606849  -0.00603072   1.06549507
O    0.41631728  -1.50537350  -1.51246740
H    0.47537475  -2.44757722  -1.67056931
H    0.18218431  -1.13354700  -2.36285475
O   -0.21225912   1.30458797  -1.28234151
H   -0.30020756   1.02241607  -2.19276775
H   -0.52741498   2.20841411  -1.27970661
O    0.37432588   1.38250652   1.63572350
H    0.66019906   2.27111227   1.84759182
H   -0.20128143   1.13651451   2.35987543
O   -1.40361450   0.26253983   3.48390235
H   -1.09319168  -0.08793428   4.31879002
H   -2.24782451   0.66339555   3.69091924
Li   0.40008616  -0.06217479   0.06236826
