7
Energy:   -444.81009852
O    0.92142762   0.66276980  -0.76625985
H    0.89572468   0.81737043  -1.71054257
H    1.73553466   1.07525754  -0.47761570
O   -0.92142742  -0.66276974   0.76626014
H   -1.68612235  -0.29658629   1.21053842
H   -0.94513754  -1.59604202   0.97761889
H    0.00000027   0.00000027   0.00000058
