
                                 *****************
                                 * O   R   C   A *
                                 *****************

           --- An Ab Initio, DFT and Semiempirical electronic structure package ---

                  #######################################################
                  #                        -***-                        #
                  #          Department of theory and spectroscopy      #
                  #               Directorship: Frank Neese             #
                  #        Max Planck Institute fuer Kohlenforschung    #
                  #                Kaiser Wilhelm Platz 1               #
                  #                 D-45470 Muelheim/Ruhr               #
                  #                      Germany                        #
                  #                                                     #
                  #                  All rights reserved                #
                  #                        -***-                        #
                  #######################################################


                         Program Version 4.2.0 -  RELEASE  -


 With contributions from (in alphabetic order):
   Daniel Aravena         : Magnetic Suceptibility
   Michael Atanasov       : Ab Initio Ligand Field Theory (pilot matlab implementation)
   Alexander A. Auer      : GIAO ZORA, VPT2
   Ute Becker             : Parallelization
   Giovanni Bistoni       : ED, misc. LED, open-shell LED, HFLED
   Martin Brehm           : Molecular dynamics
   Dmytro Bykov           : SCF Hessian
   Vijay G. Chilkuri      : MRCI spin determinant printing, contributions to CSF-ICE
   Dipayan Datta          : RHF DLPNO-CCSD density
   Achintya Kumar Dutta   : EOM-CC, STEOM-CC
   Dmitry Ganyushin       : Spin-Orbit,Spin-Spin,Magnetic field MRCI
   Miquel Garcia          : C-PCM Hessian, Gaussian charge scheme
   Yang Guo               : DLPNO-NEVPT2, CIM, IAO-localization
   Andreas Hansen         : Spin unrestricted coupled pair/coupled cluster methods
   Benjamin Helmich-Paris : CASSCF linear response (MC-RPA)
   Lee Huntington         : MR-EOM, pCC
   Robert Izsak           : Overlap fitted RIJCOSX, COSX-SCS-MP3, EOM
   Christian Kollmar      : KDIIS, OOCD, Brueckner-CCSD(T), CCSD density
   Simone Kossmann        : Meta GGA functionals, TD-DFT gradient, OOMP2, MP2 Hessian
   Martin Krupicka        : AUTO-CI
   Lucas Lang             : DCDCAS
   Dagmar Lenk            : GEPOL surface, SMD
   Dimitrios Liakos       : Extrapolation schemes; Compound Job, initial MDCI parallelization
   Dimitrios Manganas     : Further ROCIS development; embedding schemes
   Dimitrios Pantazis     : SARC Basis sets
   Taras Petrenko         : DFT Hessian,TD-DFT gradient, ASA, ECA, R-Raman, ABS, FL, XAS/XES, NRVS
   Peter Pinski           : DLPNO-MP2, DLPNO-MP2 Gradient
   Christoph Reimann      : Effective Core Potentials
   Marius Retegan         : Local ZFS, SOC
   Christoph Riplinger    : Optimizer, TS searches, QM/MM, DLPNO-CCSD(T), (RO)-DLPNO pert. Triples
   Tobias Risthaus        : Range-separated hybrids, TD-DFT gradient, RPA, STAB
   Michael Roemelt        : Original ROCIS implementation
   Masaaki Saitow         : Open-shell DLPNO-CCSD energy and density
   Barbara Sandhoefer     : DKH picture change effects
   Avijit Sen             : IP-ROCIS
   Kantharuban Sivalingam : CASSCF convergence, NEVPT2, FIC-MRCI
   Bernardo de Souza      : ESD, SOC TD-DFT
   Georgi Stoychev        : AutoAux, RI-MP2 NMR
   Willem Van den Heuvel  : Paramagnetic NMR
   Boris Wezisla          : Elementary symmetry handling
   Frank Wennmohs         : Technical directorship


 We gratefully acknowledge several colleagues who have allowed us to
 interface, adapt or use parts of their codes:
   Stefan Grimme, W. Hujo, H. Kruse,             : VdW corrections, initial TS optimization,
                  C. Bannwarth                     DFT functionals, gCP, sTDA/sTD-DF
   Ed Valeev, F. Pavosevic, A. Kumar             : LibInt (2-el integral package), F12 methods
   Garnet Chan, S. Sharma, J. Yang, R. Olivares  : DMRG
   Ulf Ekstrom                                   : XCFun DFT Library
   Mihaly Kallay                                 : mrcc  (arbitrary order and MRCC methods)
   Andreas Klamt, Michael Diedenhofen            : otool_cosmo (COSMO solvation model)
   Jiri Pittner, Ondrej Demel                    : Mk-CCSD
   Frank Weinhold                                : gennbo (NPA and NBO analysis)
   Christopher J. Cramer and Donald G. Truhlar   : smd solvation model
   Lars Goerigk                                  : TD-DFT with DH, B97 family of functionals
   V. Asgeirsson, H. Jonsson                     : NEB implementation
   FAccTs GmbH                                   : IRC, NEB, NEB-TS, Multilevel, MM, QM/MM, CI optimization
   S Lehtola, MJT Oliveira, MAL Marques          : LibXC Library


 Your calculation uses the libint2 library for the computation of 2-el integrals
 For citations please refer to: http://libint.valeyev.net

 Your ORCA version has been built with support for libXC version: 4.2.3
 For citations please refer to: https://tddft.org/programs/libxc/

 This ORCA versions uses:
   CBLAS   interface :  Fast vector & matrix operations
   LAPACKE interface :  Fast linear algebra routines
   SCALAPACK package :  Parallel linear algebra routines


----- Orbital basis set information -----
Your calculation utilizes the basis: def2-TZVP
   F. Weigend and R. Ahlrichs, Phys. Chem. Chem. Phys. 7, 3297 (2005).

================================================================================
                                        WARNINGS
                       Please study these warnings very carefully!
================================================================================


WARNING: The frozen-core approximation for MP2-gradient calculations is turned on by default.

INFO   : the flag for use of LIBINT has been found!

================================================================================
                                       INPUT FILE
================================================================================
NAME = 12h2o.su.etal.mol0,1,3,5,7,9,10,11-orca.engrad-mp2.def2tzvp.frozencore.inp
|  1> # 12h2o.su.etal.mol0,1,3,5,7,9,10,11
|  2> ! MP2 def2-TZVP EnGrad TightSCF
|  3> 
|  4> %pal
|  5>     nprocs 6
|  6> end
|  7> 
|  8> %maxcore 8000
|  9> 
| 10> %scf
| 11>     ConvForced true
| 12> end
| 13> 
| 14> *xyz 0 1
| 15> O   1.794470000   0.923410000   2.768350000
| 16> H   2.338250000   1.359750000   3.430940000
| 17> H   0.879480000   1.303000000   2.865760000
| 18> O  -1.794470000  -0.923410000   2.768350000
| 19> H  -2.338250000  -1.359750000   3.430940000
| 20> H  -0.879480000  -1.303000000   2.865760000
| 21> O  -1.752130000  -0.741530000  -2.896280000
| 22> H  -2.036450000  -0.920500000  -1.984040000
| 23> H  -0.921210000  -1.242140000  -2.984230000
| 24> O   0.885520000  -1.737840000   0.052730000
| 25> H   1.284090000  -0.839590000   0.017130000
| 26> H   1.032320000  -2.090180000  -0.841890000
| 27> O  -1.737840000  -0.885520000  -0.052730000
| 28> H  -2.090180000  -1.032320000   0.841890000
| 29> H  -0.839590000  -1.284090000  -0.017130000
| 30> O   0.741530000  -1.752130000   2.896280000
| 31> H   0.920500000  -2.036450000   1.984040000
| 32> H   1.242140000  -0.921210000   2.984230000
| 33> O  -0.923410000   1.794470000  -2.768350000
| 34> H  -1.359750000   2.338250000  -3.430940000
| 35> H  -1.303000000   0.879480000  -2.865760000
| 36> O  -0.741530000   1.752130000   2.896280000
| 37> H  -0.920500000   2.036450000   1.984040000
| 38> H  -1.242140000   0.921210000   2.984230000
| 39> *
| 40> 
| 41>                          ****END OF INPUT****
================================================================================

                     *******************************
                     * Energy+Gradient Calculation *
                     *******************************

---------------------------------
CARTESIAN COORDINATES (ANGSTROEM)
---------------------------------
  O      1.794470    0.923410    2.768350
  H      2.338250    1.359750    3.430940
  H      0.879480    1.303000    2.865760
  O     -1.794470   -0.923410    2.768350
  H     -2.338250   -1.359750    3.430940
  H     -0.879480   -1.303000    2.865760
  O     -1.752130   -0.741530   -2.896280
  H     -2.036450   -0.920500   -1.984040
  H     -0.921210   -1.242140   -2.984230
  O      0.885520   -1.737840    0.052730
  H      1.284090   -0.839590    0.017130
  H      1.032320   -2.090180   -0.841890
  O     -1.737840   -0.885520   -0.052730
  H     -2.090180   -1.032320    0.841890
  H     -0.839590   -1.284090   -0.017130
  O      0.741530   -1.752130    2.896280
  H      0.920500   -2.036450    1.984040
  H      1.242140   -0.921210    2.984230
  O     -0.923410    1.794470   -2.768350
  H     -1.359750    2.338250   -3.430940
  H     -1.303000    0.879480   -2.865760
  O     -0.741530    1.752130    2.896280
  H     -0.920500    2.036450    1.984040
  H     -1.242140    0.921210    2.984230

----------------------------
CARTESIAN COORDINATES (A.U.)
----------------------------
  NO LB      ZA    FRAG     MASS         X           Y           Z
   0 O     8.0000    0    15.999    3.391057    1.744992    5.231423
   1 H     1.0000    0     1.008    4.418652    2.569555    6.483537
   2 H     1.0000    0     1.008    1.661976    2.462313    5.415502
   3 O     8.0000    0    15.999   -3.391057   -1.744992    5.231423
   4 H     1.0000    0     1.008   -4.418652   -2.569555    6.483537
   5 H     1.0000    0     1.008   -1.661976   -2.462313    5.415502
   6 O     8.0000    0    15.999   -3.311046   -1.401289   -5.473176
   7 H     1.0000    0     1.008   -3.848333   -1.739493   -3.749292
   8 H     1.0000    0     1.008   -1.740835   -2.347304   -5.639377
   9 O     8.0000    0    15.999    1.673390   -3.284042    0.099645
  10 H     1.0000    0     1.008    2.426578   -1.586595    0.032371
  11 H     1.0000    0     1.008    1.950802   -3.949868   -1.590942
  12 O     8.0000    0    15.999   -3.284042   -1.673390   -0.099645
  13 H     1.0000    0     1.008   -3.949868   -1.950802    1.590942
  14 H     1.0000    0     1.008   -1.586595   -2.426578   -0.032371
  15 O     8.0000    0    15.999    1.401289   -3.311046    5.473176
  16 H     1.0000    0     1.008    1.739493   -3.848333    3.749292
  17 H     1.0000    0     1.008    2.347304   -1.740835    5.639377
  18 O     8.0000    0    15.999   -1.744992    3.391057   -5.231423
  19 H     1.0000    0     1.008   -2.569555    4.418652   -6.483537
  20 H     1.0000    0     1.008   -2.462313    1.661976   -5.415502
  21 O     8.0000    0    15.999   -1.401289    3.311046    5.473176
  22 H     1.0000    0     1.008   -1.739493    3.848333    3.749292
  23 H     1.0000    0     1.008   -2.347304    1.740835    5.639377

--------------------------------
INTERNAL COORDINATES (ANGSTROEM)
--------------------------------
 O      0   0   0     0.000000000000     0.00000000     0.00000000
 H      1   0   0     0.961828878803     0.00000000     0.00000000
 H      1   2   0     0.995381322057   106.21731035     0.00000000
 O      3   1   2     3.480861789658   117.35405144   223.81249033
 H      4   3   1     0.961828878803   134.84484566    98.22461471
 H      4   3   1     0.995381322057    62.29205096    12.66575463
 O      4   3   1     5.667707300743    90.09768939   276.02472436
 H      7   4   3     0.972136791249    18.92045113   191.47242104
 H      7   4   3     0.974050112161    94.59568686    71.02022155
 O      6   4   3     3.349245975813   116.85538783   276.41377787
 H     10   6   4     0.983350632989    97.20424340    87.67157074
 H     10   6   4     0.972645187106   154.03893681   304.15813038
 O      8   7   4     1.954571525578   151.55104644   356.10627670
 H     13   8   7     0.972645187106   148.29772527   173.62852352
 H     13   8   7     0.983350632989    99.67573411   310.71905253
 O      6   4   3     1.682356278379   171.61043709   328.33166207
 H     16   6   4     0.972136791249   103.79460456   289.35412162
 H     16   6   4     0.974050112161   105.61118924    38.30604821
 O      7   4   3     2.671037050155    89.13575954   327.88998495
 H     19   7   4     0.961828878803   111.28648995   220.47225898
 H     19   7   4     0.995381322057     5.27275451   236.70454430
 O      3   1   2     1.682356278379   171.61043709   195.73896161
 H     22   3   1     0.972136791249   103.79460456   289.35412162
 H     22   3   1     0.974050112161   105.61118924    38.30604821

---------------------------
INTERNAL COORDINATES (A.U.)
---------------------------
 O      0   0   0     0.000000000000     0.00000000     0.00000000
 H      1   0   0     1.817593168635     0.00000000     0.00000000
 H      1   2   0     1.880998097508   106.21731035     0.00000000
 O      3   1   2     6.577875492484   117.35405144   223.81249033
 H      4   3   1     1.817593168635   134.84484566    98.22461471
 H      4   3   1     1.880998097508    62.29205096    12.66575463
 O      4   3   1    10.710414605631    90.09768939   276.02472436
 H      7   4   3     1.837072300170    18.92045113   191.47242104
 H      7   4   3     1.840687952699    94.59568686    71.02022155
 O      6   4   3     6.329157649425   116.85538783   276.41377787
 H     10   6   4     1.858263389967    97.20424340    87.67157074
 H     10   6   4     1.838033029106   154.03893681   304.15813038
 O      8   7   4     3.693604892503   151.55104644   356.10627670
 H     13   8   7     1.838033029106   148.29772527   173.62852352
 H     13   8   7     1.858263389967    99.67573411   310.71905253
 O      6   4   3     3.179192625819   171.61043709   328.33166207
 H     16   6   4     1.837072300170   103.79460456   289.35412162
 H     16   6   4     1.840687952699   105.61118924    38.30604821
 O      7   4   3     5.047528518350    89.13575954   327.88998495
 H     19   7   4     1.817593168635   111.28648995   220.47225898
 H     19   7   4     1.880998097508     5.27275451   236.70454430
 O      3   1   2     3.179192625819   171.61043709   195.73896161
 H     22   3   1     1.837072300170   103.79460456   289.35412162
 H     22   3   1     1.840687952699   105.61118924    38.30604821

---------------------
BASIS SET INFORMATION
---------------------
There are 2 groups of distinct atoms

 Group   1 Type O   : 11s6p2d1f contracted to 5s3p2d1f pattern {62111/411/11/1}
 Group   2 Type H   : 5s1p contracted to 3s1p pattern {311/1}

Atom   0O    basis set group =>   1
Atom   1H    basis set group =>   2
Atom   2H    basis set group =>   2
Atom   3O    basis set group =>   1
Atom   4H    basis set group =>   2
Atom   5H    basis set group =>   2
Atom   6O    basis set group =>   1
Atom   7H    basis set group =>   2
Atom   8H    basis set group =>   2
Atom   9O    basis set group =>   1
Atom  10H    basis set group =>   2
Atom  11H    basis set group =>   2
Atom  12O    basis set group =>   1
Atom  13H    basis set group =>   2
Atom  14H    basis set group =>   2
Atom  15O    basis set group =>   1
Atom  16H    basis set group =>   2
Atom  17H    basis set group =>   2
Atom  18O    basis set group =>   1
Atom  19H    basis set group =>   2
Atom  20H    basis set group =>   2
Atom  21O    basis set group =>   1
Atom  22H    basis set group =>   2
Atom  23H    basis set group =>   2


           ************************************************************
           *        Program running with 6 parallel MPI-processes     *
           *              working on a common directory               *
           ************************************************************
------------------------------------------------------------------------------
                           ORCA GTO INTEGRAL CALCULATION
------------------------------------------------------------------------------

                         BASIS SET STATISTICS AND STARTUP INFO

 # of primitive gaussian shells          ...  256
 # of primitive gaussian functions       ...  496
 # of contracted shells                  ...  152
 # of contracted basis functions         ...  344
 Highest angular momentum                ...    3
 Maximum contraction depth               ...    6
 Integral package used                   ... LIBINT
 Integral threshhold            Thresh   ...  2.500e-11
 Primitive cut-off              TCut     ...  2.500e-12


------------------------------ INTEGRAL EVALUATION ----------------------------


 * One electron integrals 
 Pre-screening matrix                    ... done
 Shell pair data                         ... done (   0.002 sec)



           ************************************************************
           *        Program running with 6 parallel MPI-processes     *
           *              working on a common directory               *
           ************************************************************
-------------------------------------------------------------------------------
                                 ORCA SCF
-------------------------------------------------------------------------------

------------
SCF SETTINGS
------------
Hamiltonian:
 Ab initio Hamiltonian  Method          .... Hartree-Fock(GTOs)


General Settings:
 Integral files         IntName         .... 12h2o.su.etal.mol0,1,3,5,7,9,10,11-orca.engrad-mp2.def2tzvp.frozencore
 Hartree-Fock type      HFTyp           .... RHF
 Total Charge           Charge          ....    0
 Multiplicity           Mult            ....    1
 Number of Electrons    NEL             ....   80
 Basis Dimension        Dim             ....  344
 Nuclear Repulsion      ENuc            ....    453.4923317985 Eh

Convergence Acceleration:
 DIIS                   CNVDIIS         .... on
   Start iteration      DIISMaxIt       ....    12
   Startup error        DIISStart       ....  0.200000
   # of expansion vecs  DIISMaxEq       ....     5
   Bias factor          DIISBfac        ....   1.050
   Max. coefficient     DIISMaxC        ....  10.000
 Newton-Raphson         CNVNR           .... off
 SOSCF                  CNVSOSCF        .... on
   Start iteration      SOSCFMaxIt      ....   150
   Startup grad/error   SOSCFStart      ....  0.003300
 Level Shifting         CNVShift        .... on
   Level shift para.    LevelShift      ....    0.2500
   Turn off err/grad.   ShiftErr        ....    0.0010
 Zerner damping         CNVZerner       .... off
 Static damping         CNVDamp         .... on
   Fraction old density DampFac         ....    0.7000
   Max. Damping (<1)    DampMax         ....    0.9800
   Min. Damping (>=0)   DampMin         ....    0.0000
   Turn off err/grad.   DampErr         ....    0.1000
 Fernandez-Rico         CNVRico         .... off

SCF Procedure:
 Maximum # iterations   MaxIter         ....   125
 SCF integral mode      SCFMode         .... Direct
   Integral package                     .... LIBINT
 Reset frequency        DirectResetFreq ....    20
 Integral Threshold     Thresh          ....  2.500e-11 Eh
 Primitive CutOff       TCut            ....  2.500e-12 Eh

Convergence Tolerance:
 Convergence Check Mode ConvCheckMode   .... Total+1el-Energy
 Convergence forced     ConvForced      .... 1
 Energy Change          TolE            ....  1.000e-08 Eh
 1-El. energy change                    ....  1.000e-05 Eh
 Orbital Gradient       TolG            ....  1.000e-05
 Orbital Rotation angle TolX            ....  1.000e-05
 DIIS Error             TolErr          ....  5.000e-07


Diagonalization of the overlap matrix:
Smallest eigenvalue                        ... 3.641e-03
Time for diagonalization                   ...    0.016 sec
Threshold for overlap eigenvalues          ... 1.000e-08
Number of eigenvalues below threshold      ... 0
Time for construction of square roots      ...    0.009 sec
Total time needed                          ...    0.025 sec

-------------------
DFT GRID GENERATION
-------------------

General Integration Accuracy     IntAcc      ...  4.340
Radial Grid Type                 RadialGrid  ... Gauss-Chebyshev
Angular Grid (max. acc.)         AngularGrid ... Lebedev-110
Angular grid pruning method      GridPruning ... 3 (G Style)
Weight generation scheme         WeightScheme... Becke
Basis function cutoff            BFCut       ...    1.0000e-11
Integration weight cutoff        WCut        ...    1.0000e-14
Grids for H and He will be reduced by one unit

# of grid points (after initial pruning)     ...  26432 (   0.0 sec)
# of grid points (after weights+screening)   ...  24662 (   0.0 sec)
nearest neighbour list constructed           ...    0.0 sec
Grid point re-assignment to atoms done       ...    0.0 sec
Grid point division into batches done        ...    0.0 sec
Reduced shell lists constructed in    0.1 sec

Total number of grid points                  ...    24662
Total number of batches                      ...      397
Average number of points per batch           ...       62
Average number of grid points per atom       ...     1028
Average number of shells per batch           ...    71.10 (46.78%)
Average number of basis functions per batch  ...   143.07 (41.59%)
Average number of large shells per batch     ...    47.78 (67.20%)
Average number of large basis fcns per batch ...    93.46 (65.32%)
Maximum spatial batch extension              ...  12.91, 15.15, 14.52 au
Average spatial batch extension              ...   0.51,  0.57,  0.54 au

Time for grid setup =    0.090 sec

------------------------------
INITIAL GUESS: MODEL POTENTIAL
------------------------------
Loading Hartree-Fock densities                     ... done
Calculating cut-offs                               ... done
Setting up the integral package                    ... done
Initializing the effective Hamiltonian             ... done
Starting the Coulomb interaction                   ... done (   0.0 sec)
Reading the grid                                   ... done
Mapping shells                                     ... done
Starting the XC term evaluation                    ... done (   0.0 sec)
Transforming the Hamiltonian                       ... done (   0.0 sec)
Diagonalizing the Hamiltonian                      ... done (   0.0 sec)
Back transforming the eigenvectors                 ... done (   0.0 sec)
Now organizing SCF variables                       ... done
                      ------------------
                      INITIAL GUESS DONE (   0.3 sec)
                      ------------------
--------------
SCF ITERATIONS
--------------
ITER       Energy         Delta-E        Max-DP      RMS-DP      [F,P]     Damp
               ***  Starting incremental Fock matrix formation  ***
  0   -607.8348444387   0.000000000000 0.04401984  0.00082791  0.3501034 0.7000
  1   -608.1005507162  -0.265706277501 0.02934863  0.00057464  0.2169288 0.7000
                               ***Turning on DIIS***
  2   -608.2421515863  -0.141600870075 0.01641208  0.00032341  0.1634621 0.7000
  3   -609.5651621654  -1.323010579157 0.00745841  0.00015032  0.1218564 0.7000
  4   -609.2990720877   0.266090077733 0.01639264  0.00034820  0.0861884 0.0000
  5   -608.5654967890   0.733575298664 0.00232221  0.00005493  0.0053387 0.0000
                      *** Initiating the SOSCF procedure ***
                           *** Shutting down DIIS ***
                      *** Re-Reading the Fockian *** 
                      *** Removing any level shift *** 
ITER      Energy       Delta-E        Grad      Rot      Max-DP    RMS-DP
  6   -608.52764087   0.0378559182  0.000828  0.000828  0.001430  0.000034
               *** Restarting incremental Fock matrix formation ***
  7   -608.51646266   0.0111782087  0.000302  0.000411  0.000622  0.000015
  8   -608.51647383  -0.0000111636  0.000128  0.000313  0.000493  0.000012
  9   -608.51647653  -0.0000027082  0.000085  0.000047  0.000105  0.000002
 10   -608.51647674  -0.0000002056  0.000018  0.000010  0.000020  0.000000
                  ***Gradient check signals convergence***
              ***Rediagonalizing the Fockian in SOSCF/NRSCF***

               *****************************************************
               *                     SUCCESS                       *
               *           SCF CONVERGED AFTER  11 CYCLES          *
               *****************************************************


----------------
TOTAL SCF ENERGY
----------------

Total Energy       :         -608.51647675 Eh          -16558.57515 eV

Components:
Nuclear Repulsion  :          453.49233180 Eh           12340.15371 eV
Electronic Energy  :        -1062.00880855 Eh          -28898.72886 eV
One Electron Energy:        -1744.37915124 Eh          -47466.96988 eV
Two Electron Energy:          682.37034269 Eh           18568.24102 eV

Virial components:
Potential Energy   :        -1216.30246072 Eh          -33097.27259 eV
Kinetic Energy     :          607.78598398 Eh           16538.69744 eV
Virial Ratio       :            2.00120189


---------------
SCF CONVERGENCE
---------------

  Last Energy change         ...   -7.0695e-09  Tolerance :   1.0000e-08
  Last MAX-Density change    ...    4.7017e-06  Tolerance :   1.0000e-07
  Last RMS-Density change    ...    1.0996e-07  Tolerance :   5.0000e-09
  Last Orbital Gradient      ...    1.8228e-06  Tolerance :   1.0000e-05
  Last Orbital Rotation      ...    2.0742e-06  Tolerance :   1.0000e-05

             **** THE GBW FILE WAS UPDATED (12h2o.su.etal.mol0,1,3,5,7,9,10,11-orca.engrad-mp2.def2tzvp.frozencore.gbw) ****
             **** DENSITY FILE WAS UPDATED (12h2o.su.etal.mol0,1,3,5,7,9,10,11-orca.engrad-mp2.def2tzvp.frozencore.scfp) ****
             **** ENERGY FILE WAS UPDATED (12h2o.su.etal.mol0,1,3,5,7,9,10,11-orca.engrad-mp2.def2tzvp.frozencore.en.tmp) ****
             **** THE GBW FILE WAS UPDATED (12h2o.su.etal.mol0,1,3,5,7,9,10,11-orca.engrad-mp2.def2tzvp.frozencore.gbw) ****
             **** DENSITY FILE WAS UPDATED (12h2o.su.etal.mol0,1,3,5,7,9,10,11-orca.engrad-mp2.def2tzvp.frozencore.scfp) ****
----------------
ORBITAL ENERGIES
----------------

  NO   OCC          E(Eh)            E(eV) 
   0   2.0000     -20.626068      -561.2638 
   1   2.0000     -20.569763      -559.7317 
   2   2.0000     -20.569078      -559.7131 
   3   2.0000     -20.566114      -559.6324 
   4   2.0000     -20.562518      -559.5346 
   5   2.0000     -20.552998      -559.2755 
   6   2.0000     -20.539081      -558.8968 
   7   2.0000     -20.507297      -558.0319 
   8   2.0000      -1.409242       -38.3474 
   9   2.0000      -1.368892       -37.2495 
  10   2.0000      -1.357768       -36.9468 
  11   2.0000      -1.355780       -36.8927 
  12   2.0000      -1.347025       -36.6544 
  13   2.0000      -1.331814       -36.2405 
  14   2.0000      -1.323440       -36.0126 
  15   2.0000      -1.289391       -35.0861 
  16   2.0000      -0.767538       -20.8858 
  17   2.0000      -0.735584       -20.0162 
  18   2.0000      -0.726036       -19.7564 
  19   2.0000      -0.719068       -19.5668 
  20   2.0000      -0.718482       -19.5509 
  21   2.0000      -0.713478       -19.4147 
  22   2.0000      -0.704581       -19.1726 
  23   2.0000      -0.677578       -18.4378 
  24   2.0000      -0.654421       -17.8077 
  25   2.0000      -0.622717       -16.9450 
  26   2.0000      -0.610631       -16.6161 
  27   2.0000      -0.597917       -16.2701 
  28   2.0000      -0.589989       -16.0544 
  29   2.0000      -0.579734       -15.7754 
  30   2.0000      -0.558987       -15.2108 
  31   2.0000      -0.547664       -14.9027 
  32   2.0000      -0.537241       -14.6191 
  33   2.0000      -0.515361       -14.0237 
  34   2.0000      -0.510710       -13.8971 
  35   2.0000      -0.509231       -13.8569 
  36   2.0000      -0.502574       -13.6757 
  37   2.0000      -0.496635       -13.5141 
  38   2.0000      -0.489064       -13.3081 
  39   2.0000      -0.457889       -12.4598 
  40   0.0000       0.080376         2.1871 
  41   0.0000       0.122998         3.3469 
  42   0.0000       0.145578         3.9614 
  43   0.0000       0.161991         4.4080 
  44   0.0000       0.167308         4.5527 
  45   0.0000       0.183090         4.9821 
  46   0.0000       0.206001         5.6056 
  47   0.0000       0.218954         5.9581 
  48   0.0000       0.234414         6.3787 
  49   0.0000       0.279468         7.6047 
  50   0.0000       0.292249         7.9525 
  51   0.0000       0.303207         8.2507 
  52   0.0000       0.315625         8.5886 
  53   0.0000       0.335865         9.1393 
  54   0.0000       0.342418         9.3177 
  55   0.0000       0.352208         9.5841 
  56   0.0000       0.404661        11.0114 
  57   0.0000       0.464132        12.6297 
  58   0.0000       0.479316        13.0428 
  59   0.0000       0.488311        13.2876 
  60   0.0000       0.499921        13.6035 
  61   0.0000       0.509323        13.8594 
  62   0.0000       0.523719        14.2511 
  63   0.0000       0.531540        14.4639 
  64   0.0000       0.533188        14.5088 
  65   0.0000       0.554823        15.0975 
  66   0.0000       0.556997        15.1567 
  67   0.0000       0.566138        15.4054 
  68   0.0000       0.572549        15.5798 
  69   0.0000       0.597218        16.2511 
  70   0.0000       0.601122        16.3574 
  71   0.0000       0.608121        16.5478 
  72   0.0000       0.616533        16.7767 
  73   0.0000       0.631654        17.1882 
  74   0.0000       0.637608        17.3502 
  75   0.0000       0.652549        17.7568 
  76   0.0000       0.655633        17.8407 
  77   0.0000       0.679457        18.4890 
  78   0.0000       0.693650        18.8752 
  79   0.0000       0.709141        19.2967 
  80   0.0000       0.725549        19.7432 
  81   0.0000       0.736435        20.0394 
  82   0.0000       0.750219        20.4145 
  83   0.0000       0.753705        20.5093 
  84   0.0000       0.766957        20.8700 
  85   0.0000       0.775730        21.1087 
  86   0.0000       0.789993        21.4968 
  87   0.0000       0.798497        21.7282 
  88   0.0000       0.808154        21.9910 
  89   0.0000       0.813065        22.1246 
  90   0.0000       0.823079        22.3971 
  91   0.0000       0.856105        23.2958 
  92   0.0000       0.861531        23.4435 
  93   0.0000       0.869917        23.6717 
  94   0.0000       0.890282        24.2258 
  95   0.0000       0.940350        25.5882 
  96   0.0000       0.956592        26.0302 
  97   0.0000       0.990186        26.9443 
  98   0.0000       1.016058        27.6483 
  99   0.0000       1.040204        28.3054 
 100   0.0000       1.050233        28.5783 
 101   0.0000       1.062409        28.9096 
 102   0.0000       1.088811        29.6281 
 103   0.0000       1.153476        31.3877 
 104   0.0000       1.341093        36.4930 
 105   0.0000       1.344671        36.5904 
 106   0.0000       1.375932        37.4410 
 107   0.0000       1.386471        37.7278 
 108   0.0000       1.402909        38.1751 
 109   0.0000       1.409697        38.3598 
 110   0.0000       1.418975        38.6123 
 111   0.0000       1.423684        38.7404 
 112   0.0000       1.435982        39.0751 
 113   0.0000       1.464784        39.8588 
 114   0.0000       1.474056        40.1111 
 115   0.0000       1.498171        40.7673 
 116   0.0000       1.501286        40.8521 
 117   0.0000       1.502230        40.8778 
 118   0.0000       1.524906        41.4948 
 119   0.0000       1.550363        42.1875 
 120   0.0000       1.562183        42.5092 
 121   0.0000       1.570422        42.7333 
 122   0.0000       1.585037        43.1310 
 123   0.0000       1.604226        43.6532 
 124   0.0000       1.615568        43.9618 
 125   0.0000       1.628613        44.3168 
 126   0.0000       1.639800        44.6212 
 127   0.0000       1.660337        45.1801 
 128   0.0000       1.789534        48.6957 
 129   0.0000       1.801142        49.0116 
 130   0.0000       1.827238        49.7217 
 131   0.0000       1.841592        50.1123 
 132   0.0000       1.870060        50.8869 
 133   0.0000       1.881899        51.2091 
 134   0.0000       1.883324        51.2479 
 135   0.0000       1.915590        52.1259 
 136   0.0000       1.926539        52.4238 
 137   0.0000       1.948892        53.0320 
 138   0.0000       1.965794        53.4920 
 139   0.0000       1.979756        53.8719 
 140   0.0000       1.995765        54.3075 
 141   0.0000       2.016787        54.8796 
 142   0.0000       2.033773        55.3418 
 143   0.0000       2.047154        55.7059 
 144   0.0000       2.068441        56.2851 
 145   0.0000       2.074828        56.4589 
 146   0.0000       2.114303        57.5331 
 147   0.0000       2.128488        57.9191 
 148   0.0000       2.142652        58.3045 
 149   0.0000       2.155170        58.6452 
 150   0.0000       2.174530        59.1720 
 151   0.0000       2.205006        60.0013 
 152   0.0000       2.233036        60.7640 
 153   0.0000       2.246496        61.1303 
 154   0.0000       2.273255        61.8584 
 155   0.0000       2.284782        62.1721 
 156   0.0000       2.294410        62.4341 
 157   0.0000       2.310253        62.8652 
 158   0.0000       2.333141        63.4880 
 159   0.0000       2.347400        63.8760 
 160   0.0000       2.355798        64.1045 
 161   0.0000       2.357939        64.1628 
 162   0.0000       2.386130        64.9299 
 163   0.0000       2.395636        65.1886 
 164   0.0000       2.403657        65.4068 
 165   0.0000       2.412695        65.6528 
 166   0.0000       2.415187        65.7206 
 167   0.0000       2.449355        66.6503 
 168   0.0000       2.482628        67.5557 
 169   0.0000       2.503473        68.1230 
 170   0.0000       2.512502        68.3686 
 171   0.0000       2.534307        68.9620 
 172   0.0000       2.546436        69.2921 
 173   0.0000       2.566400        69.8353 
 174   0.0000       2.567898        69.8761 
 175   0.0000       2.592665        70.5500 
 176   0.0000       2.600997        70.7767 
 177   0.0000       2.619819        71.2889 
 178   0.0000       2.621554        71.3361 
 179   0.0000       2.623796        71.3971 
 180   0.0000       2.639176        71.8156 
 181   0.0000       2.644911        71.9717 
 182   0.0000       2.666003        72.5456 
 183   0.0000       2.672163        72.7132 
 184   0.0000       2.676161        72.8220 
 185   0.0000       2.707696        73.6802 
 186   0.0000       2.710524        73.7571 
 187   0.0000       2.731192        74.3195 
 188   0.0000       2.773223        75.4632 
 189   0.0000       2.794316        76.0372 
 190   0.0000       2.798762        76.1582 
 191   0.0000       2.827303        76.9348 
 192   0.0000       2.879336        78.3507 
 193   0.0000       2.904127        79.0253 
 194   0.0000       2.917277        79.3831 
 195   0.0000       2.947103        80.1947 
 196   0.0000       2.956936        80.4623 
 197   0.0000       2.963260        80.6344 
 198   0.0000       2.969003        80.7907 
 199   0.0000       3.000756        81.6547 
 200   0.0000       3.002977        81.7152 
 201   0.0000       3.014820        82.0374 
 202   0.0000       3.039882        82.7194 
 203   0.0000       3.051641        83.0394 
 204   0.0000       3.060696        83.2858 
 205   0.0000       3.079373        83.7940 
 206   0.0000       3.106769        84.5395 
 207   0.0000       3.114804        84.7581 
 208   0.0000       3.120511        84.9134 
 209   0.0000       3.148414        85.6727 
 210   0.0000       3.165292        86.1320 
 211   0.0000       3.203332        87.1671 
 212   0.0000       3.235594        88.0450 
 213   0.0000       3.248051        88.3840 
 214   0.0000       3.250706        88.4562 
 215   0.0000       3.276275        89.1520 
 216   0.0000       3.299465        89.7830 
 217   0.0000       3.330219        90.6199 
 218   0.0000       3.351310        91.1938 
 219   0.0000       3.376856        91.8889 
 220   0.0000       3.460010        94.1517 
 221   0.0000       3.507562        95.4456 
 222   0.0000       3.523974        95.8922 
 223   0.0000       3.541815        96.3777 
 224   0.0000       3.992866       108.6514 
 225   0.0000       4.033493       109.7569 
 226   0.0000       4.050553       110.2212 
 227   0.0000       4.075037       110.8874 
 228   0.0000       4.111134       111.8697 
 229   0.0000       4.128709       112.3479 
 230   0.0000       4.136619       112.5631 
 231   0.0000       4.167743       113.4100 
 232   0.0000       4.245706       115.5315 
 233   0.0000       4.309663       117.2719 
 234   0.0000       4.314409       117.4010 
 235   0.0000       4.323824       117.6572 
 236   0.0000       4.365167       118.7822 
 237   0.0000       4.378539       119.1461 
 238   0.0000       4.386673       119.3674 
 239   0.0000       4.421531       120.3160 
 240   0.0000       5.482407       149.1839 
 241   0.0000       5.533278       150.5681 
 242   0.0000       5.536027       150.6430 
 243   0.0000       5.537456       150.6818 
 244   0.0000       5.539282       150.7315 
 245   0.0000       5.549517       151.0100 
 246   0.0000       5.566079       151.4607 
 247   0.0000       5.598132       152.3329 
 248   0.0000       5.608663       152.6195 
 249   0.0000       5.632354       153.2641 
 250   0.0000       5.648298       153.6980 
 251   0.0000       5.676969       154.4782 
 252   0.0000       5.679285       154.5412 
 253   0.0000       5.682008       154.6153 
 254   0.0000       5.687033       154.7520 
 255   0.0000       5.696377       155.0063 
 256   0.0000       5.760592       156.7537 
 257   0.0000       5.785943       157.4435 
 258   0.0000       5.802979       157.9071 
 259   0.0000       5.811651       158.1431 
 260   0.0000       5.820800       158.3920 
 261   0.0000       5.823816       158.4741 
 262   0.0000       5.824866       158.5026 
 263   0.0000       5.832742       158.7170 
 264   0.0000       5.836804       158.8275 
 265   0.0000       5.844308       159.0317 
 266   0.0000       5.851282       159.2215 
 267   0.0000       5.861653       159.5037 
 268   0.0000       5.871685       159.7767 
 269   0.0000       5.874265       159.8469 
 270   0.0000       5.885027       160.1397 
 271   0.0000       5.886442       160.1782 
 272   0.0000       5.887141       160.1973 
 273   0.0000       5.896759       160.4590 
 274   0.0000       5.904431       160.6677 
 275   0.0000       5.909766       160.8129 
 276   0.0000       5.920677       161.1098 
 277   0.0000       5.924476       161.2132 
 278   0.0000       5.935786       161.5210 
 279   0.0000       5.979867       162.7205 
 280   0.0000       6.408403       174.3815 
 281   0.0000       6.468053       176.0047 
 282   0.0000       6.470729       176.0775 
 283   0.0000       6.480632       176.3470 
 284   0.0000       6.482338       176.3934 
 285   0.0000       6.486981       176.5197 
 286   0.0000       6.496980       176.7918 
 287   0.0000       6.519640       177.4084 
 288   0.0000       6.637208       180.6076 
 289   0.0000       6.669119       181.4760 
 290   0.0000       6.712285       182.6506 
 291   0.0000       6.713668       182.6882 
 292   0.0000       6.720082       182.8627 
 293   0.0000       6.745127       183.5442 
 294   0.0000       6.765771       184.1060 
 295   0.0000       6.777879       184.4355 
 296   0.0000       6.824055       185.6920 
 297   0.0000       6.829530       185.8410 
 298   0.0000       6.840644       186.1434 
 299   0.0000       6.849993       186.3978 
 300   0.0000       6.854623       186.5238 
 301   0.0000       6.890639       187.5038 
 302   0.0000       6.897437       187.6888 
 303   0.0000       6.901442       187.7978 
 304   0.0000       6.911283       188.0656 
 305   0.0000       6.915550       188.1817 
 306   0.0000       6.923582       188.4002 
 307   0.0000       6.930255       188.5818 
 308   0.0000       6.933526       188.6708 
 309   0.0000       6.947831       189.0601 
 310   0.0000       6.965480       189.5403 
 311   0.0000       6.969239       189.6426 
 312   0.0000       6.981123       189.9660 
 313   0.0000       6.990618       190.2244 
 314   0.0000       7.002424       190.5457 
 315   0.0000       7.009850       190.7477 
 316   0.0000       7.031296       191.3313 
 317   0.0000       7.090591       192.9448 
 318   0.0000       7.101090       193.2305 
 319   0.0000       7.113678       193.5730 
 320   0.0000       7.336069       199.6246 
 321   0.0000       7.382430       200.8861 
 322   0.0000       7.432594       202.2512 
 323   0.0000       7.438377       202.4085 
 324   0.0000       7.457705       202.9345 
 325   0.0000       7.481423       203.5799 
 326   0.0000       7.492363       203.8776 
 327   0.0000       7.497350       204.0133 
 328   0.0000       7.515927       204.5188 
 329   0.0000       7.538907       205.1441 
 330   0.0000       7.543844       205.2784 
 331   0.0000       7.560234       205.7244 
 332   0.0000       7.577294       206.1887 
 333   0.0000       7.577923       206.2058 
 334   0.0000       7.590913       206.5592 
 335   0.0000       7.642975       207.9759 
 336   0.0000      44.923576      1222.4327 
 337   0.0000      44.976989      1223.8861 
 338   0.0000      44.979966      1223.9671 
 339   0.0000      44.980157      1223.9723 
 340   0.0000      44.997449      1224.4428 
 341   0.0000      45.014165      1224.8977 
 342   0.0000      45.051445      1225.9121 
 343   0.0000      45.115146      1227.6455 

                    ********************************
                    * MULLIKEN POPULATION ANALYSIS *
                    ********************************

-----------------------
MULLIKEN ATOMIC CHARGES
-----------------------
   0 O :   -0.783580
   1 H :    0.353498
   2 H :    0.409902
   3 O :   -0.796350
   4 H :    0.360431
   5 H :    0.415191
   6 O :   -0.722150
   7 H :    0.410739
   8 H :    0.333787
   9 O :   -0.746252
  10 H :    0.397664
  11 H :    0.373144
  12 O :   -0.777626
  13 H :    0.393670
  14 H :    0.362277
  15 O :   -0.764038
  16 H :    0.395316
  17 H :    0.395065
  18 O :   -0.762904
  19 H :    0.330079
  20 H :    0.396515
  21 O :   -0.747849
  22 H :    0.372998
  23 H :    0.400473
Sum of atomic charges:    0.0000000

--------------------------------
MULLIKEN REDUCED ORBITAL CHARGES
--------------------------------
  0 O s       :     3.805480  s :     3.805480
      pz      :     1.734764  p :     4.954202
      px      :     1.437618
      py      :     1.781820
      dz2     :     0.003959  d :     0.022480
      dxz     :     0.004815
      dyz     :     0.005090
      dx2y2   :     0.002272
      dxy     :     0.006344
      f0      :     0.000089  f :     0.001418
      f+1     :     0.000332
      f-1     :     0.000176
      f+2     :     0.000060
      f-2     :     0.000356
      f+3     :     0.000081
      f-3     :     0.000325
  1 H s       :     0.600884  s :     0.600884
      pz      :     0.017169  p :     0.045619
      px      :     0.013635
      py      :     0.014815
  2 H s       :     0.533752  s :     0.533752
      pz      :     0.010358  p :     0.056346
      px      :     0.032856
      py      :     0.013133
  3 O s       :     3.808023  s :     3.808023
      pz      :     1.725227  p :     4.965092
      px      :     1.446242
      py      :     1.793623
      dz2     :     0.003618  d :     0.021860
      dxz     :     0.004428
      dyz     :     0.005009
      dx2y2   :     0.002176
      dxy     :     0.006630
      f0      :     0.000080  f :     0.001375
      f+1     :     0.000314
      f-1     :     0.000168
      f+2     :     0.000060
      f-2     :     0.000345
      f+3     :     0.000081
      f-3     :     0.000327
  4 H s       :     0.594286  s :     0.594286
      pz      :     0.016895  p :     0.045283
      px      :     0.013731
      py      :     0.014658
  5 H s       :     0.528983  s :     0.528983
      pz      :     0.009794  p :     0.055826
      px      :     0.033029
      py      :     0.013003
  6 O s       :     3.797438  s :     3.797438
      pz      :     1.586046  p :     4.898313
      px      :     1.529222
      py      :     1.783045
      dz2     :     0.011741  d :     0.024996
      dxz     :     0.001145
      dyz     :     0.002418
      dx2y2   :     0.002521
      dxy     :     0.007172
      f0      :     0.000223  f :     0.001404
      f+1     :     0.000382
      f-1     :     0.000157
      f+2     :     0.000051
      f-2     :     0.000056
      f+3     :     0.000055
      f-3     :     0.000480
  7 H s       :     0.541385  s :     0.541385
      pz      :     0.025492  p :     0.047875
      px      :     0.010846
      py      :     0.011537
  8 H s       :     0.621918  s :     0.621918
      pz      :     0.010960  p :     0.044295
      px      :     0.018059
      py      :     0.015276
  9 O s       :     3.805011  s :     3.805011
      pz      :     1.566459  p :     4.915266
      px      :     1.856700
      py      :     1.492107
      dz2     :     0.011088  d :     0.024535
      dxz     :     0.002162
      dyz     :     0.002683
      dx2y2   :     0.003529
      dxy     :     0.005072
      f0      :     0.000190  f :     0.001441
      f+1     :     0.000119
      f-1     :     0.000454
      f+2     :     0.000070
      f-2     :     0.000038
      f+3     :     0.000459
      f-3     :     0.000111
 10 H s       :     0.561176  s :     0.561176
      pz      :     0.008809  p :     0.041161
      px      :     0.013490
      py      :     0.018861
 11 H s       :     0.582930  s :     0.582930
      pz      :     0.019075  p :     0.043926
      px      :     0.013325
      py      :     0.011525
 12 O s       :     3.804994  s :     3.804994
      pz      :     1.590921  p :     4.948966
      px      :     1.481665
      py      :     1.876380
      dz2     :     0.009550  d :     0.022254
      dxz     :     0.002363
      dyz     :     0.002283
      dx2y2   :     0.002877
      dxy     :     0.005182
      f0      :     0.000185  f :     0.001412
      f+1     :     0.000422
      f-1     :     0.000118
      f+2     :     0.000078
      f-2     :     0.000036
      f+3     :     0.000120
      f-3     :     0.000454
 13 H s       :     0.556869  s :     0.556869
      pz      :     0.024658  p :     0.049461
      px      :     0.011563
      py      :     0.013239
 14 H s       :     0.583933  s :     0.583933
      pz      :     0.009564  p :     0.053790
      px      :     0.028007
      py      :     0.016219
 15 O s       :     3.792759  s :     3.792759
      pz      :     1.562435  p :     4.945919
      px      :     1.785961
      py      :     1.597523
      dz2     :     0.011838  d :     0.024019
      dxz     :     0.002215
      dyz     :     0.001243
      dx2y2   :     0.002257
      dxy     :     0.006467
      f0      :     0.000233  f :     0.001340
      f+1     :     0.000148
      f-1     :     0.000377
      f+2     :     0.000050
      f-2     :     0.000054
      f+3     :     0.000434
      f-3     :     0.000044
 16 H s       :     0.557042  s :     0.557042
      pz      :     0.024112  p :     0.047642
      px      :     0.012265
      py      :     0.011265
 17 H s       :     0.555305  s :     0.555305
      pz      :     0.009602  p :     0.049630
      px      :     0.015461
      py      :     0.024567
 18 O s       :     3.807243  s :     3.807243
      pz      :     1.717661  p :     4.930337
      px      :     1.803834
      py      :     1.408842
      dz2     :     0.004092  d :     0.023853
      dxz     :     0.005603
      dyz     :     0.004768
      dx2y2   :     0.002315
      dxy     :     0.007074
      f0      :     0.000088  f :     0.001472
      f+1     :     0.000185
      f-1     :     0.000329
      f+2     :     0.000070
      f-2     :     0.000360
      f+3     :     0.000351
      f-3     :     0.000089
 19 H s       :     0.623809  s :     0.623809
      pz      :     0.017078  p :     0.046112
      px      :     0.015220
      py      :     0.013814
 20 H s       :     0.546608  s :     0.546608
      pz      :     0.010781  p :     0.056877
      px      :     0.013948
      py      :     0.032148
 21 O s       :     3.796219  s :     3.796219
      pz      :     1.532024  p :     4.925591
      px      :     1.790263
      py      :     1.603303
      dz2     :     0.012285  d :     0.024654
      dxz     :     0.002273
      dyz     :     0.001234
      dx2y2   :     0.002298
      dxy     :     0.006564
      f0      :     0.000250  f :     0.001386
      f+1     :     0.000155
      f-1     :     0.000388
      f+2     :     0.000051
      f-2     :     0.000056
      f+3     :     0.000440
      f-3     :     0.000046
 22 H s       :     0.583566  s :     0.583566
      pz      :     0.019407  p :     0.043436
      px      :     0.012516
      py      :     0.011512
 23 H s       :     0.550286  s :     0.550286
      pz      :     0.009399  p :     0.049241
      px      :     0.015403
      py      :     0.024439


                     *******************************
                     * LOEWDIN POPULATION ANALYSIS *
                     *******************************

----------------------
LOEWDIN ATOMIC CHARGES
----------------------
   0 O :   -0.351527
   1 H :    0.156728
   2 H :    0.155803
   3 O :   -0.327300
   4 H :    0.158787
   5 H :    0.157105
   6 O :   -0.287132
   7 H :    0.166525
   8 H :    0.160148
   9 O :   -0.288442
  10 H :    0.192382
  11 H :    0.174765
  12 O :   -0.352788
  13 H :    0.156527
  14 H :    0.144123
  15 O :   -0.298318
  16 H :    0.159124
  17 H :    0.158802
  18 O :   -0.376347
  19 H :    0.146172
  20 H :    0.152215
  21 O :   -0.293923
  22 H :    0.175326
  23 H :    0.161245

-------------------------------
LOEWDIN REDUCED ORBITAL CHARGES
-------------------------------
  0 O s       :     3.459756  s :     3.459756
      pz      :     1.711166  p :     4.861492
      px      :     1.404792
      py      :     1.745534
      dz2     :     0.004252  d :     0.028328
      dxz     :     0.006945
      dyz     :     0.005196
      dx2y2   :     0.003706
      dxy     :     0.008229
      f0      :     0.000073  f :     0.001951
      f+1     :     0.000435
      f-1     :     0.000260
      f+2     :     0.000031
      f-2     :     0.000617
      f+3     :     0.000083
      f-3     :     0.000452
  1 H s       :     0.678394  s :     0.678394
      pz      :     0.065847  p :     0.164878
      px      :     0.046150
      py      :     0.052881
  2 H s       :     0.646516  s :     0.646516
      pz      :     0.033270  p :     0.197680
      px      :     0.116807
      py      :     0.047604
  3 O s       :     3.454703  s :     3.454703
      pz      :     1.683312  p :     4.842344
      px      :     1.408995
      py      :     1.750038
      dz2     :     0.004654  d :     0.028314
      dxz     :     0.006674
      dyz     :     0.005142
      dx2y2   :     0.003563
      dxy     :     0.008280
      f0      :     0.000085  f :     0.001939
      f+1     :     0.000426
      f-1     :     0.000256
      f+2     :     0.000032
      f-2     :     0.000607
      f+3     :     0.000083
      f-3     :     0.000451
  4 H s       :     0.675692  s :     0.675692
      pz      :     0.066167  p :     0.165521
      px      :     0.046328
      py      :     0.053026
  5 H s       :     0.643278  s :     0.643278
      pz      :     0.033182  p :     0.199618
      px      :     0.118761
      py      :     0.047675
  6 O s       :     3.454372  s :     3.454372
      pz      :     1.551398  p :     4.798345
      px      :     1.521503
      py      :     1.725444
      dz2     :     0.015135  d :     0.032280
      dxz     :     0.001628
      dyz     :     0.001824
      dx2y2   :     0.003882
      dxy     :     0.009812
      f0      :     0.000391  f :     0.002135
      f+1     :     0.000563
      f-1     :     0.000336
      f+2     :     0.000021
      f-2     :     0.000045
      f+3     :     0.000027
      f-3     :     0.000751
  7 H s       :     0.660142  s :     0.660142
      pz      :     0.096769  p :     0.173332
      px      :     0.035547
      py      :     0.041017
  8 H s       :     0.682090  s :     0.682090
      pz      :     0.031767  p :     0.157762
      px      :     0.071025
      py      :     0.054970
  9 O s       :     3.461743  s :     3.461743
      pz      :     1.536065  p :     4.792429
      px      :     1.792267
      py      :     1.464097
      dz2     :     0.015466  d :     0.032192
      dxz     :     0.001374
      dyz     :     0.004029
      dx2y2   :     0.005065
      dxy     :     0.006257
      f0      :     0.000379  f :     0.002078
      f+1     :     0.000206
      f-1     :     0.000737
      f+2     :     0.000041
      f-2     :     0.000045
      f+3     :     0.000599
      f-3     :     0.000072
 10 H s       :     0.652708  s :     0.652708
      pz      :     0.028880  p :     0.154911
      px      :     0.049145
      py      :     0.076886
 11 H s       :     0.666270  s :     0.666270
      pz      :     0.080408  p :     0.158965
      px      :     0.042933
      py      :     0.035624
 12 O s       :     3.455974  s :     3.455974
      pz      :     1.554568  p :     4.866484
      px      :     1.474377
      py      :     1.837540
      dz2     :     0.013078  d :     0.028387
      dxz     :     0.003546
      dyz     :     0.001501
      dx2y2   :     0.003894
      dxy     :     0.006368
      f0      :     0.000356  f :     0.001943
      f+1     :     0.000683
      f-1     :     0.000180
      f+2     :     0.000041
      f-2     :     0.000041
      f+3     :     0.000068
      f-3     :     0.000574
 13 H s       :     0.670037  s :     0.670037
      pz      :     0.093818  p :     0.173435
      px      :     0.036783
      py      :     0.042834
 14 H s       :     0.671934  s :     0.671934
      pz      :     0.030898  p :     0.183943
      px      :     0.100399
      py      :     0.052646
 15 O s       :     3.445942  s :     3.445942
      pz      :     1.536457  p :     4.820682
      px      :     1.727405
      py      :     1.556820
      dz2     :     0.015020  d :     0.029697
      dxz     :     0.001700
      dyz     :     0.001893
      dx2y2   :     0.003287
      dxy     :     0.007796
      f0      :     0.000428  f :     0.001997
      f+1     :     0.000318
      f-1     :     0.000540
      f+2     :     0.000019
      f-2     :     0.000049
      f+3     :     0.000618
      f-3     :     0.000025
 16 H s       :     0.669940  s :     0.669940
      pz      :     0.091833  p :     0.170936
      px      :     0.041829
      py      :     0.037273
 17 H s       :     0.664306  s :     0.664306
      pz      :     0.030595  p :     0.176891
      px      :     0.058015
      py      :     0.088282
 18 O s       :     3.468052  s :     3.468052
      pz      :     1.704719  p :     4.876537
      px      :     1.780204
      py      :     1.391614
      dz2     :     0.004309  d :     0.029744
      dxz     :     0.005839
      dyz     :     0.007291
      dx2y2   :     0.003316
      dxy     :     0.008990
      f0      :     0.000074  f :     0.002014
      f+1     :     0.000267
      f-1     :     0.000440
      f+2     :     0.000034
      f-2     :     0.000636
      f+3     :     0.000478
      f-3     :     0.000085
 19 H s       :     0.689503  s :     0.689503
      pz      :     0.065551  p :     0.164325
      px      :     0.053278
      py      :     0.045496
 20 H s       :     0.653535  s :     0.653535
      pz      :     0.033557  p :     0.194250
      px      :     0.047524
      py      :     0.113169
 21 O s       :     3.451495  s :     3.451495
      pz      :     1.520648  p :     4.809468
      px      :     1.730773
      py      :     1.558048
      dz2     :     0.015876  d :     0.030889
      dxz     :     0.001803
      dyz     :     0.002004
      dx2y2   :     0.003318
      dxy     :     0.007887
      f0      :     0.000457  f :     0.002071
      f+1     :     0.000329
      f-1     :     0.000566
      f+2     :     0.000021
      f-2     :     0.000051
      f+3     :     0.000621
      f-3     :     0.000025
 22 H s       :     0.665187  s :     0.665187
      pz      :     0.081258  p :     0.159488
      px      :     0.041608
      py      :     0.036621
 23 H s       :     0.663178  s :     0.663178
      pz      :     0.029563  p :     0.175578
      px      :     0.058114
      py      :     0.087901


                      *****************************
                      * MAYER POPULATION ANALYSIS *
                      *****************************

  NA   - Mulliken gross atomic population
  ZA   - Total nuclear charge
  QA   - Mulliken gross atomic charge
  VA   - Mayer's total valence
  BVA  - Mayer's bonded valence
  FA   - Mayer's free valence

  ATOM       NA         ZA         QA         VA         BVA        FA
  0 O      8.7836     8.0000    -0.7836     1.6847     1.6847     0.0000
  1 H      0.6465     1.0000     0.3535     0.8919     0.8919    -0.0000
  2 H      0.5901     1.0000     0.4099     0.8707     0.8707     0.0000
  3 O      8.7964     8.0000    -0.7964     1.6693     1.6693     0.0000
  4 H      0.6396     1.0000     0.3604     0.8873     0.8873    -0.0000
  5 H      0.5848     1.0000     0.4152     0.8673     0.8673    -0.0000
  6 O      8.7222     8.0000    -0.7222     1.7534     1.7534     0.0000
  7 H      0.5893     1.0000     0.4107     0.8620     0.8620     0.0000
  8 H      0.6662     1.0000     0.3338     0.9051     0.9051    -0.0000
  9 O      8.7463     8.0000    -0.7463     1.7492     1.7492    -0.0000
 10 H      0.6023     1.0000     0.3977     0.8574     0.8574     0.0000
 11 H      0.6269     1.0000     0.3731     0.8780     0.8780    -0.0000
 12 O      8.7776     8.0000    -0.7776     1.6906     1.6906     0.0000
 13 H      0.6063     1.0000     0.3937     0.8778     0.8778     0.0000
 14 H      0.6377     1.0000     0.3623     0.9027     0.9027    -0.0000
 15 O      8.7640     8.0000    -0.7640     1.7253     1.7253     0.0000
 16 H      0.6047     1.0000     0.3953     0.8633     0.8633     0.0000
 17 H      0.6049     1.0000     0.3951     0.8838     0.8838     0.0000
 18 O      8.7629     8.0000    -0.7629     1.6930     1.6930     0.0000
 19 H      0.6699     1.0000     0.3301     0.9065     0.9065     0.0000
 20 H      0.6035     1.0000     0.3965     0.8794     0.8794    -0.0000
 21 O      8.7478     8.0000    -0.7478     1.7408     1.7408     0.0000
 22 H      0.6270     1.0000     0.3730     0.8755     0.8755     0.0000
 23 H      0.5995     1.0000     0.4005     0.8747     0.8747     0.0000

  Mayer bond orders larger than 0.100000
B(  0-O ,  1-H ) :   0.8837 B(  0-O ,  2-H ) :   0.7820 B(  3-O ,  4-H ) :   0.8774 
B(  3-O ,  5-H ) :   0.7651 B(  6-O ,  7-H ) :   0.8194 B(  6-O ,  8-H ) :   0.8956 
B(  9-O , 10-H ) :   0.8455 B(  9-O , 11-H ) :   0.8680 B( 12-O , 13-H ) :   0.8401 
B( 12-O , 14-H ) :   0.8435 B( 15-O , 16-H ) :   0.8474 B( 15-O , 17-H ) :   0.8213 
B( 18-O , 19-H ) :   0.9010 B( 18-O , 20-H ) :   0.8128 B( 21-O , 22-H ) :   0.8684 
B( 21-O , 23-H ) :   0.8236 

-------
TIMINGS
-------

Total SCF time: 0 days 0 hours 0 min 25 sec 

Total time                  ....      25.898 sec
Sum of individual times     ....      25.605 sec  ( 98.9%)

Fock matrix formation       ....      25.028 sec  ( 96.6%)
Diagonalization             ....       0.140 sec  (  0.5%)
Density matrix formation    ....       0.015 sec  (  0.1%)
Population analysis         ....       0.026 sec  (  0.1%)
Initial guess               ....       0.188 sec  (  0.7%)
Orbital Transformation      ....       0.000 sec  (  0.0%)
Orbital Orthonormalization  ....       0.000 sec  (  0.0%)
DIIS solution               ....       0.057 sec  (  0.2%)
SOSCF solution              ....       0.062 sec  (  0.2%)


           ************************************************************
           *        Program running with 6 parallel MPI-processes     *
           *              working on a common directory               *
           ************************************************************

------------------------------------------------------------------------------
                                ORCA  MP2 
------------------------------------------------------------------------------

Freezing NCore=16 chemical core electrons
MP2 will be done in the AO integral direct mode
The Q1-step will be done using symmetric double matrices
Dimension of the basis                    ...  344
Memory devoted for MP2                    ... 8000 MB   
Memory needed for all in one shot         ...  935 MB
Number of MOs that can be treated together...   50      
MP2 density construction                  ... relaxed
The MP2 gradient is requested => amplitudes will be stored on disk
Total number of MOs              ...   32
Number of MOs treated per batch  ...    6 
Number of batches necessary      ...    1 
OPERATORS   0/  0 PASS   0
-----------------------------------------------
 MP2 CORRELATION ENERGY   :     -2.073463142 Eh
-----------------------------------------------


---------------------
MP2 DENSITY FORMATION
---------------------

Completing the external part of the density      ... done
Storing the unrelaxed density                    ... done

Calculating G(D)                                 ... done
Completing the Lagrangian                        ... done
Solving the Z-vector equations                   ... 

------------------------------------------------------------------------------
                           ORCA CP-SCF CALCULATION
------------------------------------------------------------------------------

Input orbitals are from        ... 12h2o.su.etal.mol0,1,3,5,7,9,10,11-orca.engrad-mp2.def2tzvp.frozencore.gbw
Input Perturbation             ... 12h2o.su.etal.mol0,1,3,5,7,9,10,11-orca.engrad-mp2.def2tzvp.frozencore.pin.tmp
Wavefunction output            ... 12h2o.su.etal.mol0,1,3,5,7,9,10,11-orca.engrad-mp2.def2tzvp.frozencore.pout.tmp
Perturbation mode              ... Real perturbation (singlet)
Solver                         ... POPLE
Max. number of iterations      ... 128
Convergence tolerance          ... 1.000e-08
Integral handling              ... Direct
Number of perturbations        ... 1
Number of operators            ... 1
Orbital ranges used for CP-SCF:
 Operator 0:  Orbitals   0... 39  to  40...343
Variables per vector in CP-SCF ... 12160
Number of vectors sought       ... 1
     CP-SCF ITERATION   0: 
     CP-SCF ITERATION   1:      0.001006483094
     CP-SCF ITERATION   2:      0.000027516134
     CP-SCF ITERATION   3:      0.000000938631
     CP-SCF ITERATION   4:      0.000000127689
     CP-SCF ITERATION   5:      0.000000010550
     CP-SCF ITERATION   6:      0.000000000606
                                                 ... done
Finalizing the relaxed density                   ... done
Transforming P to the AO basis                   ... done
Storing the relaxed density                      ... done

------------------------------------
ENERGY WEIGHTED DENSITY FINALIZATION
------------------------------------

Gathering the parts of the W-matrix              ...                                                      done
Forming the Z-density                            ... done
Transforming Z to the AO basis                   ... done
Calculating G(Z)                                 ... done
Finalizing the W-matrix                          ...                                                      done
Transforming W to the AO basis and storing       ... done

                *********************************************
                * UNRELAXED MP2 DENSITY POPULATION ANALYSIS *
                *********************************************

------------------------------------------------------------------------------
                           ORCA POPULATION ANALYSIS
------------------------------------------------------------------------------
Input electron density              ... 12h2o.su.etal.mol0,1,3,5,7,9,10,11-orca.engrad-mp2.def2tzvp.frozencore.pmp2ur
BaseName (.gbw .S,...)              ... 12h2o.su.etal.mol0,1,3,5,7,9,10,11-orca.engrad-mp2.def2tzvp.frozencore

                    ********************************
                    * MULLIKEN POPULATION ANALYSIS *
                    ********************************

-----------------------
MULLIKEN ATOMIC CHARGES
-----------------------
   0 O :   -0.777204
   1 H :    0.351216
   2 H :    0.405138
   3 O :   -0.789581
   4 H :    0.358087
   5 H :    0.410108
   6 O :   -0.715654
   7 H :    0.407579
   8 H :    0.331244
   9 O :   -0.740062
  10 H :    0.394948
  11 H :    0.370757
  12 O :   -0.771133
  13 H :    0.390588
  14 H :    0.357920
  15 O :   -0.756643
  16 H :    0.392488
  17 H :    0.391378
  18 O :   -0.757508
  19 H :    0.327809
  20 H :    0.392111
  21 O :   -0.741052
  22 H :    0.370533
  23 H :    0.396930
Sum of atomic charges:    0.0000000

--------------------------------
MULLIKEN REDUCED ORBITAL CHARGES
--------------------------------
  0 O s       :     3.800499  s :     3.800499
      pz      :     1.724102  p :     4.922665
      px      :     1.428819
      py      :     1.769744
      dz2     :     0.009483  d :     0.050038
      dxz     :     0.010236
      dyz     :     0.010555
      dx2y2   :     0.007916
      dxy     :     0.011848
      f0      :     0.000459  f :     0.004002
      f+1     :     0.000698
      f-1     :     0.000541
      f+2     :     0.000432
      f-2     :     0.000722
      f+3     :     0.000457
      f-3     :     0.000694
  1 H s       :     0.601535  s :     0.601535
      pz      :     0.017652  p :     0.047249
      px      :     0.014083
      py      :     0.015515
  2 H s       :     0.536892  s :     0.536892
      pz      :     0.011169  p :     0.057970
      px      :     0.032970
      py      :     0.013831
  3 O s       :     3.803067  s :     3.803067
      pz      :     1.714074  p :     4.932697
      px      :     1.437171
      py      :     1.781452
      dz2     :     0.009313  d :     0.049842
      dxz     :     0.009969
      dyz     :     0.010555
      dx2y2   :     0.007859
      dxy     :     0.012147
      f0      :     0.000454  f :     0.003974
      f+1     :     0.000683
      f-1     :     0.000536
      f+2     :     0.000433
      f-2     :     0.000713
      f+3     :     0.000459
      f-3     :     0.000697
  4 H s       :     0.595031  s :     0.595031
      pz      :     0.017364  p :     0.046882
      px      :     0.014173
      py      :     0.015344
  5 H s       :     0.532465  s :     0.532465
      pz      :     0.010591  p :     0.057427
      px      :     0.033142
      py      :     0.013694
  6 O s       :     3.792259  s :     3.792259
      pz      :     1.576268  p :     4.867113
      px      :     1.520035
      py      :     1.770810
      dz2     :     0.016971  d :     0.052283
      dxz     :     0.006593
      dyz     :     0.008031
      dx2y2   :     0.008152
      dxy     :     0.012536
      f0      :     0.000608  f :     0.003999
      f+1     :     0.000750
      f-1     :     0.000536
      f+2     :     0.000414
      f-2     :     0.000423
      f+3     :     0.000429
      f-3     :     0.000839
  7 H s       :     0.543146  s :     0.543146
      pz      :     0.025511  p :     0.049274
      px      :     0.011456
      py      :     0.012307
  8 H s       :     0.622775  s :     0.622775
      pz      :     0.011781  p :     0.045980
      px      :     0.018265
      py      :     0.015934
  9 O s       :     3.799922  s :     3.799922
      pz      :     1.556900  p :     4.884135
      px      :     1.843998
      py      :     1.483237
      dz2     :     0.016394  d :     0.051982
      dxz     :     0.007843
      dyz     :     0.008070
      dx2y2   :     0.009104
      dxy     :     0.010571
      f0      :     0.000573  f :     0.004023
      f+1     :     0.000495
      f-1     :     0.000820
      f+2     :     0.000435
      f-2     :     0.000405
      f+3     :     0.000815
      f-3     :     0.000480
 10 H s       :     0.562447  s :     0.562447
      pz      :     0.009571  p :     0.042605
      px      :     0.014179
      py      :     0.018855
 11 H s       :     0.583774  s :     0.583774
      pz      :     0.019217  p :     0.045469
      px      :     0.014154
      py      :     0.012098
 12 O s       :     3.800035  s :     3.800035
      pz      :     1.580752  p :     4.917145
      px      :     1.472196
      py      :     1.864198
      dz2     :     0.015044  d :     0.049951
      dxz     :     0.007886
      dyz     :     0.007970
      dx2y2   :     0.008434
      dxy     :     0.010617
      f0      :     0.000573  f :     0.004002
      f+1     :     0.000794
      f-1     :     0.000493
      f+2     :     0.000443
      f-2     :     0.000404
      f+3     :     0.000486
      f-3     :     0.000809
 13 H s       :     0.558452  s :     0.558452
      pz      :     0.024750  p :     0.050959
      px      :     0.012143
      py      :     0.014066
 14 H s       :     0.586541  s :     0.586541
      pz      :     0.010406  p :     0.055539
      px      :     0.028161
      py      :     0.016972
 15 O s       :     3.787560  s :     3.787560
      pz      :     1.552762  p :     4.913379
      px      :     1.773079
      py      :     1.587537
      dz2     :     0.017114  d :     0.051751
      dxz     :     0.007882
      dyz     :     0.006766
      dx2y2   :     0.008007
      dxy     :     0.011981
      f0      :     0.000618  f :     0.003954
      f+1     :     0.000527
      f-1     :     0.000749
      f+2     :     0.000415
      f-2     :     0.000423
      f+3     :     0.000799
      f-3     :     0.000422
 16 H s       :     0.558337  s :     0.558337
      pz      :     0.024182  p :     0.049175
      px      :     0.013068
      py      :     0.011924
 17 H s       :     0.557518  s :     0.557518
      pz      :     0.010358  p :     0.051103
      px      :     0.015999
      py      :     0.024746
 18 O s       :     3.802306  s :     3.802306
      pz      :     1.707269  p :     4.900299
      px      :     1.792602
      py      :     1.400427
      dz2     :     0.009562  d :     0.050865
      dxz     :     0.010931
      dyz     :     0.010134
      dx2y2   :     0.007815
      dxy     :     0.012425
      f0      :     0.000456  f :     0.004038
      f+1     :     0.000548
      f-1     :     0.000693
      f+2     :     0.000438
      f-2     :     0.000725
      f+3     :     0.000717
      f-3     :     0.000462
 19 H s       :     0.624333  s :     0.624333
      pz      :     0.017600  p :     0.047858
      px      :     0.015971
      py      :     0.014287
 20 H s       :     0.549337  s :     0.549337
      pz      :     0.011619  p :     0.058552
      px      :     0.014679
      py      :     0.032254
 21 O s       :     3.791035  s :     3.791035
      pz      :     1.522779  p :     4.893950
      px      :     1.777591
      py      :     1.593580
      dz2     :     0.017431  d :     0.052082
      dxz     :     0.007872
      dyz     :     0.006698
      dx2y2   :     0.008021
      dxy     :     0.012061
      f0      :     0.000630  f :     0.003986
      f+1     :     0.000531
      f-1     :     0.000756
      f+2     :     0.000415
      f-2     :     0.000424
      f+3     :     0.000806
      f-3     :     0.000424
 22 H s       :     0.584482  s :     0.584482
      pz      :     0.019470  p :     0.044985
      px      :     0.013321
      py      :     0.012194
 23 H s       :     0.552358  s :     0.552358
      pz      :     0.010141  p :     0.050711
      px      :     0.015946
      py      :     0.024625


                     *******************************
                     * LOEWDIN POPULATION ANALYSIS *
                     *******************************

----------------------
LOEWDIN ATOMIC CHARGES
----------------------
   0 O :   -0.348057
   1 H :    0.155471
   2 H :    0.153184
   3 O :   -0.323118
   4 H :    0.157457
   5 H :    0.154347
   6 O :   -0.282980
   7 H :    0.164564
   8 H :    0.158497
   9 O :   -0.283753
  10 H :    0.190771
  11 H :    0.173330
  12 O :   -0.349211
  13 H :    0.154448
  14 H :    0.141484
  15 O :   -0.293910
  16 H :    0.157242
  17 H :    0.156520
  18 O :   -0.374051
  19 H :    0.144867
  20 H :    0.149719
  21 O :   -0.289763
  22 H :    0.173923
  23 H :    0.159020

-------------------------------
LOEWDIN REDUCED ORBITAL CHARGES
-------------------------------
  0 O s       :     3.456110  s :     3.456110
      pz      :     1.700549  p :     4.830259
      px      :     1.396352
      py      :     1.733358
      dz2     :     0.009892  d :     0.056958
      dxz     :     0.012589
      dyz     :     0.010976
      dx2y2   :     0.009436
      dxy     :     0.014064
      f0      :     0.000453  f :     0.004731
      f+1     :     0.000849
      f-1     :     0.000645
      f+2     :     0.000409
      f-2     :     0.001027
      f+3     :     0.000474
      f-3     :     0.000874
  1 H s       :     0.676506  s :     0.676506
      pz      :     0.067084  p :     0.168023
      px      :     0.047088
      py      :     0.053850
  2 H s       :     0.646797  s :     0.646797
      pz      :     0.034087  p :     0.200020
      px      :     0.117495
      py      :     0.048438
  3 O s       :     3.451074  s :     3.451074
      pz      :     1.671716  p :     4.809875
      px      :     1.400376
      py      :     1.737783
      dz2     :     0.010476  d :     0.057434
      dxz     :     0.012429
      dyz     :     0.011036
      dx2y2   :     0.009340
      dxy     :     0.014152
      f0      :     0.000471  f :     0.004735
      f+1     :     0.000843
      f-1     :     0.000644
      f+2     :     0.000411
      f-2     :     0.001019
      f+3     :     0.000474
      f-3     :     0.000873
  4 H s       :     0.673905  s :     0.673905
      pz      :     0.067389  p :     0.168638
      px      :     0.047256
      py      :     0.053994
  5 H s       :     0.643733  s :     0.643733
      pz      :     0.034005  p :     0.201920
      px      :     0.119409
      py      :     0.048506
  6 O s       :     3.450559  s :     3.450559
      pz      :     1.541754  p :     4.766878
      px      :     1.512021
      py      :     1.713104
      dz2     :     0.021026  d :     0.060614
      dxz     :     0.007028
      dyz     :     0.007367
      dx2y2   :     0.009494
      dxy     :     0.015699
      f0      :     0.000817  f :     0.004929
      f+1     :     0.000986
      f-1     :     0.000738
      f+2     :     0.000389
      f-2     :     0.000420
      f+3     :     0.000407
      f-3     :     0.001172
  7 H s       :     0.659492  s :     0.659492
      pz      :     0.097916  p :     0.175944
      px      :     0.036240
      py      :     0.041788
  8 H s       :     0.680366  s :     0.680366
      pz      :     0.032562  p :     0.161137
      px      :     0.072501
      py      :     0.056075
  9 O s       :     3.457878  s :     3.457878
      pz      :     1.525796  p :     4.760338
      px      :     1.779552
      py      :     1.454990
      dz2     :     0.021402  d :     0.060680
      dxz     :     0.006976
      dyz     :     0.009452
      dx2y2   :     0.010808
      dxy     :     0.012043
      f0      :     0.000795  f :     0.004856
      f+1     :     0.000598
      f-1     :     0.001171
      f+2     :     0.000413
      f-2     :     0.000417
      f+3     :     0.001011
      f-3     :     0.000452
 10 H s       :     0.651484  s :     0.651484
      pz      :     0.029662  p :     0.157745
      px      :     0.050027
      py      :     0.078055
 11 H s       :     0.664697  s :     0.664697
      pz      :     0.081895  p :     0.161973
      px      :     0.043717
      py      :     0.036360
 12 O s       :     3.452320  s :     3.452320
      pz      :     1.543966  p :     4.834923
      px      :     1.465030
      py      :     1.825926
      dz2     :     0.019154  d :     0.057236
      dxz     :     0.009117
      dyz     :     0.007122
      dx2y2   :     0.009661
      dxy     :     0.012183
      f0      :     0.000775  f :     0.004731
      f+1     :     0.001125
      f-1     :     0.000572
      f+2     :     0.000414
      f-2     :     0.000415
      f+3     :     0.000445
      f-3     :     0.000986
 13 H s       :     0.669297  s :     0.669297
      pz      :     0.095095  p :     0.176255
      px      :     0.037556
      py      :     0.043605
 14 H s       :     0.671567  s :     0.671567
      pz      :     0.031777  p :     0.186949
      px      :     0.101599
      py      :     0.053573
 15 O s       :     3.442226  s :     3.442226
      pz      :     1.526697  p :     4.788399
      px      :     1.714674
      py      :     1.547027
      dz2     :     0.020976  d :     0.058476
      dxz     :     0.007298
      dyz     :     0.007376
      dx2y2   :     0.009000
      dxy     :     0.013826
      f0      :     0.000855  f :     0.004809
      f+1     :     0.000720
      f-1     :     0.000967
      f+2     :     0.000389
      f-2     :     0.000426
      f+3     :     0.001044
      f-3     :     0.000408
 16 H s       :     0.668922  s :     0.668922
      pz      :     0.093164  p :     0.173836
      px      :     0.042622
      py      :     0.038050
 17 H s       :     0.663868  s :     0.663868
      pz      :     0.031344  p :     0.179612
      px      :     0.058882
      py      :     0.089386
 18 O s       :     3.464413  s :     3.464413
      pz      :     1.694356  p :     4.847038
      px      :     1.769334
      py      :     1.383348
      dz2     :     0.009855  d :     0.057824
      dxz     :     0.011489
      dyz     :     0.012876
      dx2y2   :     0.008915
      dxy     :     0.014689
      f0      :     0.000452  f :     0.004776
      f+1     :     0.000649
      f-1     :     0.000852
      f+2     :     0.000410
      f-2     :     0.001045
      f+3     :     0.000896
      f-3     :     0.000472
 19 H s       :     0.687450  s :     0.687450
      pz      :     0.066881  p :     0.167683
      px      :     0.054317
      py      :     0.046485
 20 H s       :     0.653567  s :     0.653567
      pz      :     0.034398  p :     0.196715
      px      :     0.048396
      py      :     0.113921
 21 O s       :     3.447727  s :     3.447727
      pz      :     1.511207  p :     4.777838
      px      :     1.718207
      py      :     1.548424
      dz2     :     0.021718  d :     0.059332
      dxz     :     0.007328
      dyz     :     0.007407
      dx2y2   :     0.008998
      dxy     :     0.013881
      f0      :     0.000879  f :     0.004867
      f+1     :     0.000728
      f-1     :     0.000989
      f+2     :     0.000389
      f-2     :     0.000426
      f+3     :     0.001047
      f-3     :     0.000408
 22 H s       :     0.663584  s :     0.663584
      pz      :     0.082718  p :     0.162493
      px      :     0.042391
      py      :     0.037384
 23 H s       :     0.662705  s :     0.662705
      pz      :     0.030295  p :     0.178275
      px      :     0.058984
      py      :     0.088996


                      *****************************
                      * MAYER POPULATION ANALYSIS *
                      *****************************

  NA   - Mulliken gross atomic population
[...]
      f-1     :     0.000676
      f+2     :     0.000438
      f-2     :     0.000706
      f+3     :     0.000700
      f-3     :     0.000460
 19 H s       :     0.629484  s :     0.629484
      pz      :     0.017752  p :     0.048667
      px      :     0.016628
      py      :     0.014287
 20 H s       :     0.571646  s :     0.571646
      pz      :     0.012391  p :     0.058760
      px      :     0.015189
      py      :     0.031180
 21 O s       :     3.789838  s :     3.789838
      pz      :     1.517553  p :     4.868696
      px      :     1.758492
      py      :     1.592650
      dz2     :     0.016161  d :     0.050194
      dxz     :     0.007851
      dyz     :     0.006653
      dx2y2   :     0.008003
      dxy     :     0.011526
      f0      :     0.000612  f :     0.003913
      f+1     :     0.000522
      f-1     :     0.000735
      f+2     :     0.000415
      f-2     :     0.000422
      f+3     :     0.000783
      f-3     :     0.000424
 22 H s       :     0.589874  s :     0.589874
      pz      :     0.018711  p :     0.045560
      px      :     0.014140
      py      :     0.012709
 23 H s       :     0.570400  s :     0.570400
      pz      :     0.010725  p :     0.051104
      px      :     0.016258
      py      :     0.024122


                     *******************************
                     * LOEWDIN POPULATION ANALYSIS *
                     *******************************

----------------------
LOEWDIN ATOMIC CHARGES
----------------------
   0 O :   -0.344268
   1 H :    0.157510
   2 H :    0.145349
   3 O :   -0.315690
   4 H :    0.159379
   5 H :    0.146079
   6 O :   -0.277250
   7 H :    0.160053
   8 H :    0.160179
   9 O :   -0.276900
  10 H :    0.191395
  11 H :    0.174803
  12 O :   -0.345517
  13 H :    0.149976
  14 H :    0.135613
  15 O :   -0.285071
  16 H :    0.154662
  17 H :    0.151236
  18 O :   -0.376602
  19 H :    0.146653
  20 H :    0.142375
  21 O :   -0.283147
  22 H :    0.175521
  23 H :    0.153663

-------------------------------
LOEWDIN REDUCED ORBITAL CHARGES
-------------------------------
  0 O s       :     3.457318  s :     3.457318
      pz      :     1.700142  p :     4.825817
      px      :     1.400436
      py      :     1.725239
      dz2     :     0.009869  d :     0.056364
      dxz     :     0.012242
      dyz     :     0.010906
      dx2y2   :     0.009469
      dxy     :     0.013878
      f0      :     0.000455  f :     0.004768
      f+1     :     0.000860
      f-1     :     0.000646
      f+2     :     0.000410
      f-2     :     0.001029
      f+3     :     0.000479
      f-3     :     0.000889
  1 H s       :     0.674523  s :     0.674523
      pz      :     0.067069  p :     0.167967
      px      :     0.046746
      py      :     0.054152
  2 H s       :     0.654400  s :     0.654400
      pz      :     0.034693  p :     0.200251
      px      :     0.116746
      py      :     0.048813
  3 O s       :     3.452536  s :     3.452536
      pz      :     1.666664  p :     4.801324
      px      :     1.404234
      py      :     1.730426
      dz2     :     0.010575  d :     0.057055
      dxz     :     0.012097
      dyz     :     0.011000
      dx2y2   :     0.009406
      dxy     :     0.013978
      f0      :     0.000474  f :     0.004776
      f+1     :     0.000855
      f-1     :     0.000645
      f+2     :     0.000412
      f-2     :     0.001021
      f+3     :     0.000479
      f-3     :     0.000889
  4 H s       :     0.672066  s :     0.672066
      pz      :     0.067342  p :     0.168555
      px      :     0.046878
      py      :     0.054335
  5 H s       :     0.651828  s :     0.651828
      pz      :     0.034543  p :     0.202093
      px      :     0.118678
      py      :     0.048873
  6 O s       :     3.451562  s :     3.451562
      pz      :     1.543481  p :     4.760965
      px      :     1.513686
      py      :     1.703798
      dz2     :     0.020534  d :     0.059773
      dxz     :     0.006931
      dyz     :     0.007415
      dx2y2   :     0.009540
      dxy     :     0.015353
      f0      :     0.000820  f :     0.004950
      f+1     :     0.000993
      f-1     :     0.000740
      f+2     :     0.000391
      f-2     :     0.000420
      f+3     :     0.000408
      f-3     :     0.001178
  7 H s       :     0.663905  s :     0.663905
      pz      :     0.097107  p :     0.176043
      px      :     0.036517
      py      :     0.042419
  8 H s       :     0.678253  s :     0.678253
      pz      :     0.033092  p :     0.161568
      px      :     0.071882
      py      :     0.056595
  9 O s       :     3.459457  s :     3.459457
      pz      :     1.525033  p :     4.752813
      px      :     1.770031
      py      :     1.457748
      dz2     :     0.020902  d :     0.059755
      dxz     :     0.007063
      dyz     :     0.009220
      dx2y2   :     0.010708
      dxy     :     0.011861
      f0      :     0.000795  f :     0.004876
      f+1     :     0.000600
      f-1     :     0.001178
      f+2     :     0.000415
      f-2     :     0.000416
      f+3     :     0.001019
      f-3     :     0.000454
 10 H s       :     0.651215  s :     0.651215
      pz      :     0.030022  p :     0.157390
      px      :     0.050572
      py      :     0.076796
 11 H s       :     0.663282  s :     0.663282
      pz      :     0.081142  p :     0.161915
      px      :     0.044544
      py      :     0.036229
 12 O s       :     3.452942  s :     3.452942
      pz      :     1.541585  p :     4.831198
      px      :     1.466728
      py      :     1.822885
      dz2     :     0.018867  d :     0.056611
      dxz     :     0.008942
      dyz     :     0.007182
      dx2y2   :     0.009591
      dxy     :     0.012029
      f0      :     0.000780  f :     0.004767
      f+1     :     0.001137
      f-1     :     0.000573
      f+2     :     0.000416
      f-2     :     0.000414
      f+3     :     0.000448
      f-3     :     0.000999
 13 H s       :     0.673417  s :     0.673417
      pz      :     0.094461  p :     0.176607
      px      :     0.037675
      py      :     0.044470
 14 H s       :     0.676520  s :     0.676520
      pz      :     0.032300  p :     0.187867
      px      :     0.101230
      py      :     0.054337
 15 O s       :     3.442460  s :     3.442460
      pz      :     1.528001  p :     4.779875
      px      :     1.703455
      py      :     1.548418
      dz2     :     0.020509  d :     0.057903
      dxz     :     0.007341
      dyz     :     0.007279
      dx2y2   :     0.009087
      dxy     :     0.013687
      f0      :     0.000858  f :     0.004833
      f+1     :     0.000722
      f-1     :     0.000974
      f+2     :     0.000390
      f-2     :     0.000426
      f+3     :     0.001054
      f-3     :     0.000409
 16 H s       :     0.671351  s :     0.671351
      pz      :     0.092276  p :     0.173987
      px      :     0.043170
      py      :     0.038541
 17 H s       :     0.668610  s :     0.668610
      pz      :     0.031771  p :     0.180154
      px      :     0.059171
      py      :     0.089212
 18 O s       :     3.466004  s :     3.466004
      pz      :     1.694036  p :     4.848769
      px      :     1.767948
      py      :     1.386785
      dz2     :     0.009807  d :     0.057016
      dxz     :     0.011397
      dyz     :     0.012501
      dx2y2   :     0.008894
      dxy     :     0.014419
      f0      :     0.000454  f :     0.004813
      f+1     :     0.000650
      f-1     :     0.000864
      f+2     :     0.000411
      f-2     :     0.001045
      f+3     :     0.000913
      f-3     :     0.000476
 19 H s       :     0.685308  s :     0.685308
      pz      :     0.067025  p :     0.168039
      px      :     0.054921
      py      :     0.046093
 20 H s       :     0.660753  s :     0.660753
      pz      :     0.035124  p :     0.196872
      px      :     0.048947
      py      :     0.112801
 21 O s       :     3.448387  s :     3.448387
      pz      :     1.513464  p :     4.771307
      px      :     1.707445
      py      :     1.550397
      dz2     :     0.021093  d :     0.058564
      dxz     :     0.007355
      dyz     :     0.007281
      dx2y2   :     0.009092
      dxy     :     0.013743
      f0      :     0.000878  f :     0.004889
      f+1     :     0.000729
      f-1     :     0.000997
      f+2     :     0.000391
      f-2     :     0.000426
      f+3     :     0.001058
      f-3     :     0.000410
 22 H s       :     0.662137  s :     0.662137
      pz      :     0.081766  p :     0.162342
      px      :     0.042918
      py      :     0.037658
 23 H s       :     0.667680  s :     0.667680
      pz      :     0.030663  p :     0.178656
      px      :     0.059342
      py      :     0.088651


                      *****************************
                      * MAYER POPULATION ANALYSIS *
                      *****************************

  NA   - Mulliken gross atomic population
  ZA   - Total nuclear charge
  QA   - Mulliken gross atomic charge
  VA   - Mayer's total valence
  BVA  - Mayer's bonded valence
  FA   - Mayer's free valence

  ATOM       NA         ZA         QA         VA         BVA        FA
  0 O      8.7496     8.0000    -0.7496     2.0303     1.6410     0.3893
  1 H      0.6552     1.0000     0.3448     0.9020     0.8555     0.0465
  2 H      0.6186     1.0000     0.3814     0.9073     0.8630     0.0443
  3 O      8.7580     8.0000    -0.7580     2.0311     1.6402     0.3909
  4 H      0.6490     1.0000     0.3510     0.8982     0.8519     0.0463
  5 H      0.6161     1.0000     0.3839     0.9065     0.8620     0.0445
  6 O      8.6890     8.0000    -0.6890     2.0971     1.7153     0.3818
  7 H      0.6084     1.0000     0.3916     0.8903     0.8482     0.0421
  8 H      0.6749     1.0000     0.3251     0.9167     0.8677     0.0491
  9 O      8.7149     8.0000    -0.7149     2.1049     1.7195     0.3854
 10 H      0.6130     1.0000     0.3870     0.8716     0.8269     0.0447
 11 H      0.6365     1.0000     0.3635     0.8897     0.8441     0.0455
 12 O      8.7416     8.0000    -0.7416     2.0362     1.6467     0.3895
 13 H      0.6266     1.0000     0.3734     0.9065     0.8629     0.0436
 14 H      0.6623     1.0000     0.3377     0.9373     0.8894     0.0479
 15 O      8.7220     8.0000    -0.7220     2.0833     1.6982     0.3851
 16 H      0.6188     1.0000     0.3812     0.8833     0.8395     0.0438
 17 H      0.6280     1.0000     0.3720     0.9181     0.8743     0.0438
 18 O      8.7394     8.0000    -0.7394     2.0126     1.6256     0.3870
 19 H      0.6782     1.0000     0.3218     0.9161     0.8678     0.0483
 20 H      0.6304     1.0000     0.3696     0.9150     0.8702     0.0448
 21 O      8.7126     8.0000    -0.7126     2.0871     1.7040     0.3831
 22 H      0.6354     1.0000     0.3646     0.8861     0.8405     0.0456
 23 H      0.6215     1.0000     0.3785     0.9077     0.8644     0.0433

  Mayer bond orders larger than 0.100000
B(  0-O ,  1-H ) :   0.8465 B(  0-O ,  2-H ) :   0.7459 B(  2-H , 21-O ) :   0.1111 
B(  3-O ,  4-H ) :   0.8402 B(  3-O ,  5-H ) :   0.7275 B(  5-H , 15-O ) :   0.1225 
B(  6-O ,  7-H ) :   0.7886 B(  6-O ,  8-H ) :   0.8558 B(  9-O , 10-H ) :   0.8108 
B(  9-O , 11-H ) :   0.8317 B( 12-O , 13-H ) :   0.8081 B( 12-O , 14-H ) :   0.8017 
B( 15-O , 16-H ) :   0.8141 B( 15-O , 17-H ) :   0.7864 B( 18-O , 19-H ) :   0.8626 
B( 18-O , 20-H ) :   0.7795 B( 21-O , 22-H ) :   0.8320 B( 21-O , 23-H ) :   0.7899 



----------------------------------
MP2 DERIVATIVE INTEGRAL GENERATION
----------------------------------


Input Wavefunction Amplitudes       ... 12h2o.su.etal.mol0,1,3,5,7,9,10,11-orca.engrad-mp2.def2tzvp.frozencore.mp2tsaa.tmp
Input Correlated Electron Density   ... 12h2o.su.etal.mol0,1,3,5,7,9,10,11-orca.engrad-mp2.def2tzvp.frozencore.pmp2re
Input Energy Weighted Density       ... 12h2o.su.etal.mol0,1,3,5,7,9,10,11-orca.engrad-mp2.def2tzvp.frozencore.wmp2.tmp
Input SCF Electron Density          ... 12h2o.su.etal.mol0,1,3,5,7,9,10,11-orca.engrad-mp2.def2tzvp.frozencore.scfp

One-Electron Terms    ...
                        ... One-Electron Terms done
Prescreening matrices              ... done

Batch handling in the gradient evaluation:
Memory available                      ... 8000.0 MB
Memory per occupied orbital in Q2     ...   28.9 MB
Memory per occupied orbital in Q3     ...    0.1 MB
Total memory requirement per |i>      ...   29.0 MB
Max. Number of orbitals possible      ...    275
Number of orbitals treated per batch  ...     32
Number of batches to be done          ...      1
Batch   0: i=    8 ...    39

---------------------------------------
MP2 TOTAL ENERGY:     -610.589939889 Eh
---------------------------------------

The final MP2 gradient
  0:   0.00678460   0.00410951  -0.00010700
  1:   0.00025990  -0.00059450   0.00020540
  2:  -0.00862398   0.00042815  -0.00058070
  3:  -0.00212149  -0.00165553  -0.00071568
  4:   0.00018856   0.00078717  -0.00130214
  5:   0.00284585   0.00038012  -0.00168771
  6:  -0.00901337   0.01278593   0.00269345
  7:   0.00117330  -0.00195503  -0.00595409
  8:   0.01067968  -0.00503074   0.00121336
  9:  -0.01040281  -0.01315080   0.01258479
 10:   0.00476442   0.01165694  -0.00195870
 11:  -0.00190354   0.00064548  -0.00798492
 12:  -0.00642400   0.00735209   0.00293476
 13:  -0.00144924  -0.00245880   0.00183677
 14:   0.01316111  -0.00604902  -0.00334713
 15:   0.00153387   0.00147119   0.00440166
 16:  -0.00073553   0.00096663  -0.00443487
 17:  -0.00323870  -0.00374128  -0.00062181
 18:   0.00199299   0.00881259   0.00068070
 19:   0.00026205   0.00212533  -0.00057003
 20:  -0.00462438  -0.01814017  -0.00029448
 21:   0.00113803  -0.00207371   0.00854579
 22:   0.00092188   0.00094467  -0.00641938
 23:   0.00283080   0.00238379   0.00088196

-----------------------------------
NORM OF THE MP2 GRADIENT:  0.047357
-----------------------------------

-------------------------   --------------------
FINAL SINGLE POINT ENERGY      -610.589939888731
-------------------------   --------------------


                            ***************************************
                            *     ORCA property calculations      *
                            ***************************************

                                    ---------------------
                                    Active property flags
                                    ---------------------
   (+) Dipole Moment


------------------------------------------------------------------------------
                       ORCA ELECTRIC PROPERTIES CALCULATION
------------------------------------------------------------------------------

Dipole Moment Calculation                       ... on
Quadrupole Moment Calculation                   ... off
Polarizability Calculation                      ... off
GBWName                                         ... 12h2o.su.etal.mol0,1,3,5,7,9,10,11-orca.engrad-mp2.def2tzvp.frozencore.gbw
Electron density file                           ... 12h2o.su.etal.mol0,1,3,5,7,9,10,11-orca.engrad-mp2.def2tzvp.frozencore.scfp
The origin for moment calculation is the CENTER OF MASS  = (-0.822472, -0.384839  1.337225)

-------------
DIPOLE MOMENT
-------------
                                X             Y             Z
Electronic contribution:     -0.00048      -0.19255       0.31490
Nuclear contribution   :      0.68416      -0.87419      -0.05351
                        -----------------------------------------
Total Dipole Moment    :      0.68368      -1.06673       0.26139
                        -----------------------------------------
Magnitude (a.u.)       :      1.29370
Magnitude (Debye)      :      3.28832



--------------------
Rotational spectrum 
--------------------
 
Rotational constants in cm-1:     0.035927     0.016035     0.014941 
Rotational constants in MHz :  1077.062181   480.722602   447.930237 

 Dipole components along the rotational axes: 
x,y,z [a.u.] :     0.500930     1.019775     0.618698 
x,y,z [Debye]:     1.273264     2.592063     1.572604 

 

                         *** MP2 UNRELAXED DENSITY ***

------------------------------------------------------------------------------
                       ORCA ELECTRIC PROPERTIES CALCULATION
------------------------------------------------------------------------------

Dipole Moment Calculation                       ... on
Quadrupole Moment Calculation                   ... off
Polarizability Calculation                      ... off
GBWName                                         ... 12h2o.su.etal.mol0,1,3,5,7,9,10,11-orca.engrad-mp2.def2tzvp.frozencore.gbw
Electron density file                           ... 12h2o.su.etal.mol0,1,3,5,7,9,10,11-orca.engrad-mp2.def2tzvp.frozencore.pmp2ur
The origin for moment calculation is the CENTER OF MASS  = (-0.822472, -0.384839  1.337225)

-------------
DIPOLE MOMENT
-------------
                                X             Y             Z
Electronic contribution:     -0.00603      -0.18597       0.31968
Nuclear contribution   :      0.68416      -0.87419      -0.05351
                        -----------------------------------------
Total Dipole Moment    :      0.67813      -1.06015       0.26617
                        -----------------------------------------
Magnitude (a.u.)       :      1.28633
Magnitude (Debye)      :      3.26958



--------------------
Rotational spectrum 
--------------------
 
Rotational constants in cm-1:     0.035927     0.016035     0.014941 
Rotational constants in MHz :  1077.062181   480.722602   447.930237 

 Dipole components along the rotational axes: 
x,y,z [a.u.] :     0.503574     1.013314     0.611754 
x,y,z [Debye]:     1.279983     2.575640     1.554955 

 

                           *** MP2 RELAXED DENSITY ***

------------------------------------------------------------------------------
                       ORCA ELECTRIC PROPERTIES CALCULATION
------------------------------------------------------------------------------

Dipole Moment Calculation                       ... on
Quadrupole Moment Calculation                   ... off
Polarizability Calculation                      ... off
GBWName                                         ... 12h2o.su.etal.mol0,1,3,5,7,9,10,11-orca.engrad-mp2.def2tzvp.frozencore.gbw
Electron density file                           ... 12h2o.su.etal.mol0,1,3,5,7,9,10,11-orca.engrad-mp2.def2tzvp.frozencore.pmp2re
The origin for moment calculation is the CENTER OF MASS  = (-0.822472, -0.384839  1.337225)

-------------
DIPOLE MOMENT
-------------
                                X             Y             Z
Electronic contribution:      0.00541      -0.17885       0.33722
Nuclear contribution   :      0.68416      -0.87419      -0.05351
                        -----------------------------------------
Total Dipole Moment    :      0.68956      -1.05304       0.28371
                        -----------------------------------------
Magnitude (a.u.)       :      1.29030
Magnitude (Debye)      :      3.27969



--------------------
Rotational spectrum 
--------------------
 
Rotational constants in cm-1:     0.035927     0.016035     0.014941 
Rotational constants in MHz :  1077.062181   480.722602   447.930237 

 Dipole components along the rotational axes: 
x,y,z [a.u.] :     0.523275     1.004966     0.617340 
x,y,z [Debye]:     1.330058     2.554422     1.569154 

 

Timings for individual modules:

Sum of individual times         ...      183.800 sec (=   3.063 min)
GTO integral calculation        ...        1.024 sec (=   0.017 min)   0.6 %
SCF iterations                  ...       26.586 sec (=   0.443 min)  14.5 %
MP2 module                      ...      156.190 sec (=   2.603 min)  85.0 %
                             ****ORCA TERMINATED NORMALLY****
TOTAL RUN TIME: 0 days 0 hours 3 minutes 4 seconds 846 msec
