64
Energy:  -1798.74346886
O    0.57947459  -1.61912233  -2.15638990
H    0.47758691  -1.04832597  -1.39478484
H   -0.01648234  -2.34952620  -1.99032556
O    1.35730131  -0.77102308   2.65994608
H    0.94947933  -1.56148482   3.01361727
H    0.92128394  -0.63158204   1.81930532
O    2.81746283  -2.82752233  -1.07700129
H    3.10244514  -2.12813820  -0.48888670
H    2.12369038  -2.43048732  -1.60357022
O   -2.48921331   2.02454458   1.10632201
H   -2.14549298   1.92891672   1.99454693
H   -1.90195739   1.49822554   0.56378114
O    0.23063800   0.37674050  -3.95820042
H    0.33947626  -0.34383194  -3.33758665
H    0.12693298   1.15340067  -3.40840400
O   -1.49395813   1.47553442   3.57564836
H   -0.56056115   1.67881774   3.51500327
H   -1.55864739   0.56073300   3.30144858
O    1.40627251   2.82117761   0.71044025
H    0.59780043   3.30335752   0.53692572
H    1.23119398   1.93613093   0.39064073
O   -0.95234308   3.97388646  -0.10658150
H   -0.73385611   3.52917179  -0.92555901
H   -1.56101171   3.38064434   0.33366632
O   -2.49964810  -1.66991267  -0.77566623
H   -1.71816080  -1.27814639  -0.38575774
H   -2.60261338  -1.21757793  -1.61293756
O    0.05298676   2.49574797  -2.21795109
H    0.94232267   2.82886441  -2.09817249
H   -0.02817783   1.79155244  -1.57471489
O   -2.33932476   0.08237173  -2.89169409
H   -1.96319670   0.41088038  -2.07509039
H   -1.60908847   0.08535126  -3.51054619
O    3.17070288  -0.73720394   0.61628156
H    2.46077474  -0.29088142   0.15472972
H    2.82738160  -0.88707310   1.49713432
O    2.65940051   0.78493840  -2.59609489
H    2.04067810   0.61762529  -3.30702439
H    2.16941686   0.58295538  -1.79900598
O    2.60278518   3.34372356  -1.69748771
H    2.80602069   2.46536581  -2.01906949
H    2.33360674   3.21023455  -0.78866678
O    0.75895609  -3.39161896   0.60860920
H    1.57277259  -3.35856805   0.10577506
H    0.40784160  -2.50271969   0.55561345
O   -0.97470111  -3.78719270  -1.45624844
H   -1.62941037  -3.13279071  -1.21263877
H   -0.37362181  -3.81399676  -0.71179087
O   -0.07262896  -3.04514387   3.23200344
H   -0.80375786  -2.45308235   3.05552246
H    0.22935617  -3.31842432   2.36577332
O    1.18830125   1.88990268   3.28527091
H    1.30493711   2.28126913   2.41955720
H    1.31866597   0.95216507   3.14425653
O   -1.83139609  -1.02583707   2.49948453
H   -1.23096316  -0.91594689   1.76216756
H   -2.69925581  -0.86796176   2.12783046
O   -4.01998467  -0.28439269   1.05202272
H   -3.57872887  -0.77150074   0.35614133
H   -3.61478051   0.58258386   1.03219634
C   -0.05401411   0.28481772   0.16457608
O   -1.07994489   0.69505935  -0.64544011
O    1.13912962   0.46071842  -0.48547451
O   -0.21665512  -1.04087869   0.47093719
