64
Energy:  -1793.12737339
O    0.73743498  -2.63595549  -2.39031964
H    0.76726649  -1.81055352  -1.90652886
H   -0.05727175  -3.06857331  -2.07804591
O    1.66463761  -0.64832418   2.59750948
H    1.27801109  -1.36940710   3.09429032
H    1.09278708  -0.54738153   1.83656967
O    2.65724118  -3.57849083  -0.71141559
H    2.94388034  -2.73166806  -0.36941993
H    2.04768414  -3.35887844  -1.41600232
O   -2.24387344   2.21263099   1.45187395
H   -1.88631178   2.11876781   2.33480725
H   -1.64840984   1.70887318   0.89700188
O    0.58591572  -0.96145781  -4.59560918
H    0.77259058  -1.68263405  -3.99453582
H   -0.09776930  -0.45469536  -4.15743291
O   -1.14926140   1.69170890   3.87254151
H   -0.23087091   1.85250016   3.65589222
H   -1.30406439   0.78596331   3.60441314
O    1.25793563   2.97351987   0.49306032
H    0.50388070   3.56310348   0.48814235
H    0.89371121   2.11622770   0.27255510
O   -1.10003766   4.36596886   0.19492143
H   -1.08588086   4.00937090  -0.69326173
H   -1.58438503   3.71765794   0.70612827
O   -2.31188185  -1.12459711  -0.79392575
H   -1.52216171  -0.90581500  -0.29924571
H   -2.21827332  -0.64778264  -1.61861797
O   -0.81846117   2.91859759  -2.12432622
H    0.09332817   3.14755387  -2.30446802
H   -0.76615406   2.22112021  -1.47085769
O   -1.14267601   0.27684889  -2.89559141
H   -0.56173562   0.07463226  -2.16220982
H   -1.17855229   1.23314295  -2.91671985
O    3.03356699  -1.07619778   0.21474919
H    2.25766723  -0.75463279  -0.24438845
H    2.81906075  -0.98287532   1.14292474
O    2.09401243   0.80731676  -3.06363296
H    1.69790592   0.45681841  -2.26583450
H    1.72999098   0.27096828  -3.76794151
O    1.86076227   3.37883691  -2.18775874
H    2.03718213   2.50363257  -2.53290399
H    1.81690915   3.25838725  -1.23918053
O    0.44250373  -3.32063277   0.85938697
H    1.26185375  -3.46119105   0.38489696
H    0.24845273  -2.39182922   0.73329166
O   -1.42370117  -3.68387129  -1.09805385
H   -1.83347922  -2.82060192  -1.04255799
H   -0.81506471  -3.70852894  -0.35968706
O    0.10101181  -2.72934713   3.52865749
H   -0.63378410  -2.12472961   3.42500192
H    0.25055492  -3.07819230   2.64992218
O    1.44647554   2.04198923   3.09357923
H    1.44755547   2.41291060   2.21116889
H    1.60303842   1.10702129   2.96108446
O   -1.74422172  -0.76153033   2.81366873
H   -1.14846296  -0.73283565   2.06501663
H   -2.61202357  -0.61999432   2.43535753
O   -3.84719283  -0.00454268   1.20941560
H   -3.39530137  -0.43472336   0.48348824
H   -3.41827279   0.84757162   1.28790549
C    0.34108731   0.15651837   0.01462903
O   -0.59775584   1.11950450  -0.24650242
O    0.79503668  -0.37041056  -1.16578389
O   -0.22250514  -0.83676810   0.77194385
