52
Energy:  -1527.53366405
O    0.10248969   1.44541962  -4.26663005
H   -0.66469270   1.28568469  -3.71695034
H    0.80818932   1.62851901  -3.64639260
O    0.51490950  -1.23423356  -3.78563366
H    0.37559724  -0.36998623  -4.17280351
H    0.64770024  -1.06110476  -2.85363318
O    0.55006198  -2.93817304  -0.39947051
H    0.25678364  -3.06803040   0.50239241
H    0.45567212  -1.99751735  -0.54943475
O   -1.71286685   0.85846248  -2.29227670
H   -0.92794360   0.64469102  -1.78786704
H   -2.33478290   0.16430719  -2.07410082
O    1.85237384   1.79849528  -2.16644421
H    1.59900680   0.98550432  -1.72931414
H    1.61681544   2.48814225  -1.54585486
O    2.39313404  -1.78740346   2.99569839
H    2.00190395  -0.93800044   3.19986835
H    2.64103200  -1.72199266   2.07347289
O   -1.94666368   2.92495916  -0.48394644
H   -1.91854682   2.25626895  -1.16826705
H   -2.00781508   2.42988269   0.33299398
O   -1.81085297   1.43864322   1.81000890
H   -1.13128256   2.01981785   2.15155239
H   -1.33557089   0.79990760   1.27863746
O   -0.15047873  -2.41495342   2.20418373
H   -0.31655838  -1.71945274   1.56784403
H    0.74616723  -2.25955000   2.50101307
O    2.78901421  -1.49687799   0.35128873
H    2.24810324  -0.70717829   0.34664686
H    2.22334281  -2.17737410  -0.01363970
O   -1.07130900  -3.16454908  -2.59658733
H   -0.53485694  -3.21951470  -1.80574612
H   -0.61460912  -2.53362786  -3.15300038
O   -1.46329447  -0.52487325   3.70537462
H   -1.14092999  -1.27490152   3.20560408
H   -1.74931142   0.10150847   3.04048959
O    0.77281063   3.09705350   0.05028072
H   -0.14541312   3.14579739  -0.21565355
H    0.92962551   2.16502168   0.20179844
O   -2.62292246  -1.43880028  -1.09002113
H   -2.16005722  -2.06857523  -1.64262510
H   -1.95193406  -1.10180818  -0.49635225
O    0.21387781   3.06789365   2.71087703
H    0.48419416   3.18145276   1.79968811
H    0.60395488   2.23459364   2.97485209
O    1.00357843   0.52486575   3.19481482
H    0.14774130   0.16544484   3.42846256
H    1.02830078   0.48366550   2.23882152
C    0.12585609   0.22835306  -0.14674410
O    0.57275887  -0.43563644  -1.25865877
O    1.19236821   0.55736550   0.64786366
O   -0.73321476  -0.57869695   0.55214628
