52
Energy:  -1522.08205972
O    0.17372436   0.52131756  -3.53190760
H   -0.19567798   0.17338239  -2.72029508
H    0.99096239   0.94094770  -3.26308724
O    1.15253657  -3.35948604  -0.94291098
H    0.83155274  -2.49032643  -1.18324992
H    1.83853744  -3.19176816  -0.29676443
O   -2.82577604  -1.78472352  -0.50451131
H   -3.05368873  -1.49737403   0.37963682
H   -2.10065540  -1.21557160  -0.76238334
O   -1.94796576   2.14519511  -4.15628167
H   -1.18770369   1.56907673  -4.07677671
H   -2.30783052   2.19127610  -3.27050193
O    2.32042149   1.44989006  -1.93986093
H    1.71028471   2.09990127  -1.59136360
H    1.94088649   0.60701312  -1.69137854
O    1.91062051   1.20366237   1.99305561
H    2.68495198   1.17776403   1.43094183
H    1.22679647   0.77364043   1.47954061
O    0.14210445   2.54654032  -0.74656204
H   -0.02601415   1.60445754  -0.72539569
H    0.13993645   2.81143145   0.17325307
O   -3.12334622  -0.94259962   2.10403150
H   -2.28424334  -1.38086452   2.24567214
H   -2.88787285  -0.06265750   1.80994646
O    2.75005762  -1.71009885   0.73647691
H    2.04585127  -1.31170091   0.22500419
H    2.45876631  -1.63497119   1.64517766
O    3.93064841   0.74034533   0.20605312
H    3.63518121  -0.15933820   0.34569740
H    3.43648124   1.03949899  -0.55718849
O   -1.24275729  -3.88557350   0.27603379
H   -0.41117296  -3.75801643  -0.18050596
H   -1.81528859  -3.20236529  -0.07277319
O   -0.61276319  -2.03109135   2.18086750
H   -0.39761824  -1.31684751   1.58103398
H   -0.79043689  -2.77860987   1.61000853
O   -2.11685566   1.40954189   1.16386851
H   -2.45679592   1.71840521   0.32406144
H   -1.37928201   0.84547460   0.93139259
O   -2.50163981   2.12116316  -1.45814742
H   -2.15931704   1.22728662  -1.45251706
H   -1.73253074   2.67357330  -1.31833991
O   -0.08078810   3.10656072   1.92396115
H    0.65122917   2.50432864   2.05699907
H   -0.83665948   2.53732655   1.77952169
O    1.80405035  -1.25182996   3.25339579
H    1.83604283  -0.34533597   2.94765574
H    0.94349214  -1.56776359   2.97797366
C   -0.08722109  -0.60624205  -0.40587848
O    1.13262281  -0.63184613  -1.02900259
O   -0.99483079   0.03717972  -1.20547328
O    0.02360726   0.05898065   0.78700712
