52
Energy:  -1521.35140217
O    1.32377592  -0.89775824  -2.49775345
H    1.18336415  -0.97397921  -1.55398084
H    0.59193433  -0.36385026  -2.80691684
O   -1.27785380  -3.05242433  -0.49849042
H   -1.09680506  -2.11357601  -0.45357892
H   -0.51172323  -3.46397313  -0.09861122
O   -3.00394541  -0.01880132   0.81891257
H   -2.84297786   0.63552084   1.49875359
H   -2.13598572  -0.21975777   0.46892068
O    0.33343137  -3.42278409  -2.67403493
H   -0.39743666  -3.30523266  -2.06720263
H    0.74042871  -2.55822234  -2.72987389
O    2.27618205   1.27212560  -1.13827549
H    2.21768943   0.55976576  -1.77494960
H    1.64324293   1.03942674  -0.45895880
O    2.83432918  -0.76741646   2.19019613
H    2.49340824   0.02470420   2.60558705
H    2.21302470  -0.95600120   1.48688369
O   -0.83118842   0.77101179  -2.68343683
H   -0.78164444   0.30761792  -1.84734870
H   -0.39126412   1.60560003  -2.52169345
O   -2.32700153   2.03159514   2.51964394
H   -1.61028776   1.52390853   2.90017979
H   -1.97102068   2.37116461   1.69854586
O    4.22622866   1.08808925   0.76981036
H    3.89899138   0.30852601   1.21861852
H    3.63884063   1.19891590   0.02219776
O    2.12965397   1.94636079   2.37544567
H    1.48561749   1.60175388   1.75682224
H    2.96260564   1.89851870   1.90626075
O   -3.66957393  -2.70738425   0.83225442
H   -2.87005696  -2.97438299   0.37869501
H   -3.57846167  -1.76089013   0.94216024
O   -0.16849203   0.60012931   3.33033626
H    0.54947409   1.22969606   3.39668540
H   -0.11076577   0.26366254   2.43608258
O   -1.28278054   2.61116893   0.06835859
H   -1.98356737   2.23585586  -0.46481096
H   -0.69660201   1.87570564   0.24646058
O   -3.21014853   1.45467237  -1.48123369
H   -3.25522750   0.84627451  -0.74363503
H   -2.47825851   1.13693858  -2.01001916
O    0.44058474   3.08081338  -1.97985719
H    1.16972874   2.52644865  -1.70189922
H   -0.16117852   3.07693385  -1.23547975
O    1.33276223  -3.83211587  -0.12471095
H    1.18035978  -3.82753038  -1.06968943
H    1.34687171  -2.90698971   0.12059367
C    0.12569376  -0.43037215   0.49506829
O    1.21466080  -1.17622699   0.12790386
O   -0.82240606  -0.49017328  -0.49216489
O    0.50740914   0.87206642   0.68408510
