
                                 *****************
                                 * O   R   C   A *
                                 *****************

           --- An Ab Initio, DFT and Semiempirical electronic structure package ---

                  #######################################################
                  #                        -***-                        #
                  #          Department of theory and spectroscopy      #
                  #               Directorship: Frank Neese             #
                  #        Max Planck Institute fuer Kohlenforschung    #
                  #                Kaiser Wilhelm Platz 1               #
                  #                 D-45470 Muelheim/Ruhr               #
                  #                      Germany                        #
                  #                                                     #
                  #                  All rights reserved                #
                  #                        -***-                        #
                  #######################################################


                         Program Version 4.2.0 -  RELEASE  -


 With contributions from (in alphabetic order):
   Daniel Aravena         : Magnetic Suceptibility
   Michael Atanasov       : Ab Initio Ligand Field Theory (pilot matlab implementation)
   Alexander A. Auer      : GIAO ZORA, VPT2
   Ute Becker             : Parallelization
   Giovanni Bistoni       : ED, misc. LED, open-shell LED, HFLED
   Martin Brehm           : Molecular dynamics
   Dmytro Bykov           : SCF Hessian
   Vijay G. Chilkuri      : MRCI spin determinant printing, contributions to CSF-ICE
   Dipayan Datta          : RHF DLPNO-CCSD density
   Achintya Kumar Dutta   : EOM-CC, STEOM-CC
   Dmitry Ganyushin       : Spin-Orbit,Spin-Spin,Magnetic field MRCI
   Miquel Garcia          : C-PCM Hessian, Gaussian charge scheme
   Yang Guo               : DLPNO-NEVPT2, CIM, IAO-localization
   Andreas Hansen         : Spin unrestricted coupled pair/coupled cluster methods
   Benjamin Helmich-Paris : CASSCF linear response (MC-RPA)
   Lee Huntington         : MR-EOM, pCC
   Robert Izsak           : Overlap fitted RIJCOSX, COSX-SCS-MP3, EOM
   Christian Kollmar      : KDIIS, OOCD, Brueckner-CCSD(T), CCSD density
   Simone Kossmann        : Meta GGA functionals, TD-DFT gradient, OOMP2, MP2 Hessian
   Martin Krupicka        : AUTO-CI
   Lucas Lang             : DCDCAS
   Dagmar Lenk            : GEPOL surface, SMD
   Dimitrios Liakos       : Extrapolation schemes; Compound Job, initial MDCI parallelization
   Dimitrios Manganas     : Further ROCIS development; embedding schemes
   Dimitrios Pantazis     : SARC Basis sets
   Taras Petrenko         : DFT Hessian,TD-DFT gradient, ASA, ECA, R-Raman, ABS, FL, XAS/XES, NRVS
   Peter Pinski           : DLPNO-MP2, DLPNO-MP2 Gradient
   Christoph Reimann      : Effective Core Potentials
   Marius Retegan         : Local ZFS, SOC
   Christoph Riplinger    : Optimizer, TS searches, QM/MM, DLPNO-CCSD(T), (RO)-DLPNO pert. Triples
   Tobias Risthaus        : Range-separated hybrids, TD-DFT gradient, RPA, STAB
   Michael Roemelt        : Original ROCIS implementation
   Masaaki Saitow         : Open-shell DLPNO-CCSD energy and density
   Barbara Sandhoefer     : DKH picture change effects
   Avijit Sen             : IP-ROCIS
   Kantharuban Sivalingam : CASSCF convergence, NEVPT2, FIC-MRCI
   Bernardo de Souza      : ESD, SOC TD-DFT
   Georgi Stoychev        : AutoAux, RI-MP2 NMR
   Willem Van den Heuvel  : Paramagnetic NMR
   Boris Wezisla          : Elementary symmetry handling
   Frank Wennmohs         : Technical directorship


 We gratefully acknowledge several colleagues who have allowed us to
 interface, adapt or use parts of their codes:
   Stefan Grimme, W. Hujo, H. Kruse,             : VdW corrections, initial TS optimization,
                  C. Bannwarth                     DFT functionals, gCP, sTDA/sTD-DF
   Ed Valeev, F. Pavosevic, A. Kumar             : LibInt (2-el integral package), F12 methods
   Garnet Chan, S. Sharma, J. Yang, R. Olivares  : DMRG
   Ulf Ekstrom                                   : XCFun DFT Library
   Mihaly Kallay                                 : mrcc  (arbitrary order and MRCC methods)
   Andreas Klamt, Michael Diedenhofen            : otool_cosmo (COSMO solvation model)
   Jiri Pittner, Ondrej Demel                    : Mk-CCSD
   Frank Weinhold                                : gennbo (NPA and NBO analysis)
   Christopher J. Cramer and Donald G. Truhlar   : smd solvation model
   Lars Goerigk                                  : TD-DFT with DH, B97 family of functionals
   V. Asgeirsson, H. Jonsson                     : NEB implementation
   FAccTs GmbH                                   : IRC, NEB, NEB-TS, Multilevel, MM, QM/MM, CI optimization
   S Lehtola, MJT Oliveira, MAL Marques          : LibXC Library


 Your calculation uses the libint2 library for the computation of 2-el integrals
 For citations please refer to: http://libint.valeyev.net

 Your ORCA version has been built with support for libXC version: 4.2.3
 For citations please refer to: https://tddft.org/programs/libxc/

 This ORCA versions uses:
   CBLAS   interface :  Fast vector & matrix operations
   LAPACKE interface :  Fast linear algebra routines
   SCALAPACK package :  Parallel linear algebra routines


----- Orbital basis set information -----
Your calculation utilizes the basis: def2-TZVP
   F. Weigend and R. Ahlrichs, Phys. Chem. Chem. Phys. 7, 3297 (2005).

================================================================================
                                        WARNINGS
                       Please study these warnings very carefully!
================================================================================


WARNING: The frozen-core approximation for MP2-gradient calculations is turned on by default.

INFO   : the flag for use of LIBINT has been found!

================================================================================
                                       INPUT FILE
================================================================================
NAME = 12h2o.su.etal.mol1,2,4,6,8-orca.engrad-mp2.def2tzvp.frozencore.inp
|  1> # 12h2o.su.etal.mol1,2,4,6,8
|  2> ! MP2 def2-TZVP EnGrad TightSCF
|  3> 
|  4> %pal
|  5>     nprocs 6
|  6> end
|  7> 
|  8> %maxcore 8000
|  9> 
| 10> %scf
| 11>     ConvForced true
| 12> end
| 13> 
| 14> *xyz 0 1
| 15> O  -1.794470000  -0.923410000   2.768350000
| 16> H  -2.338250000  -1.359750000   3.430940000
| 17> H  -0.879480000  -1.303000000   2.865760000
| 18> O   0.923410000  -1.794470000  -2.768350000
| 19> H   1.359750000  -2.338250000  -3.430940000
| 20> H   1.303000000  -0.879480000  -2.865760000
| 21> O  -0.885520000   1.737840000   0.052730000
| 22> H  -1.032320000   2.090180000  -0.841890000
| 23> H  -1.284090000   0.839590000   0.017130000
| 24> O   1.737840000   0.885520000  -0.052730000
| 25> H   2.090180000   1.032320000   0.841890000
| 26> H   0.839590000   1.284090000  -0.017130000
| 27> O   1.752130000   0.741530000  -2.896280000
| 28> H   2.036450000   0.920500000  -1.984040000
| 29> H   0.921210000   1.242140000  -2.984230000
| 30> *
| 31> 
| 32>                          ****END OF INPUT****
================================================================================

                     *******************************
                     * Energy+Gradient Calculation *
                     *******************************

---------------------------------
CARTESIAN COORDINATES (ANGSTROEM)
---------------------------------
  O     -1.794470   -0.923410    2.768350
  H     -2.338250   -1.359750    3.430940
  H     -0.879480   -1.303000    2.865760
  O      0.923410   -1.794470   -2.768350
  H      1.359750   -2.338250   -3.430940
  H      1.303000   -0.879480   -2.865760
  O     -0.885520    1.737840    0.052730
  H     -1.032320    2.090180   -0.841890
  H     -1.284090    0.839590    0.017130
  O      1.737840    0.885520   -0.052730
  H      2.090180    1.032320    0.841890
  H      0.839590    1.284090   -0.017130
  O      1.752130    0.741530   -2.896280
  H      2.036450    0.920500   -1.984040
  H      0.921210    1.242140   -2.984230

----------------------------
CARTESIAN COORDINATES (A.U.)
----------------------------
  NO LB      ZA    FRAG     MASS         X           Y           Z
   0 O     8.0000    0    15.999   -3.391057   -1.744992    5.231423
   1 H     1.0000    0     1.008   -4.418652   -2.569555    6.483537
   2 H     1.0000    0     1.008   -1.661976   -2.462313    5.415502
   3 O     8.0000    0    15.999    1.744992   -3.391057   -5.231423
   4 H     1.0000    0     1.008    2.569555   -4.418652   -6.483537
   5 H     1.0000    0     1.008    2.462313   -1.661976   -5.415502
   6 O     8.0000    0    15.999   -1.673390    3.284042    0.099645
   7 H     1.0000    0     1.008   -1.950802    3.949868   -1.590942
   8 H     1.0000    0     1.008   -2.426578    1.586595    0.032371
   9 O     8.0000    0    15.999    3.284042    1.673390   -0.099645
  10 H     1.0000    0     1.008    3.949868    1.950802    1.590942
  11 H     1.0000    0     1.008    1.586595    2.426578   -0.032371
  12 O     8.0000    0    15.999    3.311046    1.401289   -5.473176
  13 H     1.0000    0     1.008    3.848333    1.739493   -3.749292
  14 H     1.0000    0     1.008    1.740835    2.347304   -5.639377

--------------------------------
INTERNAL COORDINATES (ANGSTROEM)
--------------------------------
 O      0   0   0     0.000000000000     0.00000000     0.00000000
 H      1   0   0     0.961828878803     0.00000000     0.00000000
 H      1   2   0     0.995381322057   106.21731035     0.00000000
 O      3   1   2     5.935920367146   102.58474291   140.89009172
 H      4   3   1     0.961828878803   146.97742434   224.01286022
 H      4   3   1     0.995381322057    97.62005672    87.72090689
 O      1   2   3     3.909352075396   156.75189195   192.19368952
 H      7   1   2     0.972645187106   148.25827701   289.33301105
 H      7   1   2     0.983350632989    46.29716176   266.74328444
 O      7   1   2     2.760360281485    92.13838953   170.70547830
 H     10   7   1     0.972645187106   105.22009255   298.61152741
 H     10   7   1     0.983350632989     5.92595386   222.96568013
 O      6   4   3     1.682356278379   171.61043709   321.17145860
 H     13   6   4     0.972136791249   103.79460456    70.64587838
 H     13   6   4     0.974050112161   105.61118924   321.69395179

---------------------------
INTERNAL COORDINATES (A.U.)
---------------------------
 O      0   0   0     0.000000000000     0.00000000     0.00000000
 H      1   0   0     1.817593168635     0.00000000     0.00000000
 H      1   2   0     1.880998097508   106.21731035     0.00000000
 O      3   1   2    11.217263846671   102.58474291   140.89009172
 H      4   3   1     1.817593168635   146.97742434   224.01286022
 H      4   3   1     1.880998097508    97.62005672    87.72090689
 O      1   2   3     7.387604783574   156.75189195   192.19368952
 H      7   1   2     1.838033029106   148.25827701   289.33301105
 H      7   1   2     1.858263389967    46.29716176   266.74328444
 O      7   1   2     5.216324962960    92.13838953   170.70547830
 H     10   7   1     1.838033029106   105.22009255   298.61152741
 H     10   7   1     1.858263389967     5.92595386   222.96568013
 O      6   4   3     3.179192625819   171.61043709   321.17145860
 H     13   6   4     1.837072300170   103.79460456    70.64587838
 H     13   6   4     1.840687952699   105.61118924   321.69395179

---------------------
BASIS SET INFORMATION
---------------------
There are 2 groups of distinct atoms

 Group   1 Type O   : 11s6p2d1f contracted to 5s3p2d1f pattern {62111/411/11/1}
 Group   2 Type H   : 5s1p contracted to 3s1p pattern {311/1}

Atom   0O    basis set group =>   1
Atom   1H    basis set group =>   2
Atom   2H    basis set group =>   2
Atom   3O    basis set group =>   1
Atom   4H    basis set group =>   2
Atom   5H    basis set group =>   2
Atom   6O    basis set group =>   1
Atom   7H    basis set group =>   2
Atom   8H    basis set group =>   2
Atom   9O    basis set group =>   1
Atom  10H    basis set group =>   2
Atom  11H    basis set group =>   2
Atom  12O    basis set group =>   1
Atom  13H    basis set group =>   2
Atom  14H    basis set group =>   2


           ************************************************************
           *        Program running with 6 parallel MPI-processes     *
           *              working on a common directory               *
           ************************************************************
------------------------------------------------------------------------------
                           ORCA GTO INTEGRAL CALCULATION
------------------------------------------------------------------------------

                         BASIS SET STATISTICS AND STARTUP INFO

 # of primitive gaussian shells          ...  160
 # of primitive gaussian functions       ...  310
 # of contracted shells                  ...   95
 # of contracted basis functions         ...  215
 Highest angular momentum                ...    3
 Maximum contraction depth               ...    6
 Integral package used                   ... LIBINT
 Integral threshhold            Thresh   ...  2.500e-11
 Primitive cut-off              TCut     ...  2.500e-12


------------------------------ INTEGRAL EVALUATION ----------------------------


 * One electron integrals 
 Pre-screening matrix                    ... done
 Shell pair data                         ... done (   0.001 sec)



           ************************************************************
           *        Program running with 6 parallel MPI-processes     *
           *              working on a common directory               *
           ************************************************************
-------------------------------------------------------------------------------
                                 ORCA SCF
-------------------------------------------------------------------------------

------------
SCF SETTINGS
------------
Hamiltonian:
 Ab initio Hamiltonian  Method          .... Hartree-Fock(GTOs)


General Settings:
 Integral files         IntName         .... 12h2o.su.etal.mol1,2,4,6,8-orca.engrad-mp2.def2tzvp.frozencore
 Hartree-Fock type      HFTyp           .... RHF
 Total Charge           Charge          ....    0
 Multiplicity           Mult            ....    1
 Number of Electrons    NEL             ....   50
 Basis Dimension        Dim             ....  215
 Nuclear Repulsion      ENuc            ....    181.0131310614 Eh

Convergence Acceleration:
 DIIS                   CNVDIIS         .... on
   Start iteration      DIISMaxIt       ....    12
   Startup error        DIISStart       ....  0.200000
   # of expansion vecs  DIISMaxEq       ....     5
   Bias factor          DIISBfac        ....   1.050
   Max. coefficient     DIISMaxC        ....  10.000
 Newton-Raphson         CNVNR           .... off
 SOSCF                  CNVSOSCF        .... on
   Start iteration      SOSCFMaxIt      ....   150
   Startup grad/error   SOSCFStart      ....  0.003300
 Level Shifting         CNVShift        .... on
   Level shift para.    LevelShift      ....    0.2500
   Turn off err/grad.   ShiftErr        ....    0.0010
 Zerner damping         CNVZerner       .... off
 Static damping         CNVDamp         .... on
   Fraction old density DampFac         ....    0.7000
   Max. Damping (<1)    DampMax         ....    0.9800
   Min. Damping (>=0)   DampMin         ....    0.0000
   Turn off err/grad.   DampErr         ....    0.1000
 Fernandez-Rico         CNVRico         .... off

SCF Procedure:
 Maximum # iterations   MaxIter         ....   125
 SCF integral mode      SCFMode         .... Direct
   Integral package                     .... LIBINT
 Reset frequency        DirectResetFreq ....    20
 Integral Threshold     Thresh          ....  2.500e-11 Eh
 Primitive CutOff       TCut            ....  2.500e-12 Eh

Convergence Tolerance:
 Convergence Check Mode ConvCheckMode   .... Total+1el-Energy
 Convergence forced     ConvForced      .... 1
 Energy Change          TolE            ....  1.000e-08 Eh
 1-El. energy change                    ....  1.000e-05 Eh
 Orbital Gradient       TolG            ....  1.000e-05
 Orbital Rotation angle TolX            ....  1.000e-05
 DIIS Error             TolErr          ....  5.000e-07


Diagonalization of the overlap matrix:
Smallest eigenvalue                        ... 4.495e-03
Time for diagonalization                   ...    0.008 sec
Threshold for overlap eigenvalues          ... 1.000e-08
Number of eigenvalues below threshold      ... 0
Time for construction of square roots      ...    0.004 sec
Total time needed                          ...    0.012 sec

-------------------
DFT GRID GENERATION
-------------------

General Integration Accuracy     IntAcc      ...  4.340
Radial Grid Type                 RadialGrid  ... Gauss-Chebyshev
Angular Grid (max. acc.)         AngularGrid ... Lebedev-110
Angular grid pruning method      GridPruning ... 3 (G Style)
Weight generation scheme         WeightScheme... Becke
Basis function cutoff            BFCut       ...    1.0000e-11
Integration weight cutoff        WCut        ...    1.0000e-14
Grids for H and He will be reduced by one unit

# of grid points (after initial pruning)     ...  16520 (   0.0 sec)
# of grid points (after weights+screening)   ...  15833 (   0.0 sec)
nearest neighbour list constructed           ...    0.0 sec
Grid point re-assignment to atoms done       ...    0.0 sec
Grid point division into batches done        ...    0.0 sec
Reduced shell lists constructed in    0.0 sec

Total number of grid points                  ...    15833
Total number of batches                      ...      256
Average number of points per batch           ...       61
Average number of grid points per atom       ...     1056
Average number of shells per batch           ...    36.16 (38.06%)
Average number of basis functions per batch  ...    70.16 (32.63%)
Average number of large shells per batch     ...    24.43 (67.57%)
Average number of large basis fcns per batch ...    49.89 (71.10%)
Maximum spatial batch extension              ...  14.53, 20.15, 18.37 au
Average spatial batch extension              ...   0.77,  0.86,  0.82 au

Time for grid setup =    0.043 sec

------------------------------
INITIAL GUESS: MODEL POTENTIAL
------------------------------
Loading Hartree-Fock densities                     ... done
Calculating cut-offs                               ... done
Setting up the integral package                    ... done
Initializing the effective Hamiltonian             ... done
Starting the Coulomb interaction                   ... done (   0.0 sec)
Reading the grid                                   ... done
Mapping shells                                     ... done
Starting the XC term evaluation                    ... done (   0.0 sec)
Transforming the Hamiltonian                       ... done (   0.0 sec)
Diagonalizing the Hamiltonian                      ... done (   0.0 sec)
Back transforming the eigenvectors                 ... done (   0.0 sec)
Now organizing SCF variables                       ... done
                      ------------------
                      INITIAL GUESS DONE (   0.2 sec)
                      ------------------
--------------
SCF ITERATIONS
--------------
ITER       Energy         Delta-E        Max-DP      RMS-DP      [F,P]     Damp
               ***  Starting incremental Fock matrix formation  ***
  0   -379.8404385779   0.000000000000 0.04405443  0.00107484  0.3501004 0.7000
  1   -380.0223892425  -0.181950664599 0.02935498  0.00074229  0.2166533 0.7000
                               ***Turning on DIIS***
  2   -380.1182307248  -0.095841482224 0.01640704  0.00041118  0.1638064 0.7000
  3   -380.9782013993  -0.859970674528 0.00748757  0.00018452  0.1218685 0.7000
  4   -380.8032978885   0.174903510837 0.01658212  0.00042575  0.0862343 0.0000
  5   -380.3388582679   0.464439620589 0.00216090  0.00006883  0.0055530 0.0000
                      *** Initiating the SOSCF procedure ***
                           *** Shutting down DIIS ***
                      *** Re-Reading the Fockian *** 
                      *** Removing any level shift *** 
ITER      Energy       Delta-E        Grad      Rot      Max-DP    RMS-DP
  6   -380.31136195   0.0274963206  0.000844  0.000844  0.001444  0.000042
               *** Restarting incremental Fock matrix formation ***
  7   -380.30263471   0.0087272336  0.000342  0.000488  0.000686  0.000018
  8   -380.30264211  -0.0000073947  0.000183  0.000341  0.000559  0.000015
  9   -380.30264388  -0.0000017711  0.000103  0.000060  0.000109  0.000003
 10   -380.30264403  -0.0000001457  0.000014  0.000010  0.000019  0.000000
                  ***Gradient check signals convergence***
              ***Rediagonalizing the Fockian in SOSCF/NRSCF***

               *****************************************************
               *                     SUCCESS                       *
               *           SCF CONVERGED AFTER  11 CYCLES          *
               *****************************************************


----------------
TOTAL SCF ENERGY
----------------

Total Energy       :         -380.30264403 Eh          -10348.56105 eV

Components:
Nuclear Repulsion  :          181.01313106 Eh            4925.61771 eV
Electronic Energy  :         -561.31577509 Eh          -15274.17876 eV
One Electron Energy:         -885.70171282 Eh          -24101.16889 eV
Two Electron Energy:          324.38593773 Eh            8826.99012 eV

Virial components:
Potential Energy   :         -760.06482214 Eh          -20682.41528 eV
Kinetic Energy     :          379.76217812 Eh           10333.85423 eV
Virial Ratio       :            2.00142317


---------------
SCF CONVERGENCE
---------------

  Last Energy change         ...   -2.9665e-09  Tolerance :   1.0000e-08
  Last MAX-Density change    ...    4.4926e-06  Tolerance :   1.0000e-07
  Last RMS-Density change    ...    1.4644e-07  Tolerance :   5.0000e-09
  Last Orbital Gradient      ...    1.8047e-06  Tolerance :   1.0000e-05
  Last Orbital Rotation      ...    2.5433e-06  Tolerance :   1.0000e-05

             **** THE GBW FILE WAS UPDATED (12h2o.su.etal.mol1,2,4,6,8-orca.engrad-mp2.def2tzvp.frozencore.gbw) ****
             **** DENSITY FILE WAS UPDATED (12h2o.su.etal.mol1,2,4,6,8-orca.engrad-mp2.def2tzvp.frozencore.scfp) ****
             **** ENERGY FILE WAS UPDATED (12h2o.su.etal.mol1,2,4,6,8-orca.engrad-mp2.def2tzvp.frozencore.en.tmp) ****
             **** THE GBW FILE WAS UPDATED (12h2o.su.etal.mol1,2,4,6,8-orca.engrad-mp2.def2tzvp.frozencore.gbw) ****
             **** DENSITY FILE WAS UPDATED (12h2o.su.etal.mol1,2,4,6,8-orca.engrad-mp2.def2tzvp.frozencore.scfp) ****
----------------
ORBITAL ENERGIES
----------------

  NO   OCC          E(Eh)            E(eV) 
   0   2.0000     -20.599193      -560.5325 
   1   2.0000     -20.569165      -559.7154 
   2   2.0000     -20.565768      -559.6230 
   3   2.0000     -20.555360      -559.3398 
   4   2.0000     -20.504178      -557.9470 
   5   2.0000      -1.380190       -37.5569 
   6   2.0000      -1.355778       -36.8926 
   7   2.0000      -1.344442       -36.5841 
   8   2.0000      -1.336159       -36.3587 
   9   2.0000      -1.286360       -35.0036 
  10   2.0000      -0.736902       -20.0521 
  11   2.0000      -0.719797       -19.5867 
  12   2.0000      -0.712854       -19.3977 
  13   2.0000      -0.707931       -19.2638 
  14   2.0000      -0.674948       -18.3663 
  15   2.0000      -0.624345       -16.9893 
  16   2.0000      -0.600597       -16.3431 
  17   2.0000      -0.581287       -15.8176 
  18   2.0000      -0.576190       -15.6789 
  19   2.0000      -0.537978       -14.6391 
  20   2.0000      -0.530552       -14.4370 
  21   2.0000      -0.512396       -13.9430 
  22   2.0000      -0.505344       -13.7511 
  23   2.0000      -0.492576       -13.4037 
  24   2.0000      -0.454709       -12.3733 
  25   0.0000       0.089517         2.4359 
  26   0.0000       0.119097         3.2408 
  27   0.0000       0.153953         4.1893 
  28   0.0000       0.169779         4.6199 
  29   0.0000       0.182264         4.9597 
  30   0.0000       0.198674         5.4062 
  31   0.0000       0.218074         5.9341 
  32   0.0000       0.268230         7.2989 
  33   0.0000       0.320510         8.7215 
  34   0.0000       0.342673         9.3246 
  35   0.0000       0.446342        12.1456 
  36   0.0000       0.470309        12.7978 
  37   0.0000       0.488994        13.3062 
  38   0.0000       0.517626        14.0853 
  39   0.0000       0.532146        14.4804 
  40   0.0000       0.559333        15.2202 
  41   0.0000       0.565234        15.3808 
  42   0.0000       0.571865        15.5612 
  43   0.0000       0.586849        15.9690 
  44   0.0000       0.595585        16.2067 
  45   0.0000       0.601258        16.3610 
  46   0.0000       0.628256        17.0957 
  47   0.0000       0.636165        17.3109 
  48   0.0000       0.649424        17.6717 
  49   0.0000       0.660674        17.9778 
  50   0.0000       0.674743        18.3607 
  51   0.0000       0.692745        18.8506 
  52   0.0000       0.722980        19.6733 
  53   0.0000       0.740006        20.1366 
  54   0.0000       0.753686        20.5088 
  55   0.0000       0.768579        20.9141 
  56   0.0000       0.776653        21.1338 
  57   0.0000       0.791668        21.5424 
  58   0.0000       0.807928        21.9848 
  59   0.0000       0.839589        22.8464 
  60   0.0000       0.852681        23.2026 
  61   0.0000       0.945553        25.7298 
  62   0.0000       1.008232        27.4354 
  63   0.0000       1.026484        27.9321 
  64   0.0000       1.048611        28.5342 
  65   0.0000       1.354873        36.8680 
  66   0.0000       1.386582        37.7308 
  67   0.0000       1.391133        37.8547 
  68   0.0000       1.419303        38.6212 
  69   0.0000       1.424385        38.7595 
  70   0.0000       1.426742        38.8236 
  71   0.0000       1.453956        39.5641 
  72   0.0000       1.480015        40.2732 
  73   0.0000       1.503302        40.9069 
  74   0.0000       1.523126        41.4464 
  75   0.0000       1.547940        42.1216 
  76   0.0000       1.550246        42.1843 
  77   0.0000       1.585398        43.1409 
  78   0.0000       1.606797        43.7232 
  79   0.0000       1.651233        44.9323 
  80   0.0000       1.771282        48.1990 
  81   0.0000       1.797716        48.9184 
  82   0.0000       1.828940        49.7680 
  83   0.0000       1.840389        50.0795 
  84   0.0000       1.865125        50.7526 
  85   0.0000       1.890827        51.4520 
  86   0.0000       1.895713        51.5850 
  87   0.0000       1.946150        52.9574 
  88   0.0000       1.983354        53.9698 
  89   0.0000       1.996503        54.3276 
  90   0.0000       1.999997        54.4227 
  91   0.0000       2.071584        56.3707 
  92   0.0000       2.091342        56.9083 
  93   0.0000       2.141161        58.2639 
  94   0.0000       2.169297        59.0296 
  95   0.0000       2.257723        61.4358 
  96   0.0000       2.280176        62.0467 
  97   0.0000       2.289680        62.3054 
  98   0.0000       2.307416        62.7880 
  99   0.0000       2.318521        63.0902 
 100   0.0000       2.325803        63.2883 
 101   0.0000       2.350270        63.9541 
 102   0.0000       2.362500        64.2869 
 103   0.0000       2.383900        64.8692 
 104   0.0000       2.395497        65.1848 
 105   0.0000       2.416722        65.7623 
 106   0.0000       2.430829        66.1462 
 107   0.0000       2.520363        68.5826 
 108   0.0000       2.534589        68.9697 
 109   0.0000       2.558950        69.6326 
 110   0.0000       2.568633        69.8961 
 111   0.0000       2.580268        70.2127 
 112   0.0000       2.612486        71.0894 
 113   0.0000       2.637546        71.7713 
 114   0.0000       2.639257        71.8178 
 115   0.0000       2.669315        72.6358 
 116   0.0000       2.702765        73.5460 
 117   0.0000       2.704845        73.6026 
 118   0.0000       2.749802        74.8259 
 119   0.0000       2.814134        76.5765 
 120   0.0000       2.888066        78.5883 
 121   0.0000       2.902538        78.9821 
 122   0.0000       2.913043        79.2679 
 123   0.0000       2.926601        79.6369 
 124   0.0000       2.954800        80.4042 
 125   0.0000       2.983833        81.1942 
 126   0.0000       2.998560        81.5950 
 127   0.0000       3.005099        81.7729 
 128   0.0000       3.020926        82.2036 
 129   0.0000       3.038329        82.6771 
 130   0.0000       3.077987        83.7563 
 131   0.0000       3.086132        83.9779 
 132   0.0000       3.120189        84.9047 
 133   0.0000       3.154558        85.8399 
 134   0.0000       3.191084        86.8338 
 135   0.0000       3.250257        88.4440 
 136   0.0000       3.250714        88.4564 
 137   0.0000       3.284502        89.3758 
 138   0.0000       3.422605        93.1338 
 139   0.0000       3.524248        95.8997 
 140   0.0000       3.975251       108.1721 
 141   0.0000       4.003339       108.9364 
 142   0.0000       4.043625       110.0326 
 143   0.0000       4.076684       110.9322 
 144   0.0000       4.131745       112.4305 
 145   0.0000       4.266627       116.1008 
 146   0.0000       4.303695       117.1095 
 147   0.0000       4.310474       117.2940 
 148   0.0000       4.345248       118.2402 
 149   0.0000       4.422831       120.3513 
 150   0.0000       5.508592       149.8964 
 151   0.0000       5.539758       150.7445 
 152   0.0000       5.544576       150.8756 
 153   0.0000       5.550831       151.0458 
 154   0.0000       5.601432       152.4227 
 155   0.0000       5.633834       153.3044 
 156   0.0000       5.634932       153.3343 
 157   0.0000       5.658982       153.9887 
 158   0.0000       5.680458       154.5731 
 159   0.0000       5.698381       155.0608 
 160   0.0000       5.782910       157.3610 
 161   0.0000       5.807166       158.0210 
 162   0.0000       5.808097       158.0464 
 163   0.0000       5.824473       158.4920 
 164   0.0000       5.828171       158.5926 
 165   0.0000       5.842919       158.9939 
 166   0.0000       5.846381       159.0881 
 167   0.0000       5.850767       159.2075 
 168   0.0000       5.863185       159.5454 
 169   0.0000       5.885929       160.1643 
 170   0.0000       5.896376       160.4485 
 171   0.0000       5.899865       160.5435 
 172   0.0000       5.908220       160.7709 
 173   0.0000       5.912028       160.8744 
 174   0.0000       5.982861       162.8019 
 175   0.0000       6.424745       174.8262 
 176   0.0000       6.432397       175.0344 
 177   0.0000       6.469331       176.0394 
 178   0.0000       6.488829       176.5700 
 179   0.0000       6.521432       177.4572 
 180   0.0000       6.650626       180.9727 
 181   0.0000       6.693066       182.1276 
 182   0.0000       6.712819       182.6651 
 183   0.0000       6.731415       183.1711 
 184   0.0000       6.766733       184.1322 
 185   0.0000       6.815772       185.4666 
 186   0.0000       6.828565       185.8147 
 187   0.0000       6.851551       186.4402 
 188   0.0000       6.858780       186.6369 
 189   0.0000       6.883033       187.2968 
 190   0.0000       6.890468       187.4992 
 191   0.0000       6.899694       187.7502 
 192   0.0000       6.913833       188.1350 
 193   0.0000       6.917704       188.2403 
 194   0.0000       6.932048       188.6306 
 195   0.0000       6.965932       189.5527 
 196   0.0000       6.986031       190.0996 
 197   0.0000       7.003005       190.5615 
 198   0.0000       7.008588       190.7134 
 199   0.0000       7.097326       193.1281 
 200   0.0000       7.344578       199.8561 
 201   0.0000       7.368255       200.5004 
 202   0.0000       7.430119       202.1838 
 203   0.0000       7.439776       202.4466 
 204   0.0000       7.477169       203.4641 
 205   0.0000       7.487685       203.7503 
 206   0.0000       7.517728       204.5678 
 207   0.0000       7.542168       205.2328 
 208   0.0000       7.574619       206.1159 
 209   0.0000       7.593026       206.6167 
 210   0.0000      44.813430      1219.4354 
 211   0.0000      44.891477      1221.5592 
 212   0.0000      44.964088      1223.5350 
 213   0.0000      44.976740      1223.8793 
 214   0.0000      44.992212      1224.3003 

                    ********************************
                    * MULLIKEN POPULATION ANALYSIS *
                    ********************************

-----------------------
MULLIKEN ATOMIC CHARGES
-----------------------
   0 O :   -0.705843
   1 H :    0.351197
   2 H :    0.355818
   3 O :   -0.759661
   4 H :    0.328504
   5 H :    0.395311
   6 O :   -0.710454
   7 H :    0.354093
   8 H :    0.388931
   9 O :   -0.752943
  10 H :    0.352199
  11 H :    0.379651
  12 O :   -0.721636
  13 H :    0.407412
  14 H :    0.337422
Sum of atomic charges:   -0.0000000

--------------------------------
MULLIKEN REDUCED ORBITAL CHARGES
--------------------------------
  0 O s       :     3.812463  s :     3.812463
      pz      :     1.723312  p :     4.866521
      px      :     1.348470
      py      :     1.794739
      dz2     :     0.004342  d :     0.025304
      dxz     :     0.004774
      dyz     :     0.005859
      dx2y2   :     0.002548
      dxy     :     0.007781
      f0      :     0.000092  f :     0.001556
      f+1     :     0.000345
      f-1     :     0.000195
      f+2     :     0.000071
      f-2     :     0.000362
      f+3     :     0.000099
      f-3     :     0.000393
  1 H s       :     0.602975  s :     0.602975
      pz      :     0.017188  p :     0.045828
      px      :     0.013576
      py      :     0.015065
  2 H s       :     0.601973  s :     0.601973
      pz      :     0.011335  p :     0.042209
      px      :     0.017753
      py      :     0.013121
  3 O s       :     3.807493  s :     3.807493
      pz      :     1.716722  p :     4.926754
      px      :     1.802959
      py      :     1.407073
      dz2     :     0.004117  d :     0.023941
      dxz     :     0.005634
      dyz     :     0.004782
      dx2y2   :     0.002319
      dxy     :     0.007089
      f0      :     0.000088  f :     0.001472
      f+1     :     0.000185
      f-1     :     0.000329
      f+2     :     0.000070
      f-2     :     0.000360
      f+3     :     0.000352
      f-3     :     0.000089
  4 H s       :     0.625335  s :     0.625335
      pz      :     0.017101  p :     0.046161
      px      :     0.015227
      py      :     0.013834
  5 H s       :     0.547777  s :     0.547777
      pz      :     0.010836  p :     0.056912
      px      :     0.013972
      py      :     0.032104
  6 O s       :     3.808240  s :     3.808240
      pz      :     1.543048  p :     4.874417
      px      :     1.845584
      py      :     1.485785
      dz2     :     0.012290  d :     0.026369
      dxz     :     0.002406
      dyz     :     0.003081
      dx2y2   :     0.003651
      dxy     :     0.004940
      f0      :     0.000168  f :     0.001428
      f+1     :     0.000118
      f-1     :     0.000473
      f+2     :     0.000068
      f-2     :     0.000041
      f+3     :     0.000453
      f-3     :     0.000107
  7 H s       :     0.601788  s :     0.601788
      pz      :     0.018912  p :     0.044119
      px      :     0.013574
      py      :     0.011633
  8 H s       :     0.568990  s :     0.568990
      pz      :     0.009559  p :     0.042080
      px      :     0.013657
      py      :     0.018863
  9 O s       :     3.807816  s :     3.807816
      pz      :     1.536857  p :     4.920644
      px      :     1.502041
      py      :     1.881746
      dz2     :     0.010117  d :     0.023021
      dxz     :     0.002503
      dyz     :     0.002373
      dx2y2   :     0.002838
      dxy     :     0.005191
      f0      :     0.000209  f :     0.001462
      f+1     :     0.000436
      f-1     :     0.000126
      f+2     :     0.000079
      f-2     :     0.000038
      f+3     :     0.000119
      f-3     :     0.000455
 10 H s       :     0.602742  s :     0.602742
      pz      :     0.018516  p :     0.045059
      px      :     0.012346
      py      :     0.014196
 11 H s       :     0.566583  s :     0.566583
      pz      :     0.009138  p :     0.053766
      px      :     0.028825
      py      :     0.015804
 12 O s       :     3.797469  s :     3.797469
      pz      :     1.581705  p :     4.897681
      px      :     1.531613
      py      :     1.784363
      dz2     :     0.011795  d :     0.025077
      dxz     :     0.001155
      dyz     :     0.002434
      dx2y2   :     0.002512
      dxy     :     0.007181
      f0      :     0.000225  f :     0.001408
      f+1     :     0.000382
      f-1     :     0.000158
      f+2     :     0.000051
      f-2     :     0.000056
      f+3     :     0.000055
      f-3     :     0.000481
 13 H s       :     0.544831  s :     0.544831
      pz      :     0.025164  p :     0.047757
      px      :     0.010948
      py      :     0.011645
 14 H s       :     0.618345  s :     0.618345
      pz      :     0.010897  p :     0.044233
      px      :     0.018100
      py      :     0.015235


                     *******************************
                     * LOEWDIN POPULATION ANALYSIS *
                     *******************************

----------------------
LOEWDIN ATOMIC CHARGES
----------------------
   0 O :   -0.340276
   1 H :    0.159231
   2 H :    0.182530
   3 O :   -0.374919
   4 H :    0.145533
   5 H :    0.152017
   6 O :   -0.295915
   7 H :    0.167087
   8 H :    0.189139
   9 O :   -0.344469
  10 H :    0.165903
  11 H :    0.152105
  12 O :   -0.286248
  13 H :    0.166423
  14 H :    0.161860

-------------------------------
LOEWDIN REDUCED ORBITAL CHARGES
-------------------------------
  0 O s       :     3.475250  s :     3.475250
      pz      :     1.707617  p :     4.830460
      px      :     1.350166
      py      :     1.772678
      dz2     :     0.004986  d :     0.032428
      dxz     :     0.007145
      dyz     :     0.005894
      dx2y2   :     0.004032
      dxy     :     0.010372
      f0      :     0.000078  f :     0.002138
      f+1     :     0.000465
      f-1     :     0.000278
      f+2     :     0.000036
      f-2     :     0.000622
      f+3     :     0.000094
      f-3     :     0.000565
  1 H s       :     0.677988  s :     0.677988
      pz      :     0.066080  p :     0.162781
      px      :     0.043935
      py      :     0.052766
  2 H s       :     0.670167  s :     0.670167
      pz      :     0.033433  p :     0.147303
      px      :     0.070257
      py      :     0.043612
  3 O s       :     3.468290  s :     3.468290
      pz      :     1.704160  p :     4.874713
      px      :     1.779764
      py      :     1.390789
      dz2     :     0.004336  d :     0.029896
      dxz     :     0.005884
      dyz     :     0.007321
      dx2y2   :     0.003323
      dxy     :     0.009032
      f0      :     0.000074  f :     0.002019
      f+1     :     0.000268
      f-1     :     0.000441
      f+2     :     0.000034
      f-2     :     0.000637
      f+3     :     0.000480
      f-3     :     0.000085
  4 H s       :     0.690162  s :     0.690162
      pz      :     0.065554  p :     0.164305
      px      :     0.053292
      py      :     0.045459
  5 H s       :     0.653923  s :     0.653923
      pz      :     0.033595  p :     0.194060
      px      :     0.047523
      py      :     0.112942
  6 O s       :     3.469707  s :     3.469707
      pz      :     1.542866  p :     4.790830
      px      :     1.785614
      py      :     1.462350
      dz2     :     0.015960  d :     0.033281
      dxz     :     0.001510
      dyz     :     0.004344
      dx2y2   :     0.005242
      dxy     :     0.006225
      f0      :     0.000372  f :     0.002098
      f+1     :     0.000211
      f-1     :     0.000756
      f+2     :     0.000042
      f-2     :     0.000046
      f+3     :     0.000598
      f-3     :     0.000071
  7 H s       :     0.674336  s :     0.674336
      pz      :     0.079746  p :     0.158577
      px      :     0.043164
      py      :     0.035667
  8 H s       :     0.656742  s :     0.656742
      pz      :     0.028764  p :     0.154119
      px      :     0.049052
      py      :     0.076304
  9 O s       :     3.462899  s :     3.462899
      pz      :     1.525380  p :     4.849621
      px      :     1.483404
      py      :     1.840836
      dz2     :     0.014365  d :     0.029912
      dxz     :     0.004086
      dyz     :     0.001665
      dx2y2   :     0.003666
      dxy     :     0.006129
      f0      :     0.000405  f :     0.002038
      f+1     :     0.000732
      f-1     :     0.000189
      f+2     :     0.000047
      f-2     :     0.000045
      f+3     :     0.000065
      f-3     :     0.000554
 10 H s       :     0.675510  s :     0.675510
      pz      :     0.078828  p :     0.158587
      px      :     0.036525
      py      :     0.043235
 11 H s       :     0.662497  s :     0.662497
      pz      :     0.029071  p :     0.185398
      px      :     0.103737
      py      :     0.052590
 12 O s       :     3.454373  s :     3.454373
      pz      :     1.548602  p :     4.797396
      px      :     1.522680
      py      :     1.726114
      dz2     :     0.015229  d :     0.032340
      dxz     :     0.001659
      dyz     :     0.001844
      dx2y2   :     0.003854
      dxy     :     0.009754
      f0      :     0.000396  f :     0.002139
      f+1     :     0.000564
      f-1     :     0.000337
      f+2     :     0.000021
      f-2     :     0.000045
      f+3     :     0.000027
      f-3     :     0.000748
 13 H s       :     0.661288  s :     0.661288
      pz      :     0.095546  p :     0.172290
      px      :     0.035623
      py      :     0.041120
 14 H s       :     0.680344  s :     0.680344
      pz      :     0.031607  p :     0.157796
      px      :     0.071210
      py      :     0.054979


                      *****************************
                      * MAYER POPULATION ANALYSIS *
                      *****************************

  NA   - Mulliken gross atomic population
  ZA   - Total nuclear charge
  QA   - Mulliken gross atomic charge
  VA   - Mayer's total valence
  BVA  - Mayer's bonded valence
  FA   - Mayer's free valence

  ATOM       NA         ZA         QA         VA         BVA        FA
  0 O      8.7058     8.0000    -0.7058     1.7690     1.7690    -0.0000
  1 H      0.6488     1.0000     0.3512     0.8917     0.8917    -0.0000
  2 H      0.6442     1.0000     0.3558     0.8859     0.8859    -0.0000
  3 O      8.7597     8.0000    -0.7597     1.6956     1.6956    -0.0000
  4 H      0.6715     1.0000     0.3285     0.9075     0.9075    -0.0000
  5 H      0.6047     1.0000     0.3953     0.8798     0.8798     0.0000
  6 O      8.7105     8.0000    -0.7105     1.7791     1.7791     0.0000
  7 H      0.6459     1.0000     0.3541     0.8890     0.8890     0.0000
  8 H      0.6111     1.0000     0.3889     0.8629     0.8629     0.0000
  9 O      8.7529     8.0000    -0.7529     1.7110     1.7110     0.0000
 10 H      0.6478     1.0000     0.3522     0.8929     0.8929     0.0000
 11 H      0.6203     1.0000     0.3797     0.8936     0.8936    -0.0000
 12 O      8.7216     8.0000    -0.7216     1.7562     1.7562    -0.0000
 13 H      0.5926     1.0000     0.4074     0.8636     0.8636     0.0000
 14 H      0.6626     1.0000     0.3374     0.9029     0.9029    -0.0000

  Mayer bond orders larger than 0.100000
B(  0-O ,  1-H ) :   0.8863 B(  0-O ,  2-H ) :   0.8802 B(  3-O ,  4-H ) :   0.9019 
B(  3-O ,  5-H ) :   0.8146 B(  6-O ,  7-H ) :   0.8815 B(  6-O ,  8-H ) :   0.8543 
B(  9-O , 10-H ) :   0.8855 B(  9-O , 11-H ) :   0.8207 B( 12-O , 13-H ) :   0.8245 
B( 12-O , 14-H ) :   0.8931 

-------
TIMINGS
-------

Total SCF time: 0 days 0 hours 0 min 6 sec 

Total time                  ....       6.681 sec
Sum of individual times     ....       6.459 sec  ( 96.7%)

Fock matrix formation       ....       6.181 sec  ( 92.5%)
Diagonalization             ....       0.051 sec  (  0.8%)
Density matrix formation    ....       0.007 sec  (  0.1%)
Population analysis         ....       0.016 sec  (  0.2%)
Initial guess               ....       0.123 sec  (  1.8%)
Orbital Transformation      ....       0.000 sec  (  0.0%)
Orbital Orthonormalization  ....       0.000 sec  (  0.0%)
DIIS solution               ....       0.018 sec  (  0.3%)
SOSCF solution              ....       0.020 sec  (  0.3%)


           ************************************************************
           *        Program running with 6 parallel MPI-processes     *
           *              working on a common directory               *
           ************************************************************

------------------------------------------------------------------------------
                                ORCA  MP2 
------------------------------------------------------------------------------

Freezing NCore=10 chemical core electrons
MP2 will be done in the AO integral direct mode
The Q1-step will be done using symmetric double matrices
Dimension of the basis                    ...  215
Memory devoted for MP2                    ... 8000 MB   
Memory needed for all in one shot         ...  153 MB
Number of MOs that can be treated together...  209      
MP2 density construction                  ... relaxed
The MP2 gradient is requested => amplitudes will be stored on disk
Total number of MOs              ...   20
Number of MOs treated per batch  ...    4 
Number of batches necessary      ...    1 
OPERATORS   0/  0 PASS   0
-----------------------------------------------
 MP2 CORRELATION ENERGY   :     -1.288003262 Eh
-----------------------------------------------


---------------------
MP2 DENSITY FORMATION
---------------------

Completing the external part of the density      ... done
Storing the unrelaxed density                    ... done

Calculating G(D)                                 ... done
Completing the Lagrangian                        ... done
Solving the Z-vector equations                   ... 

------------------------------------------------------------------------------
                           ORCA CP-SCF CALCULATION
------------------------------------------------------------------------------

Input orbitals are from        ... 12h2o.su.etal.mol1,2,4,6,8-orca.engrad-mp2.def2tzvp.frozencore.gbw
Input Perturbation             ... 12h2o.su.etal.mol1,2,4,6,8-orca.engrad-mp2.def2tzvp.frozencore.pin.tmp
Wavefunction output            ... 12h2o.su.etal.mol1,2,4,6,8-orca.engrad-mp2.def2tzvp.frozencore.pout.tmp
Perturbation mode              ... Real perturbation (singlet)
Solver                         ... POPLE
Max. number of iterations      ... 128
Convergence tolerance          ... 1.000e-08
Integral handling              ... Direct
Number of perturbations        ... 1
Number of operators            ... 1
Orbital ranges used for CP-SCF:
 Operator 0:  Orbitals   0... 24  to  25...214
Variables per vector in CP-SCF ... 4750
Number of vectors sought       ... 1
     CP-SCF ITERATION   0: 
     CP-SCF ITERATION   1:      0.000595250150
     CP-SCF ITERATION   2:      0.000014080815
     CP-SCF ITERATION   3:      0.000000687756
     CP-SCF ITERATION   4:      0.000000057902
     CP-SCF ITERATION   5:      0.000000004425
                                                 ... done
Finalizing the relaxed density                   ... done
Transforming P to the AO basis                   ... done
Storing the relaxed density                      ... done

------------------------------------
ENERGY WEIGHTED DENSITY FINALIZATION
------------------------------------

Gathering the parts of the W-matrix              ...                                                      done
Forming the Z-density                            ... done
Transforming Z to the AO basis                   ... done
Calculating G(Z)                                 ... done
Finalizing the W-matrix                          ...                                                      done
Transforming W to the AO basis and storing       ... done

                *********************************************
                * UNRELAXED MP2 DENSITY POPULATION ANALYSIS *
                *********************************************

------------------------------------------------------------------------------
                           ORCA POPULATION ANALYSIS
------------------------------------------------------------------------------
Input electron density              ... 12h2o.su.etal.mol1,2,4,6,8-orca.engrad-mp2.def2tzvp.frozencore.pmp2ur
BaseName (.gbw .S,...)              ... 12h2o.su.etal.mol1,2,4,6,8-orca.engrad-mp2.def2tzvp.frozencore

                    ********************************
                    * MULLIKEN POPULATION ANALYSIS *
                    ********************************

-----------------------
MULLIKEN ATOMIC CHARGES
-----------------------
   0 O :   -0.701102
   1 H :    0.349073
   2 H :    0.353228
   3 O :   -0.754280
   4 H :    0.326237
   5 H :    0.390934
   6 O :   -0.704178
   7 H :    0.351637
   8 H :    0.386331
   9 O :   -0.747156
  10 H :    0.349887
  11 H :    0.375326
  12 O :   -0.715182
  13 H :    0.404370
  14 H :    0.334873
Sum of atomic charges:   -0.0000000

--------------------------------
MULLIKEN REDUCED ORBITAL CHARGES
--------------------------------
  0 O s       :     3.807673  s :     3.807673
      pz      :     1.712885  p :     4.837667
      px      :     1.341147
      py      :     1.783634
      dz2     :     0.009691  d :     0.051670
      dxz     :     0.010016
      dyz     :     0.011143
      dx2y2   :     0.007857
      dxy     :     0.012963
      f0      :     0.000458  f :     0.004093
      f+1     :     0.000703
      f-1     :     0.000557
      f+2     :     0.000436
      f-2     :     0.000724
      f+3     :     0.000465
      f-3     :     0.000749
  1 H s       :     0.603480  s :     0.603480
      pz      :     0.017682  p :     0.047446
      px      :     0.013971
      py      :     0.015793
  2 H s       :     0.602967  s :     0.602967
      pz      :     0.012189  p :     0.043805
      px      :     0.017714
      py      :     0.013902
  3 O s       :     3.802556  s :     3.802556
      pz      :     1.706337  p :     4.896749
      px      :     1.791732
      py      :     1.398680
      dz2     :     0.009583  d :     0.050936
      dxz     :     0.010958
      dyz     :     0.010144
      dx2y2   :     0.007816
      dxy     :     0.012436
      f0      :     0.000456  f :     0.004038
      f+1     :     0.000548
      f-1     :     0.000693
      f+2     :     0.000438
      f-2     :     0.000725
      f+3     :     0.000717
      f-3     :     0.000462
  4 H s       :     0.625850  s :     0.625850
      pz      :     0.017625  p :     0.047913
      px      :     0.015981
      py      :     0.014307
  5 H s       :     0.550475  s :     0.550475
      pz      :     0.011676  p :     0.058591
      px      :     0.014705
      py      :     0.032210
  6 O s       :     3.803120  s :     3.803120
      pz      :     1.533709  p :     4.843822
      px      :     1.832963
      py      :     1.477150
      dz2     :     0.017334  d :     0.053237
      dxz     :     0.007962
      dyz     :     0.008356
      dx2y2   :     0.009178
      dxy     :     0.010407
      f0      :     0.000550  f :     0.003999
      f+1     :     0.000491
      f-1     :     0.000835
      f+2     :     0.000431
      f-2     :     0.000406
      f+3     :     0.000809
      f-3     :     0.000476
  7 H s       :     0.602625  s :     0.602625
      pz      :     0.019069  p :     0.045738
      px      :     0.014428
      py      :     0.012241
  8 H s       :     0.570099  s :     0.570099
      pz      :     0.010345  p :     0.043570
      px      :     0.014347
      py      :     0.018878
  9 O s       :     3.802815  s :     3.802815
      pz      :     1.527470  p :     4.889974
      px      :     1.492717
      py      :     1.869787
      dz2     :     0.015432  d :     0.050330
      dxz     :     0.007940
      dyz     :     0.007967
      dx2y2   :     0.008374
      dxy     :     0.010617
      f0      :     0.000590  f :     0.004036
      f+1     :     0.000803
      f-1     :     0.000497
      f+2     :     0.000442
      f-2     :     0.000405
      f+3     :     0.000487
      f-3     :     0.000812
 10 H s       :     0.603424  s :     0.603424
      pz      :     0.018656  p :     0.046689
      px      :     0.012972
      py      :     0.015061
 11 H s       :     0.569258  s :     0.569258
      pz      :     0.009931  p :     0.055415
      px      :     0.028961
      py      :     0.016523
 12 O s       :     3.792307  s :     3.792307
      pz      :     1.571974  p :     4.866522
      px      :     1.522413
      py      :     1.772135
      dz2     :     0.017017  d :     0.052349
      dxz     :     0.006599
      dyz     :     0.008043
      dx2y2   :     0.008143
      dxy     :     0.012547
      f0      :     0.000610  f :     0.004003
      f+1     :     0.000751
      f-1     :     0.000537
      f+2     :     0.000414
      f-2     :     0.000423
      f+3     :     0.000429
      f-3     :     0.000839
 13 H s       :     0.546458  s :     0.546458
      pz      :     0.025188  p :     0.049172
      px      :     0.011564
      py      :     0.012421
 14 H s       :     0.619226  s :     0.619226
      pz      :     0.011712  p :     0.045901
      px      :     0.018300
      py      :     0.015889


                     *******************************
                     * LOEWDIN POPULATION ANALYSIS *
                     *******************************

----------------------
LOEWDIN ATOMIC CHARGES
----------------------
   0 O :   -0.337513
   1 H :    0.158149
   2 H :    0.180925
   3 O :   -0.372609
   4 H :    0.144222
   5 H :    0.149534
   6 O :   -0.291501
   7 H :    0.165644
   8 H :    0.187647
   9 O :   -0.341285
  10 H :    0.164490
  11 H :    0.149569
  12 O :   -0.282062
  13 H :    0.164561
  14 H :    0.160230

-------------------------------
LOEWDIN REDUCED ORBITAL CHARGES
-------------------------------
  0 O s       :     3.471495  s :     3.471495
      pz      :     1.697223  p :     4.801330
      px      :     1.342312
      py      :     1.761795
      dz2     :     0.010416  d :     0.059822
      dxz     :     0.012601
      dyz     :     0.011455
      dx2y2   :     0.009453
      dxy     :     0.015898
      f0      :     0.000454  f :     0.004866
      f+1     :     0.000871
      f-1     :     0.000659
      f+2     :     0.000408
      f-2     :     0.001027
      f+3     :     0.000475
      f-3     :     0.000973
  1 H s       :     0.676001  s :     0.676001
      pz      :     0.067312  p :     0.165851
      px      :     0.044774
      py      :     0.053765
  2 H s       :     0.668610  s :     0.668610
      pz      :     0.034268  p :     0.150465
      px      :     0.071583
      py      :     0.044614
  3 O s       :     3.464645  s :     3.464645
      pz      :     1.693796  p :     4.845222
      px      :     1.768894
      py      :     1.382532
      dz2     :     0.009878  d :     0.057961
      dxz     :     0.011531
      dyz     :     0.012904
      dx2y2   :     0.008920
      dxy     :     0.014729
      f0      :     0.000452  f :     0.004781
      f+1     :     0.000650
      f-1     :     0.000853
      f+2     :     0.000410
      f-2     :     0.001046
      f+3     :     0.000898
      f-3     :     0.000472
  4 H s       :     0.688102  s :     0.688102
      pz      :     0.066891  p :     0.167677
      px      :     0.054335
      py      :     0.046451
  5 H s       :     0.653930  s :     0.653930
      pz      :     0.034438  p :     0.196536
      px      :     0.048398
      py      :     0.113700
  6 O s       :     3.465796  s :     3.465796
      pz      :     1.533199  p :     4.759655
      px      :     1.772965
      py      :     1.453491
      dz2     :     0.021661  d :     0.061188
      dxz     :     0.006988
      dyz     :     0.009644
      dx2y2   :     0.010931
      dxy     :     0.011964
      f0      :     0.000784  f :     0.004862
      f+1     :     0.000600
      f-1     :     0.001188
      f+2     :     0.000413
      f-2     :     0.000417
      f+3     :     0.001009
      f-3     :     0.000451
  7 H s       :     0.672613  s :     0.672613
      pz      :     0.081360  p :     0.161744
      px      :     0.043958
      py      :     0.036425
  8 H s       :     0.655373  s :     0.655373
      pz      :     0.029529  p :     0.156980
      px      :     0.049925
      py      :     0.077526
  9 O s       :     3.459173  s :     3.459173
      pz      :     1.515248  p :     4.818974
      px      :     1.474275
      py      :     1.829452
      dz2     :     0.020301  d :     0.058331
      dxz     :     0.009545
      dyz     :     0.007196
      dx2y2   :     0.009389
      dxy     :     0.011899
      f0      :     0.000818  f :     0.004808
      f+1     :     0.001169
      f-1     :     0.000577
      f+2     :     0.000417
      f-2     :     0.000417
      f+3     :     0.000443
      f-3     :     0.000966
 10 H s       :     0.673741  s :     0.673741
      pz      :     0.080411  p :     0.161769
      px      :     0.037329
      py      :     0.044030
 11 H s       :     0.662282  s :     0.662282
      pz      :     0.029882  p :     0.188148
      px      :     0.104803
      py      :     0.053463
 12 O s       :     3.450552  s :     3.450552
      pz      :     1.538945  p :     4.765926
      px      :     1.513199
      py      :     1.713781
      dz2     :     0.021112  d :     0.060653
      dxz     :     0.007054
      dyz     :     0.007382
      dx2y2   :     0.009465
      dxy     :     0.015640
      f0      :     0.000822  f :     0.004932
      f+1     :     0.000987
      f-1     :     0.000739
      f+2     :     0.000389
      f-2     :     0.000420
      f+3     :     0.000407
      f-3     :     0.001168
 13 H s       :     0.660524  s :     0.660524
      pz      :     0.096698  p :     0.174916
      px      :     0.036321
      py      :     0.041897
 14 H s       :     0.678640  s :     0.678640
      pz      :     0.032394  p :     0.161130
      px      :     0.072661
      py      :     0.056074


                      *****************************
                      * MAYER POPULATION ANALYSIS *
                      *****************************

  NA   - Mulliken gross atomic population
  ZA   - Total nuclear charge
  QA   - Mulliken gross atomic charge
  VA   - Mayer's total valence
  BVA  - Mayer's bonded valence
  FA   - Mayer's free valence

  ATOM       NA         ZA         QA         VA         BVA        FA
  0 O      8.7011     8.0000    -0.7011     2.0740     1.6873     0.3867
  1 H      0.6509     1.0000     0.3491     0.8974     0.8516     0.0458
  2 H      0.6468     1.0000     0.3532     0.8919     0.8436     0.0482
  3 O      8.7543     8.0000    -0.7543     2.0084     1.6171     0.3913
  4 H      0.6738     1.0000     0.3262     0.9136     0.8653     0.0483
  5 H      0.6091     1.0000     0.3909     0.8871     0.8416     0.0455
  6 O      8.7042     8.0000    -0.7042     2.0862     1.6978     0.3884
  7 H      0.6484     1.0000     0.3516     0.8950     0.8477     0.0472
  8 H      0.6137     1.0000     0.3863     0.8686     0.8235     0.0451
  9 O      8.7472     8.0000    -0.7472     2.0235     1.6319     0.3917
 10 H      0.6501     1.0000     0.3499     0.8986     0.8515     0.0471
 11 H      0.6247     1.0000     0.3753     0.9012     0.8544     0.0469
 12 O      8.7152     8.0000    -0.7152     2.0643     1.6767     0.3876
 13 H      0.5956     1.0000     0.4044     0.8695     0.8268     0.0427
 14 H      0.6651     1.0000     0.3349     0.9092     0.8604     0.0488

  Mayer bond orders larger than 0.100000
B(  0-O ,  1-H ) :   0.8466 B(  0-O ,  2-H ) :   0.8383 B(  3-O ,  4-H ) :   0.8602 
B(  3-O ,  5-H ) :   0.7781 B(  6-O ,  7-H ) :   0.8407 B(  6-O ,  8-H ) :   0.8154 
B(  9-O , 10-H ) :   0.8448 B(  9-O , 11-H ) :   0.7834 B( 12-O , 13-H ) :   0.7889 
B( 12-O , 14-H ) :   0.8512 


                *******************************************
                * RELAXED MP2 DENSITY POPULATION ANALYSIS *
                *******************************************

------------------------------------------------------------------------------
                           ORCA POPULATION ANALYSIS
------------------------------------------------------------------------------
Input electron density              ... 12h2o.su.etal.mol1,2,4,6,8-orca.engrad-mp2.def2tzvp.frozencore.pmp2re
BaseName (.gbw .S,...)              ... 12h2o.su.etal.mol1,2,4,6,8-orca.engrad-mp2.def2tzvp.frozencore

                    ********************************
                    * MULLIKEN POPULATION ANALYSIS *
                    ********************************

-----------------------
MULLIKEN ATOMIC CHARGES
-----------------------
   0 O :   -0.688069
   1 H :    0.342716
   2 H :    0.347234
   3 O :   -0.736261
   4 H :    0.320351
   5 H :    0.368617
   6 O :   -0.680771
   7 H :    0.346117
   8 H :    0.378991
   9 O :   -0.724048
  10 H :    0.342387
  11 H :    0.353512
  12 O :   -0.688884
  13 H :    0.389442
  14 H :    0.328666
Sum of atomic charges:   -0.0000000

--------------------------------
MULLIKEN REDUCED ORBITAL CHARGES
--------------------------------
  0 O s       :     3.812305  s :     3.812305
      pz      :     1.706818  p :     4.822386
      px      :     1.337860
      py      :     1.777708
      dz2     :     0.009394  d :     0.049358
      dxz     :     0.009433
      dyz     :     0.010852
      dx2y2   :     0.007594
      dxy     :     0.012085
      f0      :     0.000456  f :     0.004020
      f+1     :     0.000684
      f-1     :     0.000549
      f+2     :     0.000436
      f-2     :     0.000703
      f+3     :     0.000464
      f-3     :     0.000728
  1 H s       :     0.609137  s :     0.609137
      pz      :     0.017798  p :     0.048147
      px      :     0.013908
      py      :     0.016441
  2 H s       :     0.608314  s :     0.608314
      pz      :     0.013081  p :     0.044451
      px      :     0.016724
      py      :     0.014646
  3 O s       :     3.803019  s :     3.803019
      pz      :     1.701414  p :     4.880228
      px      :     1.786695
      py      :     1.392119
      dz2     :     0.009381  d :     0.049040
      dxz     :     0.010657
      dyz     :     0.009574
      dx2y2   :     0.007692
      dxy     :     0.011736
      f0      :     0.000454  f :     0.003974
      f+1     :     0.000540
      f-1     :     0.000676
      f+2     :     0.000438
      f-2     :     0.000706
      f+3     :     0.000700
      f-3     :     0.000460
  4 H s       :     0.630917  s :     0.630917
      pz      :     0.017784  p :     0.048732
      px      :     0.016642
      py      :     0.014306
  5 H s       :     0.572575  s :     0.572575
      pz      :     0.012456  p :     0.058808
      px      :     0.015221
      py      :     0.031131
  6 O s       :     3.806366  s :     3.806366
      pz      :     1.528353  p :     4.819399
      px      :     1.817686
      py      :     1.473360
      dz2     :     0.016083  d :     0.051082
      dxz     :     0.008029
      dyz     :     0.008096
      dx2y2   :     0.008903
      dxy     :     0.009971
      f0      :     0.000535  f :     0.003924
      f+1     :     0.000485
      f-1     :     0.000807
      f+2     :     0.000431
      f-2     :     0.000404
      f+3     :     0.000788
      f-3     :     0.000474
  7 H s       :     0.607442  s :     0.607442
      pz      :     0.018414  p :     0.046441
      px      :     0.015406
      py      :     0.012621
  8 H s       :     0.576928  s :     0.576928
      pz      :     0.011022  p :     0.044081
      px      :     0.014972
      py      :     0.018086
  9 O s       :     3.804742  s :     3.804742
      pz      :     1.516567  p :     4.867040
      px      :     1.486639
      py      :     1.863834
      dz2     :     0.014294  d :     0.048298
      dxz     :     0.007656
      dyz     :     0.007978
      dx2y2   :     0.008188
      dxy     :     0.010182
      f0      :     0.000578  f :     0.003968
      f+1     :     0.000774
      f-1     :     0.000491
      f+2     :     0.000442
      f-2     :     0.000403
      f+3     :     0.000485
      f-3     :     0.000794
 10 H s       :     0.610204  s :     0.610204
      pz      :     0.017924  p :     0.047409
      px      :     0.013440
      py      :     0.016045
 11 H s       :     0.590598  s :     0.590598
      pz      :     0.010629  p :     0.055890
      px      :     0.028135
      py      :     0.017126
 12 O s       :     3.792651  s :     3.792651
      pz      :     1.569286  p :     4.841918
      px      :     1.515754
      py      :     1.756878
      dz2     :     0.015851  d :     0.050386
      dxz     :     0.006574
      dyz     :     0.008034
      dx2y2   :     0.008097
      dxy     :     0.011830
      f0      :     0.000594  f :     0.003929
      f+1     :     0.000729
      f-1     :     0.000527
      f+2     :     0.000415
      f-2     :     0.000422
      f+3     :     0.000429
      f-3     :     0.000814
 13 H s       :     0.561032  s :     0.561032
      pz      :     0.024376  p :     0.049527
      px      :     0.011981
      py      :     0.013170
 14 H s       :     0.624640  s :     0.624640
      pz      :     0.012475  p :     0.046695
      px      :     0.017738
      py      :     0.016482


                     *******************************
                     * LOEWDIN POPULATION ANALYSIS *
                     *******************************

----------------------
LOEWDIN ATOMIC CHARGES
----------------------
   0 O :   -0.340708
   1 H :    0.159890
   2 H :    0.182752
   3 O :   -0.375143
   4 H :    0.146037
   5 H :    0.142283
   6 O :   -0.286253
   7 H :    0.167536
   8 H :    0.188714
   9 O :   -0.340384
  10 H :    0.166108
  11 H :    0.142808
  12 O :   -0.276212
  13 H :    0.160689
  14 H :    0.161884

-------------------------------
LOEWDIN REDUCED ORBITAL CHARGES
-------------------------------
  0 O s       :     3.473474  s :     3.473474
      pz      :     1.696431  p :     4.803916
      px      :     1.347415
      py      :     1.760070
      dz2     :     0.010225  d :     0.058433
      dxz     :     0.012206
      dyz     :     0.011389
      dx2y2   :     0.009212
      dxy     :     0.015401
      f0      :     0.000456  f :     0.004886
      f+1     :     0.000878
      f-1     :     0.000659
      f+2     :     0.000408
      f-2     :     0.001027
      f+3     :     0.000477
      f-3     :     0.000980
  1 H s       :     0.674288  s :     0.674288
      pz      :     0.067407  p :     0.165822
      px      :     0.044001
      py      :     0.054414
  2 H s       :     0.666670  s :     0.666670
      pz      :     0.035025  p :     0.150579
      px      :     0.070154
      py      :     0.045401
  3 O s       :     3.466276  s :     3.466276
      pz      :     1.693448  p :     4.846904
      px      :     1.767487
      py      :     1.385969
      dz2     :     0.009829  d :     0.057145
      dxz     :     0.011437
      dyz     :     0.012525
      dx2y2   :     0.008898
      dxy     :     0.014455
      f0      :     0.000455  f :     0.004818
      f+1     :     0.000650
      f-1     :     0.000866
      f+2     :     0.000411
      f-2     :     0.001046
      f+3     :     0.000914
      f-3     :     0.000476
  4 H s       :     0.685907  s :     0.685907
      pz      :     0.067054  p :     0.168056
      px      :     0.054947
      py      :     0.046056
  5 H s       :     0.661022  s :     0.661022
      pz      :     0.035174  p :     0.196695
      px      :     0.048957
      py      :     0.112564
  6 O s       :     3.467568  s :     3.467568
      pz      :     1.534601  p :     4.753736
      px      :     1.762547
      py      :     1.456588
      dz2     :     0.020995  d :     0.060072
      dxz     :     0.007070
      dyz     :     0.009394
      dx2y2   :     0.010821
      dxy     :     0.011792
      f0      :     0.000780  f :     0.004877
      f+1     :     0.000601
      f-1     :     0.001195
      f+2     :     0.000415
      f-2     :     0.000415
      f+3     :     0.001017
      f-3     :     0.000453
  7 H s       :     0.670594  s :     0.670594
      pz      :     0.080781  p :     0.161870
      px      :     0.044752
      py      :     0.036337
  8 H s       :     0.654638  s :     0.654638
      pz      :     0.029944  p :     0.156648
      px      :     0.050416
      py      :     0.076289
  9 O s       :     3.460436  s :     3.460436
      pz      :     1.513879  p :     4.817568
      px      :     1.476559
      py      :     1.827129
      dz2     :     0.019831  d :     0.057538
      dxz     :     0.009324
      dyz     :     0.007250
      dx2y2   :     0.009353
      dxy     :     0.011781
      f0      :     0.000820  f :     0.004842
      f+1     :     0.001182
      f-1     :     0.000578
      f+2     :     0.000420
      f-2     :     0.000416
      f+3     :     0.000446
      f-3     :     0.000981
 10 H s       :     0.672020  s :     0.672020
      pz      :     0.079583  p :     0.161872
      px      :     0.037347
      py      :     0.044942
 11 H s       :     0.668338  s :     0.668338
      pz      :     0.030203  p :     0.188854
      px      :     0.104420
      py      :     0.054230
 12 O s       :     3.451527  s :     3.451527
      pz      :     1.540523  p :     4.759935
      px      :     1.514878
      py      :     1.704534
      dz2     :     0.020601  d :     0.059797
      dxz     :     0.006954
      dyz     :     0.007430
      dx2y2   :     0.009514
      dxy     :     0.015299
      f0      :     0.000825  f :     0.004953
      f+1     :     0.000993
      f-1     :     0.000740
      f+2     :     0.000391
      f-2     :     0.000420
      f+3     :     0.000408
      f-3     :     0.001175
 13 H s       :     0.664367  s :     0.664367
      pz      :     0.095788  p :     0.174943
      px      :     0.036611
      py      :     0.042544
 14 H s       :     0.676614  s :     0.676614
      pz      :     0.032900  p :     0.161503
      px      :     0.072016
      py      :     0.056587


                      *****************************
                      * MAYER POPULATION ANALYSIS *
                      *****************************

  NA   - Mulliken gross atomic population
  ZA   - Total nuclear charge
  QA   - Mulliken gross atomic charge
  VA   - Mayer's total valence
  BVA  - Mayer's bonded valence
  FA   - Mayer's free valence

  ATOM       NA         ZA         QA         VA         BVA        FA
  0 O      8.6881     8.0000    -0.6881     2.0792     1.6973     0.3820
  1 H      0.6573     1.0000     0.3427     0.9020     0.8561     0.0459
  2 H      0.6528     1.0000     0.3472     0.8965     0.8481     0.0483
  3 O      8.7363     8.0000    -0.7363     2.0146     1.6279     0.3867
  4 H      0.6796     1.0000     0.3204     0.9170     0.8686     0.0484
  5 H      0.6314     1.0000     0.3686     0.9150     0.8701     0.0449
  6 O      8.6808     8.0000    -0.6808     2.1164     1.7341     0.3824
  7 H      0.6539     1.0000     0.3461     0.8994     0.8521     0.0473
  8 H      0.6210     1.0000     0.3790     0.8754     0.8303     0.0451
  9 O      8.7240     8.0000    -0.7240     2.0415     1.6552     0.3864
 10 H      0.6576     1.0000     0.3424     0.9035     0.8563     0.0472
 11 H      0.6465     1.0000     0.3535     0.9291     0.8832     0.0459
 12 O      8.6889     8.0000    -0.6889     2.1002     1.7186     0.3817
 13 H      0.6106     1.0000     0.3894     0.8902     0.8478     0.0424
 14 H      0.6713     1.0000     0.3287     0.9147     0.8660     0.0487

  Mayer bond orders larger than 0.100000
B(  0-O ,  1-H ) :   0.8509 B(  0-O ,  2-H ) :   0.8424 B(  3-O ,  4-H ) :   0.8633 
B(  3-O ,  5-H ) :   0.7812 B(  6-O ,  7-H ) :   0.8436 B(  6-O ,  8-H ) :   0.8193 
B(  9-O , 10-H ) :   0.8481 B(  9-O , 11-H ) :   0.7821 B( 12-O , 13-H ) :   0.7937 
B( 12-O , 14-H ) :   0.8536 


----------------------------------
MP2 DERIVATIVE INTEGRAL GENERATION
----------------------------------


Input Wavefunction Amplitudes       ... 12h2o.su.etal.mol1,2,4,6,8-orca.engrad-mp2.def2tzvp.frozencore.mp2tsaa.tmp
Input Correlated Electron Density   ... 12h2o.su.etal.mol1,2,4,6,8-orca.engrad-mp2.def2tzvp.frozencore.pmp2re
Input Energy Weighted Density       ... 12h2o.su.etal.mol1,2,4,6,8-orca.engrad-mp2.def2tzvp.frozencore.wmp2.tmp
Input SCF Electron Density          ... 12h2o.su.etal.mol1,2,4,6,8-orca.engrad-mp2.def2tzvp.frozencore.scfp

One-Electron Terms    ...
                        ... One-Electron Terms done
Prescreening matrices              ... done

Batch handling in the gradient evaluation:
Memory available                      ... 8000.0 MB
Memory per occupied orbital in Q2     ...    7.1 MB
Memory per occupied orbital in Q3     ...    0.1 MB
Total memory requirement per |i>      ...    7.1 MB
Max. Number of orbitals possible      ...   1121
Number of orbitals treated per batch  ...     20
Number of batches to be done          ...      1
Batch   0: i=    5 ...    24

---------------------------------------
MP2 TOTAL ENERGY:     -381.590647290 Eh
---------------------------------------

The final MP2 gradient
  0:  -0.02754961   0.00730231   0.00147938
  1:  -0.00237672   0.00184227  -0.00092324
  2:   0.02952449  -0.00948509   0.00078367
  3:  -0.00225499  -0.00904090   0.00106886
  4:  -0.00027528  -0.00217614  -0.00057318
  5:   0.00491830   0.01867975  -0.00023057
  6:   0.00601529   0.01295887   0.01306458
  7:   0.00223665   0.00098525  -0.00806205
  8:  -0.00423519  -0.01383005  -0.00395914
  9:   0.00158711  -0.00692611  -0.00805245
 10:   0.00115607   0.00161601   0.01077942
 11:  -0.00575715   0.00421015  -0.00387718
 12:   0.00847674  -0.01314415   0.00151627
 13:  -0.00114483   0.00199542  -0.00409782
 14:  -0.01032085   0.00501243   0.00108344

-----------------------------------
NORM OF THE MP2 GRADIENT:  0.060223
-----------------------------------

-------------------------   --------------------
FINAL SINGLE POINT ENERGY      -381.590647289830
-------------------------   --------------------


                            ***************************************
                            *     ORCA property calculations      *
                            ***************************************

                                    ---------------------
                                    Active property flags
                                    ---------------------
   (+) Dipole Moment


------------------------------------------------------------------------------
                       ORCA ELECTRIC PROPERTIES CALCULATION
------------------------------------------------------------------------------

Dipole Moment Calculation                       ... on
Quadrupole Moment Calculation                   ... off
Polarizability Calculation                      ... off
GBWName                                         ... 12h2o.su.etal.mol1,2,4,6,8-orca.engrad-mp2.def2tzvp.frozencore.gbw
Electron density file                           ... 12h2o.su.etal.mol1,2,4,6,8-orca.engrad-mp2.def2tzvp.frozencore.scfp
The origin for moment calculation is the CENTER OF MASS  = ( 0.645595,  0.249490 -1.077204)

-------------
DIPOLE MOMENT
-------------
                                X             Y             Z
Electronic contribution:     -0.10436       0.29653       0.18310
Nuclear contribution   :     -0.37518       0.19504       0.68611
                        -----------------------------------------
Total Dipole Moment    :     -0.47953       0.49157       0.86920
                        -----------------------------------------
Magnitude (a.u.)       :      1.10775
Magnitude (Debye)      :      2.81567



--------------------
Rotational spectrum 
--------------------
 
Rotational constants in cm-1:     0.079004     0.028673     0.024430 
Rotational constants in MHz :  2368.486543   859.582598   732.399979 

 Dipole components along the rotational axes: 
x,y,z [a.u.] :     0.986634    -0.499679    -0.063082 
x,y,z [Debye]:     2.507823    -1.270083    -0.160342 

 

                         *** MP2 UNRELAXED DENSITY ***

------------------------------------------------------------------------------
                       ORCA ELECTRIC PROPERTIES CALCULATION
------------------------------------------------------------------------------

Dipole Moment Calculation                       ... on
Quadrupole Moment Calculation                   ... off
Polarizability Calculation                      ... off
GBWName                                         ... 12h2o.su.etal.mol1,2,4,6,8-orca.engrad-mp2.def2tzvp.frozencore.gbw
Electron density file                           ... 12h2o.su.etal.mol1,2,4,6,8-orca.engrad-mp2.def2tzvp.frozencore.pmp2ur
The origin for moment calculation is the CENTER OF MASS  = ( 0.645595,  0.249490 -1.077204)

-------------
DIPOLE MOMENT
-------------
                                X             Y             Z
Electronic contribution:     -0.10306       0.29753       0.17993
Nuclear contribution   :     -0.37518       0.19504       0.68611
                        -----------------------------------------
Total Dipole Moment    :     -0.47824       0.49257       0.86604
                        -----------------------------------------
Magnitude (a.u.)       :      1.10516
Magnitude (Debye)      :      2.80908



--------------------
Rotational spectrum 
--------------------
 
Rotational constants in cm-1:     0.079004     0.028673     0.024430 
Rotational constants in MHz :  2368.486543   859.582598   732.399979 

 Dipole components along the rotational axes: 
x,y,z [a.u.] :     0.983250    -0.500517    -0.063812 
x,y,z [Debye]:     2.499222    -1.272212    -0.162197 

 

                           *** MP2 RELAXED DENSITY ***

------------------------------------------------------------------------------
                       ORCA ELECTRIC PROPERTIES CALCULATION
------------------------------------------------------------------------------

Dipole Moment Calculation                       ... on
Quadrupole Moment Calculation                   ... off
Polarizability Calculation                      ... off
GBWName                                         ... 12h2o.su.etal.mol1,2,4,6,8-orca.engrad-mp2.def2tzvp.frozencore.gbw
Electron density file                           ... 12h2o.su.etal.mol1,2,4,6,8-orca.engrad-mp2.def2tzvp.frozencore.pmp2re
The origin for moment calculation is the CENTER OF MASS  = ( 0.645595,  0.249490 -1.077204)

-------------
DIPOLE MOMENT
-------------
                                X             Y             Z
Electronic contribution:     -0.11633       0.30708       0.18632
Nuclear contribution   :     -0.37518       0.19504       0.68611
                        -----------------------------------------
Total Dipole Moment    :     -0.49151       0.50211       0.87242
                        -----------------------------------------
Magnitude (a.u.)       :      1.12019
Magnitude (Debye)      :      2.84730



--------------------
Rotational spectrum 
--------------------
 
Rotational constants in cm-1:     0.079004     0.028673     0.024430 
Rotational constants in MHz :  2368.486543   859.582598   732.399979 

 Dipole components along the rotational axes: 
x,y,z [a.u.] :     0.995498    -0.508313    -0.073662 
x,y,z [Debye]:     2.530354    -1.292030    -0.187233 

 

Timings for individual modules:

Sum of individual times         ...       31.108 sec (=   0.518 min)
GTO integral calculation        ...        0.905 sec (=   0.015 min)   2.9 %
SCF iterations                  ...        7.356 sec (=   0.123 min)  23.6 %
MP2 module                      ...       22.846 sec (=   0.381 min)  73.4 %
                             ****ORCA TERMINATED NORMALLY****
TOTAL RUN TIME: 0 days 0 hours 0 minutes 32 seconds 9 msec
