
                                 *****************
                                 * O   R   C   A *
                                 *****************

           --- An Ab Initio, DFT and Semiempirical electronic structure package ---

                  #######################################################
                  #                        -***-                        #
                  #          Department of theory and spectroscopy      #
                  #               Directorship: Frank Neese             #
                  #        Max Planck Institute fuer Kohlenforschung    #
                  #                Kaiser Wilhelm Platz 1               #
                  #                 D-45470 Muelheim/Ruhr               #
                  #                      Germany                        #
                  #                                                     #
                  #                  All rights reserved                #
                  #                        -***-                        #
                  #######################################################


                         Program Version 4.2.0 -  RELEASE  -


 With contributions from (in alphabetic order):
   Daniel Aravena         : Magnetic Suceptibility
   Michael Atanasov       : Ab Initio Ligand Field Theory (pilot matlab implementation)
   Alexander A. Auer      : GIAO ZORA, VPT2
   Ute Becker             : Parallelization
   Giovanni Bistoni       : ED, misc. LED, open-shell LED, HFLED
   Martin Brehm           : Molecular dynamics
   Dmytro Bykov           : SCF Hessian
   Vijay G. Chilkuri      : MRCI spin determinant printing, contributions to CSF-ICE
   Dipayan Datta          : RHF DLPNO-CCSD density
   Achintya Kumar Dutta   : EOM-CC, STEOM-CC
   Dmitry Ganyushin       : Spin-Orbit,Spin-Spin,Magnetic field MRCI
   Miquel Garcia          : C-PCM Hessian, Gaussian charge scheme
   Yang Guo               : DLPNO-NEVPT2, CIM, IAO-localization
   Andreas Hansen         : Spin unrestricted coupled pair/coupled cluster methods
   Benjamin Helmich-Paris : CASSCF linear response (MC-RPA)
   Lee Huntington         : MR-EOM, pCC
   Robert Izsak           : Overlap fitted RIJCOSX, COSX-SCS-MP3, EOM
   Christian Kollmar      : KDIIS, OOCD, Brueckner-CCSD(T), CCSD density
   Simone Kossmann        : Meta GGA functionals, TD-DFT gradient, OOMP2, MP2 Hessian
   Martin Krupicka        : AUTO-CI
   Lucas Lang             : DCDCAS
   Dagmar Lenk            : GEPOL surface, SMD
   Dimitrios Liakos       : Extrapolation schemes; Compound Job, initial MDCI parallelization
   Dimitrios Manganas     : Further ROCIS development; embedding schemes
   Dimitrios Pantazis     : SARC Basis sets
   Taras Petrenko         : DFT Hessian,TD-DFT gradient, ASA, ECA, R-Raman, ABS, FL, XAS/XES, NRVS
   Peter Pinski           : DLPNO-MP2, DLPNO-MP2 Gradient
   Christoph Reimann      : Effective Core Potentials
   Marius Retegan         : Local ZFS, SOC
   Christoph Riplinger    : Optimizer, TS searches, QM/MM, DLPNO-CCSD(T), (RO)-DLPNO pert. Triples
   Tobias Risthaus        : Range-separated hybrids, TD-DFT gradient, RPA, STAB
   Michael Roemelt        : Original ROCIS implementation
   Masaaki Saitow         : Open-shell DLPNO-CCSD energy and density
   Barbara Sandhoefer     : DKH picture change effects
   Avijit Sen             : IP-ROCIS
   Kantharuban Sivalingam : CASSCF convergence, NEVPT2, FIC-MRCI
   Bernardo de Souza      : ESD, SOC TD-DFT
   Georgi Stoychev        : AutoAux, RI-MP2 NMR
   Willem Van den Heuvel  : Paramagnetic NMR
   Boris Wezisla          : Elementary symmetry handling
   Frank Wennmohs         : Technical directorship


 We gratefully acknowledge several colleagues who have allowed us to
 interface, adapt or use parts of their codes:
   Stefan Grimme, W. Hujo, H. Kruse,             : VdW corrections, initial TS optimization,
                  C. Bannwarth                     DFT functionals, gCP, sTDA/sTD-DF
   Ed Valeev, F. Pavosevic, A. Kumar             : LibInt (2-el integral package), F12 methods
   Garnet Chan, S. Sharma, J. Yang, R. Olivares  : DMRG
   Ulf Ekstrom                                   : XCFun DFT Library
   Mihaly Kallay                                 : mrcc  (arbitrary order and MRCC methods)
   Andreas Klamt, Michael Diedenhofen            : otool_cosmo (COSMO solvation model)
   Jiri Pittner, Ondrej Demel                    : Mk-CCSD
   Frank Weinhold                                : gennbo (NPA and NBO analysis)
   Christopher J. Cramer and Donald G. Truhlar   : smd solvation model
   Lars Goerigk                                  : TD-DFT with DH, B97 family of functionals
   V. Asgeirsson, H. Jonsson                     : NEB implementation
   FAccTs GmbH                                   : IRC, NEB, NEB-TS, Multilevel, MM, QM/MM, CI optimization
   S Lehtola, MJT Oliveira, MAL Marques          : LibXC Library


 Your calculation uses the libint2 library for the computation of 2-el integrals
 For citations please refer to: http://libint.valeyev.net

 Your ORCA version has been built with support for libXC version: 4.2.3
 For citations please refer to: https://tddft.org/programs/libxc/

 This ORCA versions uses:
   CBLAS   interface :  Fast vector & matrix operations
   LAPACKE interface :  Fast linear algebra routines
   SCALAPACK package :  Parallel linear algebra routines


----- Orbital basis set information -----
Your calculation utilizes the basis: def2-TZVP
   F. Weigend and R. Ahlrichs, Phys. Chem. Chem. Phys. 7, 3297 (2005).

================================================================================
                                        WARNINGS
                       Please study these warnings very carefully!
================================================================================


WARNING: The frozen-core approximation for MP2-gradient calculations is turned on by default.

INFO   : the flag for use of LIBINT has been found!

================================================================================
                                       INPUT FILE
================================================================================
NAME = 12h2o.su.etal.mol2,3,4,5,6,9,10,11-orca.engrad-mp2.def2tzvp.frozencore.inp
|  1> # 12h2o.su.etal.mol2,3,4,5,6,9,10,11
|  2> ! MP2 def2-TZVP EnGrad TightSCF
|  3> 
|  4> %pal
|  5>     nprocs 6
|  6> end
|  7> 
|  8> %maxcore 8000
|  9> 
| 10> %scf
| 11>     ConvForced true
| 12> end
| 13> 
| 14> *xyz 0 1
| 15> O   0.923410000  -1.794470000  -2.768350000
| 16> H   1.359750000  -2.338250000  -3.430940000
| 17> H   1.303000000  -0.879480000  -2.865760000
| 18> O  -1.752130000  -0.741530000  -2.896280000
| 19> H  -2.036450000  -0.920500000  -1.984040000
| 20> H  -0.921210000  -1.242140000  -2.984230000
| 21> O  -0.885520000   1.737840000   0.052730000
| 22> H  -1.032320000   2.090180000  -0.841890000
| 23> H  -1.284090000   0.839590000   0.017130000
| 24> O   0.885520000  -1.737840000   0.052730000
| 25> H   1.284090000  -0.839590000   0.017130000
| 26> H   1.032320000  -2.090180000  -0.841890000
| 27> O   1.737840000   0.885520000  -0.052730000
| 28> H   2.090180000   1.032320000   0.841890000
| 29> H   0.839590000   1.284090000  -0.017130000
| 30> O   0.741530000  -1.752130000   2.896280000
| 31> H   0.920500000  -2.036450000   1.984040000
| 32> H   1.242140000  -0.921210000   2.984230000
| 33> O  -0.923410000   1.794470000  -2.768350000
| 34> H  -1.359750000   2.338250000  -3.430940000
| 35> H  -1.303000000   0.879480000  -2.865760000
| 36> O  -0.741530000   1.752130000   2.896280000
| 37> H  -0.920500000   2.036450000   1.984040000
| 38> H  -1.242140000   0.921210000   2.984230000
| 39> *
| 40> 
| 41>                          ****END OF INPUT****
================================================================================

                     *******************************
                     * Energy+Gradient Calculation *
                     *******************************

---------------------------------
CARTESIAN COORDINATES (ANGSTROEM)
---------------------------------
  O      0.923410   -1.794470   -2.768350
  H      1.359750   -2.338250   -3.430940
  H      1.303000   -0.879480   -2.865760
  O     -1.752130   -0.741530   -2.896280
  H     -2.036450   -0.920500   -1.984040
  H     -0.921210   -1.242140   -2.984230
  O     -0.885520    1.737840    0.052730
  H     -1.032320    2.090180   -0.841890
  H     -1.284090    0.839590    0.017130
  O      0.885520   -1.737840    0.052730
  H      1.284090   -0.839590    0.017130
  H      1.032320   -2.090180   -0.841890
  O      1.737840    0.885520   -0.052730
  H      2.090180    1.032320    0.841890
  H      0.839590    1.284090   -0.017130
  O      0.741530   -1.752130    2.896280
  H      0.920500   -2.036450    1.984040
  H      1.242140   -0.921210    2.984230
  O     -0.923410    1.794470   -2.768350
  H     -1.359750    2.338250   -3.430940
  H     -1.303000    0.879480   -2.865760
  O     -0.741530    1.752130    2.896280
  H     -0.920500    2.036450    1.984040
  H     -1.242140    0.921210    2.984230

----------------------------
CARTESIAN COORDINATES (A.U.)
----------------------------
  NO LB      ZA    FRAG     MASS         X           Y           Z
   0 O     8.0000    0    15.999    1.744992   -3.391057   -5.231423
   1 H     1.0000    0     1.008    2.569555   -4.418652   -6.483537
   2 H     1.0000    0     1.008    2.462313   -1.661976   -5.415502
   3 O     8.0000    0    15.999   -3.311046   -1.401289   -5.473176
   4 H     1.0000    0     1.008   -3.848333   -1.739493   -3.749292
   5 H     1.0000    0     1.008   -1.740835   -2.347304   -5.639377
   6 O     8.0000    0    15.999   -1.673390    3.284042    0.099645
   7 H     1.0000    0     1.008   -1.950802    3.949868   -1.590942
   8 H     1.0000    0     1.008   -2.426578    1.586595    0.032371
   9 O     8.0000    0    15.999    1.673390   -3.284042    0.099645
  10 H     1.0000    0     1.008    2.426578   -1.586595    0.032371
  11 H     1.0000    0     1.008    1.950802   -3.949868   -1.590942
  12 O     8.0000    0    15.999    3.284042    1.673390   -0.099645
  13 H     1.0000    0     1.008    3.949868    1.950802    1.590942
  14 H     1.0000    0     1.008    1.586595    2.426578   -0.032371
  15 O     8.0000    0    15.999    1.401289   -3.311046    5.473176
  16 H     1.0000    0     1.008    1.739493   -3.848333    3.749292
  17 H     1.0000    0     1.008    2.347304   -1.740835    5.639377
  18 O     8.0000    0    15.999   -1.744992    3.391057   -5.231423
  19 H     1.0000    0     1.008   -2.569555    4.418652   -6.483537
  20 H     1.0000    0     1.008   -2.462313    1.661976   -5.415502
  21 O     8.0000    0    15.999   -1.401289    3.311046    5.473176
  22 H     1.0000    0     1.008   -1.739493    3.848333    3.749292
  23 H     1.0000    0     1.008   -2.347304    1.740835    5.639377

--------------------------------
INTERNAL COORDINATES (ANGSTROEM)
--------------------------------
 O      0   0   0     0.000000000000     0.00000000     0.00000000
 H      1   0   0     0.961828878803     0.00000000     0.00000000
 H      1   2   0     0.995381322057   106.21731035     0.00000000
 O      1   2   3     2.878117964938   126.72240291   103.59081140
 H      4   1   2     0.972136791249    99.37069922   136.92500856
 H      4   1   2     0.974050112161    12.30570018    24.40947955
 O      5   4   1     3.541164138161   107.84672602    83.70571148
 H      7   5   4     0.972645187106    72.17296994    29.09453504
 H      7   5   4     0.983350632989    33.04029707   190.88793319
 O      1   2   3     2.821902722526   134.92023192   245.52250503
 H     10   1   2     0.983350632989    88.66470709   117.24500673
 H     10   1   2     0.972645187106    21.75017499   343.08822912
 O     11  10   1     1.785153773264   170.81379649    89.95043540
 H     13  11  10     0.972645187106   101.65007623   109.44492584
 H     13  11  10     0.983350632989    99.09581498     3.33484705
 O     10   1   2     2.847229166523   177.43098014   265.14132070
 H     16  10  12     0.972136791249    19.08819947     8.79504813
 H     16  10  12     0.974050112161    93.43428486   132.89132802
 O      8   7   5     1.952064016317   147.60984291   322.52183969
 H     19   8   7     0.961828878803   124.67322417   165.49513251
 H     19   8   7     0.995381322057   102.38931089    45.51897547
 O      7   5   4     2.847229166523   126.48630953   195.00328214
 H     22   7   5     0.972136791249    19.08819947   226.21746260
 H     22   7   5     0.974050112161    93.43428486   350.31374249

---------------------------
INTERNAL COORDINATES (A.U.)
---------------------------
 O      0   0   0     0.000000000000     0.00000000     0.00000000
 H      1   0   0     1.817593168635     0.00000000     0.00000000
 H      1   2   0     1.880998097508   106.21731035     0.00000000
 O      1   2   3     5.438854734852   126.72240291   103.59081140
 H      4   1   2     1.837072300170    99.37069922   136.92500856
 H      4   1   2     1.840687952699    12.30570018    24.40947955
 O      5   4   1     6.691830416388   107.84672602    83.70571148
 H      7   5   4     1.838033029106    72.17296994    29.09453504
 H      7   5   4     1.858263389967    33.04029707   190.88793319
 O      1   2   3     5.332623322141   134.92023192   245.52250503
 H     10   1   2     1.858263389967    88.66470709   117.24500673
 H     10   1   2     1.838033029106    21.75017499   343.08822912
 O     11  10   1     3.373451738406   170.81379649    89.95043540
 H     13  11  10     1.838033029106   101.65007623   109.44492584
 H     13  11  10     1.858263389967    99.09581498     3.33484705
 O     10   1   2     5.380483365242   177.43098014   265.14132070
 H     16  10  12     1.837072300170    19.08819947     8.79504813
 H     16  10  12     1.840687952699    93.43428486   132.89132802
 O      8   7   5     3.688866386722   147.60984291   322.52183969
 H     19   8   7     1.817593168635   124.67322417   165.49513251
 H     19   8   7     1.880998097508   102.38931089    45.51897547
 O      7   5   4     5.380483365242   126.48630953   195.00328214
 H     22   7   5     1.837072300170    19.08819947   226.21746260
 H     22   7   5     1.840687952699    93.43428486   350.31374249

---------------------
BASIS SET INFORMATION
---------------------
There are 2 groups of distinct atoms

 Group   1 Type O   : 11s6p2d1f contracted to 5s3p2d1f pattern {62111/411/11/1}
 Group   2 Type H   : 5s1p contracted to 3s1p pattern {311/1}

Atom   0O    basis set group =>   1
Atom   1H    basis set group =>   2
Atom   2H    basis set group =>   2
Atom   3O    basis set group =>   1
Atom   4H    basis set group =>   2
Atom   5H    basis set group =>   2
Atom   6O    basis set group =>   1
Atom   7H    basis set group =>   2
Atom   8H    basis set group =>   2
Atom   9O    basis set group =>   1
Atom  10H    basis set group =>   2
Atom  11H    basis set group =>   2
Atom  12O    basis set group =>   1
Atom  13H    basis set group =>   2
Atom  14H    basis set group =>   2
Atom  15O    basis set group =>   1
Atom  16H    basis set group =>   2
Atom  17H    basis set group =>   2
Atom  18O    basis set group =>   1
Atom  19H    basis set group =>   2
Atom  20H    basis set group =>   2
Atom  21O    basis set group =>   1
Atom  22H    basis set group =>   2
Atom  23H    basis set group =>   2


           ************************************************************
           *        Program running with 6 parallel MPI-processes     *
           *              working on a common directory               *
           ************************************************************
------------------------------------------------------------------------------
                           ORCA GTO INTEGRAL CALCULATION
------------------------------------------------------------------------------

                         BASIS SET STATISTICS AND STARTUP INFO

 # of primitive gaussian shells          ...  256
 # of primitive gaussian functions       ...  496
 # of contracted shells                  ...  152
 # of contracted basis functions         ...  344
 Highest angular momentum                ...    3
 Maximum contraction depth               ...    6
 Integral package used                   ... LIBINT
 Integral threshhold            Thresh   ...  2.500e-11
 Primitive cut-off              TCut     ...  2.500e-12


------------------------------ INTEGRAL EVALUATION ----------------------------


 * One electron integrals 
 Pre-screening matrix                    ... done
 Shell pair data                         ... done (   0.002 sec)



           ************************************************************
           *        Program running with 6 parallel MPI-processes     *
           *              working on a common directory               *
           ************************************************************
-------------------------------------------------------------------------------
                                 ORCA SCF
-------------------------------------------------------------------------------

------------
SCF SETTINGS
------------
Hamiltonian:
 Ab initio Hamiltonian  Method          .... Hartree-Fock(GTOs)


General Settings:
 Integral files         IntName         .... 12h2o.su.etal.mol2,3,4,5,6,9,10,11-orca.engrad-mp2.def2tzvp.frozencore
 Hartree-Fock type      HFTyp           .... RHF
 Total Charge           Charge          ....    0
 Multiplicity           Mult            ....    1
 Number of Electrons    NEL             ....   80
 Basis Dimension        Dim             ....  344
 Nuclear Repulsion      ENuc            ....    452.9979875418 Eh

Convergence Acceleration:
 DIIS                   CNVDIIS         .... on
   Start iteration      DIISMaxIt       ....    12
   Startup error        DIISStart       ....  0.200000
   # of expansion vecs  DIISMaxEq       ....     5
   Bias factor          DIISBfac        ....   1.050
   Max. coefficient     DIISMaxC        ....  10.000
 Newton-Raphson         CNVNR           .... off
 SOSCF                  CNVSOSCF        .... on
   Start iteration      SOSCFMaxIt      ....   150
   Startup grad/error   SOSCFStart      ....  0.003300
 Level Shifting         CNVShift        .... on
   Level shift para.    LevelShift      ....    0.2500
   Turn off err/grad.   ShiftErr        ....    0.0010
 Zerner damping         CNVZerner       .... off
 Static damping         CNVDamp         .... on
   Fraction old density DampFac         ....    0.7000
   Max. Damping (<1)    DampMax         ....    0.9800
   Min. Damping (>=0)   DampMin         ....    0.0000
   Turn off err/grad.   DampErr         ....    0.1000
 Fernandez-Rico         CNVRico         .... off

SCF Procedure:
 Maximum # iterations   MaxIter         ....   125
 SCF integral mode      SCFMode         .... Direct
   Integral package                     .... LIBINT
 Reset frequency        DirectResetFreq ....    20
 Integral Threshold     Thresh          ....  2.500e-11 Eh
 Primitive CutOff       TCut            ....  2.500e-12 Eh

Convergence Tolerance:
 Convergence Check Mode ConvCheckMode   .... Total+1el-Energy
 Convergence forced     ConvForced      .... 1
 Energy Change          TolE            ....  1.000e-08 Eh
 1-El. energy change                    ....  1.000e-05 Eh
 Orbital Gradient       TolG            ....  1.000e-05
 Orbital Rotation angle TolX            ....  1.000e-05
 DIIS Error             TolErr          ....  5.000e-07


Diagonalization of the overlap matrix:
Smallest eigenvalue                        ... 3.622e-03
Time for diagonalization                   ...    0.016 sec
Threshold for overlap eigenvalues          ... 1.000e-08
Number of eigenvalues below threshold      ... 0
Time for construction of square roots      ...    0.009 sec
Total time needed                          ...    0.025 sec

-------------------
DFT GRID GENERATION
-------------------

General Integration Accuracy     IntAcc      ...  4.340
Radial Grid Type                 RadialGrid  ... Gauss-Chebyshev
Angular Grid (max. acc.)         AngularGrid ... Lebedev-110
Angular grid pruning method      GridPruning ... 3 (G Style)
Weight generation scheme         WeightScheme... Becke
Basis function cutoff            BFCut       ...    1.0000e-11
Integration weight cutoff        WCut        ...    1.0000e-14
Grids for H and He will be reduced by one unit

# of grid points (after initial pruning)     ...  26432 (   0.0 sec)
# of grid points (after weights+screening)   ...  24620 (   0.0 sec)
nearest neighbour list constructed           ...    0.0 sec
Grid point re-assignment to atoms done       ...    0.0 sec
Grid point division into batches done        ...    0.0 sec
Reduced shell lists constructed in    0.1 sec

Total number of grid points                  ...    24620
Total number of batches                      ...      399
Average number of points per batch           ...       61
Average number of grid points per atom       ...     1026
Average number of shells per batch           ...    68.47 (45.05%)
Average number of basis functions per batch  ...   135.24 (39.31%)
Average number of large shells per batch     ...    45.66 (66.69%)
Average number of large basis fcns per batch ...    87.40 (64.63%)
Maximum spatial batch extension              ...  16.77, 14.53, 13.08 au
Average spatial batch extension              ...   0.67,  0.56,  0.57 au

Time for grid setup =    0.091 sec

------------------------------
INITIAL GUESS: MODEL POTENTIAL
------------------------------
Loading Hartree-Fock densities                     ... done
Calculating cut-offs                               ... done
Setting up the integral package                    ... done
Initializing the effective Hamiltonian             ... done
Starting the Coulomb interaction                   ... done (   0.0 sec)
Reading the grid                                   ... done
Mapping shells                                     ... done
Starting the XC term evaluation                    ... done (   0.0 sec)
Transforming the Hamiltonian                       ... done (   0.0 sec)
Diagonalizing the Hamiltonian                      ... done (   0.0 sec)
Back transforming the eigenvectors                 ... done (   0.0 sec)
Now organizing SCF variables                       ... done
                      ------------------
                      INITIAL GUESS DONE (   0.3 sec)
                      ------------------
--------------
SCF ITERATIONS
--------------
ITER       Energy         Delta-E        Max-DP      RMS-DP      [F,P]     Damp
               ***  Starting incremental Fock matrix formation  ***
  0   -607.8104883210   0.000000000000 0.04350148  0.00083318  0.3436553 0.7000
  1   -608.0835296070  -0.273041286003 0.02878031  0.00057644  0.2167418 0.7000
                               ***Turning on DIIS***
  2   -608.2282815917  -0.144751984649 0.01636959  0.00032180  0.1636217 0.7000
  3   -609.5313543754  -1.303072783689 0.00773448  0.00014704  0.1217920 0.7000
  4   -609.2654605805   0.265893794834 0.01738629  0.00034092  0.0861329 0.0000
  5   -608.5585758820   0.706884698571 0.00233377  0.00005561  0.0055788 0.0000
                      *** Initiating the SOSCF procedure ***
                           *** Shutting down DIIS ***
                      *** Re-Reading the Fockian *** 
                      *** Removing any level shift *** 
ITER      Energy       Delta-E        Grad      Rot      Max-DP    RMS-DP
  6   -608.51881273   0.0397631557  0.000806  0.000806  0.001588  0.000034
               *** Restarting incremental Fock matrix formation ***
  7   -608.50800065   0.0108120720  0.000278  0.000390  0.000740  0.000015
  8   -608.50801265  -0.0000119930  0.000126  0.000328  0.000609  0.000013
  9   -608.50801554  -0.0000028884  0.000071  0.000045  0.000100  0.000002
 10   -608.50801577  -0.0000002381  0.000013  0.000007  0.000018  0.000000
                  ***Gradient check signals convergence***
              ***Rediagonalizing the Fockian in SOSCF/NRSCF***

               *****************************************************
               *                     SUCCESS                       *
               *           SCF CONVERGED AFTER  11 CYCLES          *
               *****************************************************


----------------
TOTAL SCF ENERGY
----------------

Total Energy       :         -608.50801578 Eh          -16558.34492 eV

Components:
Nuclear Repulsion  :          452.99798754 Eh           12326.70192 eV
Electronic Energy  :        -1061.50600332 Eh          -28885.04684 eV
One Electron Energy:        -1743.01816551 Eh          -47429.93557 eV
Two Electron Energy:          681.51216218 Eh           18544.88874 eV

Virial components:
Potential Energy   :        -1216.21412713 Eh          -33094.86891 eV
Kinetic Energy     :          607.70611135 Eh           16536.52399 eV
Virial Ratio       :            2.00131956


---------------
SCF CONVERGENCE
---------------

  Last Energy change         ...   -6.8651e-09  Tolerance :   1.0000e-08
  Last MAX-Density change    ...    5.7600e-06  Tolerance :   1.0000e-07
  Last RMS-Density change    ...    1.2234e-07  Tolerance :   5.0000e-09
  Last Orbital Gradient      ...    2.2468e-06  Tolerance :   1.0000e-05
  Last Orbital Rotation      ...    2.2994e-06  Tolerance :   1.0000e-05

             **** THE GBW FILE WAS UPDATED (12h2o.su.etal.mol2,3,4,5,6,9,10,11-orca.engrad-mp2.def2tzvp.frozencore.gbw) ****
             **** DENSITY FILE WAS UPDATED (12h2o.su.etal.mol2,3,4,5,6,9,10,11-orca.engrad-mp2.def2tzvp.frozencore.scfp) ****
             **** ENERGY FILE WAS UPDATED (12h2o.su.etal.mol2,3,4,5,6,9,10,11-orca.engrad-mp2.def2tzvp.frozencore.en.tmp) ****
             **** THE GBW FILE WAS UPDATED (12h2o.su.etal.mol2,3,4,5,6,9,10,11-orca.engrad-mp2.def2tzvp.frozencore.gbw) ****
             **** DENSITY FILE WAS UPDATED (12h2o.su.etal.mol2,3,4,5,6,9,10,11-orca.engrad-mp2.def2tzvp.frozencore.scfp) ****
----------------
ORBITAL ENERGIES
----------------

  NO   OCC          E(Eh)            E(eV) 
   0   2.0000     -20.625705      -561.2540 
   1   2.0000     -20.597908      -560.4976 
   2   2.0000     -20.593759      -560.3847 
   3   2.0000     -20.566817      -559.6515 
   4   2.0000     -20.565116      -559.6053 
   5   2.0000     -20.536692      -558.8318 
   6   2.0000     -20.535647      -558.8034 
   7   2.0000     -20.521710      -558.4241 
   8   2.0000      -1.406840       -38.2821 
   9   2.0000      -1.387178       -37.7470 
  10   2.0000      -1.381755       -37.5995 
  11   2.0000      -1.351354       -36.7722 
  12   2.0000      -1.347815       -36.6759 
  13   2.0000      -1.322940       -35.9990 
  14   2.0000      -1.317524       -35.8516 
  15   2.0000      -1.302592       -35.4453 
  16   2.0000      -0.772549       -21.0221 
  17   2.0000      -0.747262       -20.3340 
  18   2.0000      -0.742977       -20.2174 
  19   2.0000      -0.733120       -19.9492 
  20   2.0000      -0.719028       -19.5658 
  21   2.0000      -0.705090       -19.1865 
  22   2.0000      -0.688253       -18.7283 
  23   2.0000      -0.671109       -18.2618 
  24   2.0000      -0.651683       -17.7332 
  25   2.0000      -0.632469       -17.2104 
  26   2.0000      -0.624656       -16.9977 
  27   2.0000      -0.600091       -16.3293 
  28   2.0000      -0.592866       -16.1327 
  29   2.0000      -0.578073       -15.7302 
  30   2.0000      -0.559870       -15.2348 
  31   2.0000      -0.554161       -15.0795 
  32   2.0000      -0.537254       -14.6194 
  33   2.0000      -0.534688       -14.5496 
  34   2.0000      -0.529487       -14.4081 
  35   2.0000      -0.516775       -14.0622 
  36   2.0000      -0.505986       -13.7686 
  37   2.0000      -0.488078       -13.2813 
  38   2.0000      -0.482701       -13.1350 
  39   2.0000      -0.467499       -12.7213 
  40   0.0000       0.079450         2.1619 
  41   0.0000       0.108973         2.9653 
  42   0.0000       0.131376         3.5749 
  43   0.0000       0.141741         3.8570 
  44   0.0000       0.170797         4.6476 
  45   0.0000       0.179097         4.8735 
  46   0.0000       0.203767         5.5448 
  47   0.0000       0.222611         6.0576 
  48   0.0000       0.236244         6.4285 
  49   0.0000       0.244149         6.6436 
  50   0.0000       0.273776         7.4498 
  51   0.0000       0.288821         7.8592 
  52   0.0000       0.301453         8.2029 
  53   0.0000       0.317828         8.6485 
  54   0.0000       0.323481         8.8024 
  55   0.0000       0.346231         9.4214 
  56   0.0000       0.418934        11.3998 
  57   0.0000       0.457465        12.4483 
  58   0.0000       0.466693        12.6994 
  59   0.0000       0.481069        13.0906 
  60   0.0000       0.489354        13.3160 
  61   0.0000       0.508457        13.8358 
  62   0.0000       0.524413        14.2700 
  63   0.0000       0.526995        14.3403 
  64   0.0000       0.532260        14.4835 
  65   0.0000       0.541781        14.7426 
  66   0.0000       0.558213        15.1898 
  67   0.0000       0.567533        15.4434 
  68   0.0000       0.577386        15.7115 
  69   0.0000       0.590190        16.0599 
  70   0.0000       0.597830        16.2678 
  71   0.0000       0.608184        16.5495 
  72   0.0000       0.615257        16.7420 
  73   0.0000       0.620945        16.8968 
  74   0.0000       0.631481        17.1835 
  75   0.0000       0.634437        17.2639 
  76   0.0000       0.648838        17.6558 
  77   0.0000       0.664002        18.0684 
  78   0.0000       0.682519        18.5723 
  79   0.0000       0.690718        18.7954 
  80   0.0000       0.707529        19.2528 
  81   0.0000       0.714180        19.4338 
  82   0.0000       0.728981        19.8366 
  83   0.0000       0.747624        20.3439 
  84   0.0000       0.750138        20.4123 
  85   0.0000       0.764608        20.8060 
  86   0.0000       0.775902        21.1134 
  87   0.0000       0.786495        21.4016 
  88   0.0000       0.793638        21.5960 
  89   0.0000       0.810019        22.0417 
  90   0.0000       0.823282        22.4026 
  91   0.0000       0.838392        22.8138 
  92   0.0000       0.847334        23.0571 
  93   0.0000       0.884983        24.0816 
  94   0.0000       0.897150        24.4127 
  95   0.0000       0.918626        24.9971 
  96   0.0000       0.942991        25.6601 
  97   0.0000       0.969079        26.3700 
  98   0.0000       0.997245        27.1364 
  99   0.0000       1.011352        27.5203 
 100   0.0000       1.030617        28.0445 
 101   0.0000       1.052543        28.6412 
 102   0.0000       1.066726        29.0271 
 103   0.0000       1.100727        29.9523 
 104   0.0000       1.329859        36.1873 
 105   0.0000       1.358502        36.9667 
 106   0.0000       1.374055        37.3899 
 107   0.0000       1.380277        37.5593 
 108   0.0000       1.391860        37.8744 
 109   0.0000       1.395973        37.9863 
 110   0.0000       1.417180        38.5634 
 111   0.0000       1.438177        39.1348 
 112   0.0000       1.439805        39.1791 
 113   0.0000       1.446123        39.3510 
 114   0.0000       1.457690        39.6658 
 115   0.0000       1.464297        39.8456 
 116   0.0000       1.491923        40.5973 
 117   0.0000       1.502861        40.8949 
 118   0.0000       1.514643        41.2155 
 119   0.0000       1.520104        41.3641 
 120   0.0000       1.547495        42.1095 
 121   0.0000       1.563900        42.5559 
 122   0.0000       1.572790        42.7978 
 123   0.0000       1.596703        43.4485 
 124   0.0000       1.604019        43.6476 
 125   0.0000       1.608148        43.7599 
 126   0.0000       1.622070        44.1388 
 127   0.0000       1.655118        45.0380 
 128   0.0000       1.785403        48.5833 
 129   0.0000       1.797919        48.9239 
 130   0.0000       1.827567        49.7306 
 131   0.0000       1.830186        49.8019 
 132   0.0000       1.858158        50.5631 
 133   0.0000       1.863379        50.7051 
 134   0.0000       1.879991        51.1572 
 135   0.0000       1.889070        51.4042 
 136   0.0000       1.923214        52.3333 
 137   0.0000       1.947855        53.0038 
 138   0.0000       1.963161        53.4203 
 139   0.0000       1.984928        54.0127 
 140   0.0000       1.988474        54.1091 
 141   0.0000       2.014453        54.8161 
 142   0.0000       2.021940        55.0198 
 143   0.0000       2.028858        55.2080 
 144   0.0000       2.043238        55.5993 
 145   0.0000       2.058843        56.0240 
 146   0.0000       2.067762        56.2667 
 147   0.0000       2.089173        56.8493 
 148   0.0000       2.123622        57.7867 
 149   0.0000       2.151949        58.5575 
 150   0.0000       2.172204        59.1087 
 151   0.0000       2.217969        60.3540 
 152   0.0000       2.224148        60.5221 
 153   0.0000       2.258264        61.4505 
 154   0.0000       2.265537        61.6484 
 155   0.0000       2.285734        62.1980 
 156   0.0000       2.306461        62.7620 
 157   0.0000       2.311460        62.8980 
 158   0.0000       2.331043        63.4309 
 159   0.0000       2.343338        63.7655 
 160   0.0000       2.350548        63.9617 
 161   0.0000       2.353542        64.0431 
 162   0.0000       2.360117        64.2221 
 163   0.0000       2.372587        64.5614 
 164   0.0000       2.382120        64.8208 
 165   0.0000       2.392208        65.0953 
 166   0.0000       2.403619        65.4058 
 167   0.0000       2.415894        65.7398 
 168   0.0000       2.443528        66.4918 
 169   0.0000       2.461966        66.9935 
 170   0.0000       2.489391        67.7398 
 171   0.0000       2.496849        67.9427 
 172   0.0000       2.510654        68.3184 
 173   0.0000       2.532552        68.9142 
 174   0.0000       2.561254        69.6953 
 175   0.0000       2.573309        70.0233 
 176   0.0000       2.588374        70.4332 
 177   0.0000       2.599506        70.7362 
 178   0.0000       2.610001        71.0217 
 179   0.0000       2.619988        71.2935 
 180   0.0000       2.628712        71.5309 
 181   0.0000       2.637584        71.7723 
 182   0.0000       2.648688        72.0745 
 183   0.0000       2.668543        72.6148 
 184   0.0000       2.674950        72.7891 
 185   0.0000       2.694996        73.3346 
 186   0.0000       2.717411        73.9445 
 187   0.0000       2.721741        74.0623 
 188   0.0000       2.735363        74.4330 
 189   0.0000       2.755478        74.9804 
 190   0.0000       2.779855        75.6437 
 191   0.0000       2.800347        76.2013 
 192   0.0000       2.866947        78.0136 
 193   0.0000       2.903356        79.0043 
 194   0.0000       2.927026        79.6484 
 195   0.0000       2.942634        80.0731 
 196   0.0000       2.944489        80.1236 
 197   0.0000       2.965487        80.6950 
 198   0.0000       2.984056        81.2003 
 199   0.0000       2.988844        81.3306 
 200   0.0000       3.004194        81.7483 
 201   0.0000       3.011390        81.9441 
 202   0.0000       3.032319        82.5136 
 203   0.0000       3.037984        82.6678 
 204   0.0000       3.041967        82.7761 
 205   0.0000       3.053693        83.0952 
 206   0.0000       3.083500        83.9063 
 207   0.0000       3.097263        84.2808 
 208   0.0000       3.114187        84.7413 
 209   0.0000       3.128590        85.1333 
 210   0.0000       3.151819        85.7654 
 211   0.0000       3.162431        86.0541 
 212   0.0000       3.208769        87.3150 
 213   0.0000       3.225330        87.7657 
 214   0.0000       3.238124        88.1138 
 215   0.0000       3.267383        88.9100 
 216   0.0000       3.274537        89.1047 
 217   0.0000       3.284183        89.3672 
 218   0.0000       3.300465        89.8102 
 219   0.0000       3.319436        90.3264 
 220   0.0000       3.379982        91.9740 
 221   0.0000       3.426372        93.2363 
 222   0.0000       3.481322        94.7316 
 223   0.0000       3.507840        95.4532 
 224   0.0000       3.964810       107.8880 
 225   0.0000       4.014883       109.2505 
 226   0.0000       4.047986       110.1513 
 227   0.0000       4.067796       110.6904 
 228   0.0000       4.080612       111.0391 
 229   0.0000       4.095811       111.4527 
 230   0.0000       4.115793       111.9964 
 231   0.0000       4.130626       112.4001 
 232   0.0000       4.256813       115.8338 
 233   0.0000       4.282846       116.5422 
 234   0.0000       4.293763       116.8392 
 235   0.0000       4.337879       118.0397 
 236   0.0000       4.343453       118.1914 
 237   0.0000       4.351715       118.4162 
 238   0.0000       4.366421       118.8164 
 239   0.0000       4.377178       119.1091 
 240   0.0000       5.488311       149.3445 
 241   0.0000       5.506457       149.8383 
 242   0.0000       5.511692       149.9808 
 243   0.0000       5.535665       150.6331 
 244   0.0000       5.541072       150.7802 
 245   0.0000       5.567876       151.5096 
 246   0.0000       5.571952       151.6205 
 247   0.0000       5.583080       151.9233 
 248   0.0000       5.585207       151.9812 
 249   0.0000       5.622231       152.9887 
 250   0.0000       5.648240       153.6964 
 251   0.0000       5.658041       153.9631 
 252   0.0000       5.666325       154.1885 
 253   0.0000       5.677141       154.4829 
 254   0.0000       5.677750       154.4994 
 255   0.0000       5.691166       154.8645 
 256   0.0000       5.752075       156.5219 
 257   0.0000       5.783632       157.3806 
 258   0.0000       5.784849       157.4137 
 259   0.0000       5.795720       157.7096 
 260   0.0000       5.808734       158.0637 
 261   0.0000       5.814929       158.2323 
 262   0.0000       5.820495       158.3837 
 263   0.0000       5.841219       158.9476 
 264   0.0000       5.841817       158.9639 
 265   0.0000       5.849336       159.1685 
 266   0.0000       5.850802       159.2084 
 267   0.0000       5.855462       159.3352 
 268   0.0000       5.857422       159.3885 
 269   0.0000       5.860125       159.4621 
 270   0.0000       5.863796       159.5620 
 271   0.0000       5.871037       159.7590 
 272   0.0000       5.884320       160.1205 
 273   0.0000       5.889003       160.2479 
 274   0.0000       5.898873       160.5165 
 275   0.0000       5.910425       160.8308 
 276   0.0000       5.920275       161.0989 
 277   0.0000       5.923006       161.1732 
 278   0.0000       5.927202       161.2874 
 279   0.0000       5.942955       161.7160 
 280   0.0000       6.370235       173.3429 
 281   0.0000       6.436882       175.1565 
 282   0.0000       6.449751       175.5066 
 283   0.0000       6.462050       175.8413 
 284   0.0000       6.470006       176.0578 
 285   0.0000       6.494534       176.7253 
 286   0.0000       6.515606       177.2986 
 287   0.0000       6.531741       177.7377 
 288   0.0000       6.631575       180.4543 
 289   0.0000       6.657979       181.1728 
 290   0.0000       6.677895       181.7147 
 291   0.0000       6.703530       182.4123 
 292   0.0000       6.719199       182.8387 
 293   0.0000       6.726248       183.0305 
 294   0.0000       6.741332       183.4410 
 295   0.0000       6.761396       183.9869 
 296   0.0000       6.816417       185.4841 
 297   0.0000       6.836293       186.0250 
 298   0.0000       6.844210       186.2404 
 299   0.0000       6.851096       186.4278 
 300   0.0000       6.852993       186.4794 
 301   0.0000       6.865092       186.8086 
 302   0.0000       6.870130       186.9458 
 303   0.0000       6.878855       187.1832 
 304   0.0000       6.886039       187.3786 
 305   0.0000       6.890579       187.5022 
 306   0.0000       6.905519       187.9087 
 307   0.0000       6.913067       188.1141 
 308   0.0000       6.917951       188.2470 
 309   0.0000       6.922112       188.3602 
 310   0.0000       6.928190       188.5256 
 311   0.0000       6.939541       188.8345 
 312   0.0000       6.958039       189.3379 
 313   0.0000       6.959725       189.3837 
 314   0.0000       6.977266       189.8611 
 315   0.0000       6.992527       190.2763 
 316   0.0000       7.010688       190.7705 
 317   0.0000       7.037702       191.5056 
 318   0.0000       7.068128       192.3335 
 319   0.0000       7.077426       192.5866 
 320   0.0000       7.327916       199.4027 
 321   0.0000       7.356943       200.1926 
 322   0.0000       7.393496       201.1872 
 323   0.0000       7.403804       201.4677 
 324   0.0000       7.411298       201.6717 
 325   0.0000       7.428420       202.1376 
 326   0.0000       7.455143       202.8647 
 327   0.0000       7.472599       203.3398 
 328   0.0000       7.498514       204.0449 
 329   0.0000       7.514080       204.4685 
 330   0.0000       7.545602       205.3263 
 331   0.0000       7.562281       205.7801 
 332   0.0000       7.565693       205.8730 
 333   0.0000       7.586380       206.4359 
 334   0.0000       7.590687       206.5531 
 335   0.0000       7.641872       207.9459 
 336   0.0000      44.883237      1221.3350 
 337   0.0000      44.921897      1222.3869 
 338   0.0000      44.956486      1223.3282 
 339   0.0000      44.966864      1223.6106 
 340   0.0000      44.971635      1223.7404 
 341   0.0000      45.004056      1224.6226 
 342   0.0000      45.065742      1226.3012 
 343   0.0000      45.069339      1226.3991 

                    ********************************
                    * MULLIKEN POPULATION ANALYSIS *
                    ********************************

-----------------------
MULLIKEN ATOMIC CHARGES
-----------------------
   0 O :   -0.754599
   1 H :    0.377606
   2 H :    0.395310
   3 O :   -0.732309
   4 H :    0.360862
   5 H :    0.401164
   6 O :   -0.764547
   7 H :    0.415956
   8 H :    0.353773
   9 O :   -0.783767
  10 H :    0.371213
  11 H :    0.379596
  12 O :   -0.754751
  13 H :    0.359621
  14 H :    0.406943
  15 O :   -0.726621
  16 H :    0.390713
  17 H :    0.328616
  18 O :   -0.777351
  19 H :    0.354452
  20 H :    0.398792
  21 O :   -0.727497
  22 H :    0.383196
  23 H :    0.343630
Sum of atomic charges:   -0.0000000

--------------------------------
MULLIKEN REDUCED ORBITAL CHARGES
--------------------------------
  0 O s       :     3.808134  s :     3.808134
      pz      :     1.736995  p :     4.921230
      px      :     1.791653
      py      :     1.392583
      dz2     :     0.004114  d :     0.023769
      dxz     :     0.005337
      dyz     :     0.004614
      dx2y2   :     0.002537
      dxy     :     0.007168
      f0      :     0.000086  f :     0.001466
      f+1     :     0.000178
      f-1     :     0.000335
      f+2     :     0.000061
      f-2     :     0.000347
      f+3     :     0.000367
      f-3     :     0.000092
  1 H s       :     0.577538  s :     0.577538
      pz      :     0.017070  p :     0.044855
      px      :     0.014540
      py      :     0.013245
  2 H s       :     0.564369  s :     0.564369
      pz      :     0.010237  p :     0.040321
      px      :     0.011966
      py      :     0.018118
  3 O s       :     3.795819  s :     3.795819
      pz      :     1.521444  p :     4.910153
      px      :     1.598606
      py      :     1.790104
      dz2     :     0.012367  d :     0.024941
      dxz     :     0.001264
      dyz     :     0.002333
      dx2y2   :     0.002365
      dxy     :     0.006612
      f0      :     0.000251  f :     0.001396
      f+1     :     0.000388
      f-1     :     0.000156
      f+2     :     0.000051
      f-2     :     0.000056
      f+3     :     0.000048
      f-3     :     0.000446
  4 H s       :     0.595253  s :     0.595253
      pz      :     0.019216  p :     0.043886
      px      :     0.011791
      py      :     0.012879
  5 H s       :     0.549746  s :     0.549746
      pz      :     0.009476  p :     0.049091
      px      :     0.024178
      py      :     0.015437
  6 O s       :     3.802899  s :     3.802899
      pz      :     1.624286  p :     4.936678
      px      :     1.848809
      py      :     1.463583
      dz2     :     0.010476  d :     0.023596
      dxz     :     0.002037
      dyz     :     0.002481
      dx2y2   :     0.003502
      dxy     :     0.005099
      f0      :     0.000161  f :     0.001374
      f+1     :     0.000110
      f-1     :     0.000439
      f+2     :     0.000068
      f-2     :     0.000036
      f+3     :     0.000452
      f-3     :     0.000108
  7 H s       :     0.535670  s :     0.535670
      pz      :     0.025760  p :     0.048374
      px      :     0.011976
      py      :     0.010638
  8 H s       :     0.604126  s :     0.604126
      pz      :     0.009501  p :     0.042101
      px      :     0.014074
      py      :     0.018526
  9 O s       :     3.807265  s :     3.807265
      pz      :     1.578015  p :     4.952597
      px      :     1.875996
      py      :     1.498585
      dz2     :     0.009906  d :     0.022512
      dxz     :     0.002304
      dyz     :     0.002524
      dx2y2   :     0.002830
      dxy     :     0.004947
      f0      :     0.000186  f :     0.001393
      f+1     :     0.000117
      f-1     :     0.000423
      f+2     :     0.000076
      f-2     :     0.000035
      f+3     :     0.000442
      f-3     :     0.000114
 10 H s       :     0.574786  s :     0.574786
      pz      :     0.009252  p :     0.054001
      px      :     0.015722
      py      :     0.029027
 11 H s       :     0.571220  s :     0.571220
      pz      :     0.023914  p :     0.049184
      px      :     0.013558
      py      :     0.011712
 12 O s       :     3.801822  s :     3.801822
      pz      :     1.552346  p :     4.927024
      px      :     1.530896
      py      :     1.843782
      dz2     :     0.011703  d :     0.024538
      dxz     :     0.002914
      dyz     :     0.002126
      dx2y2   :     0.003301
      dxy     :     0.004493
      f0      :     0.000171  f :     0.001368
      f+1     :     0.000463
      f-1     :     0.000114
      f+2     :     0.000068
      f-2     :     0.000041
      f+3     :     0.000097
      f-3     :     0.000414
 13 H s       :     0.596418  s :     0.596418
      pz      :     0.018814  p :     0.043961
      px      :     0.011655
      py      :     0.013492
 14 H s       :     0.540322  s :     0.540322
      pz      :     0.009134  p :     0.052736
      px      :     0.029087
      py      :     0.014515
 15 O s       :     3.810570  s :     3.810570
      pz      :     1.560291  p :     4.889235
      px      :     1.813450
      py      :     1.515493
      dz2     :     0.011515  d :     0.025332
      dxz     :     0.002956
      dyz     :     0.001192
      dx2y2   :     0.002111
      dxy     :     0.007557
      f0      :     0.000245  f :     0.001485
      f+1     :     0.000165
      f-1     :     0.000375
      f+2     :     0.000056
      f-2     :     0.000056
      f+3     :     0.000519
      f-3     :     0.000070
 16 H s       :     0.560559  s :     0.560559
      pz      :     0.024721  p :     0.048728
      px      :     0.012611
      py      :     0.011396
 17 H s       :     0.626398  s :     0.626398
      pz      :     0.011091  p :     0.044986
      px      :     0.016002
      py      :     0.017893
 18 O s       :     3.808568  s :     3.808568
      pz      :     1.711788  p :     4.944741
      px      :     1.811751
      py      :     1.421202
      dz2     :     0.003487  d :     0.022619
      dxz     :     0.005345
      dyz     :     0.004104
      dx2y2   :     0.002261
      dxy     :     0.007422
      f0      :     0.000078  f :     0.001423
      f+1     :     0.000176
      f-1     :     0.000309
      f+2     :     0.000070
      f-2     :     0.000348
      f+3     :     0.000353
      f-3     :     0.000089
 19 H s       :     0.599910  s :     0.599910
      pz      :     0.016843  p :     0.045638
      px      :     0.014904
      py      :     0.013891
 20 H s       :     0.544558  s :     0.544558
      pz      :     0.010192  p :     0.056650
      px      :     0.014091
      py      :     0.032367
 21 O s       :     3.812225  s :     3.812225
      pz      :     1.549227  p :     4.888167
      px      :     1.814611
      py      :     1.524329
      dz2     :     0.011734  d :     0.025617
      dxz     :     0.002998
      dyz     :     0.001249
      dx2y2   :     0.002091
      dxy     :     0.007545
      f0      :     0.000250  f :     0.001488
      f+1     :     0.000166
      f-1     :     0.000375
      f+2     :     0.000055
      f-2     :     0.000055
      f+3     :     0.000518
      f-3     :     0.000069
 22 H s       :     0.567991  s :     0.567991
      pz      :     0.024170  p :     0.048813
      px      :     0.013046
      py      :     0.011597
 23 H s       :     0.611642  s :     0.611642
      pz      :     0.010855  p :     0.044728
      px      :     0.015755
      py      :     0.018118


                     *******************************
                     * LOEWDIN POPULATION ANALYSIS *
                     *******************************

----------------------
LOEWDIN ATOMIC CHARGES
----------------------
   0 O :   -0.298792
   1 H :    0.169627
   2 H :    0.197937
   3 O :   -0.287627
   4 H :    0.169134
   5 H :    0.162666
   6 O :   -0.295639
   7 H :    0.165990
   8 H :    0.171433
   9 O :   -0.357395
  10 H :    0.146395
  11 H :    0.150307
  12 O :   -0.320627
  13 H :    0.166948
  14 H :    0.156758
  15 O :   -0.345256
  16 H :    0.158006
  17 H :    0.155128
  18 O :   -0.348959
  19 H :    0.157327
  20 H :    0.152782
  21 O :   -0.342783
  22 H :    0.154143
  23 H :    0.162498

-------------------------------
LOEWDIN REDUCED ORBITAL CHARGES
-------------------------------
  0 O s       :     3.460990  s :     3.460990
      pz      :     1.689563  p :     4.804862
      px      :     1.746227
      py      :     1.369072
      dz2     :     0.005430  d :     0.030901
      dxz     :     0.005210
      dyz     :     0.006730
      dx2y2   :     0.004178
      dxy     :     0.009354
      f0      :     0.000092  f :     0.002039
      f+1     :     0.000266
      f-1     :     0.000442
      f+2     :     0.000033
      f-2     :     0.000597
      f+3     :     0.000519
      f-3     :     0.000090
  1 H s       :     0.666175  s :     0.666175
      pz      :     0.066880  p :     0.164199
      px      :     0.052553
      py      :     0.044766
  2 H s       :     0.652411  s :     0.652411
      pz      :     0.033218  p :     0.149652
      px      :     0.043395
      py      :     0.073039
  3 O s       :     3.451992  s :     3.451992
      pz      :     1.514917  p :     4.801882
      px      :     1.555502
      py      :     1.731464
      dz2     :     0.016346  d :     0.031650
      dxz     :     0.002058
      dyz     :     0.001867
      dx2y2   :     0.003387
      dxy     :     0.007993
      f0      :     0.000470  f :     0.002103
      f+1     :     0.000574
      f-1     :     0.000330
      f+2     :     0.000021
      f-2     :     0.000051
      f+3     :     0.000025
      f-3     :     0.000631
  4 H s       :     0.671538  s :     0.671538
      pz      :     0.080607  p :     0.159328
      px      :     0.036678
      py      :     0.042043
  5 H s       :     0.663024  s :     0.663024
      pz      :     0.029459  p :     0.174310
      px      :     0.086969
      py      :     0.057881
  6 O s       :     3.456178  s :     3.456178
      pz      :     1.570232  p :     4.806694
      px      :     1.784596
      py      :     1.451866
      dz2     :     0.014093  d :     0.030772
      dxz     :     0.001220
      dyz     :     0.003389
      dx2y2   :     0.005390
      dxy     :     0.006679
      f0      :     0.000319  f :     0.001996
      f+1     :     0.000198
      f-1     :     0.000698
      f+2     :     0.000036
      f-2     :     0.000041
      f+3     :     0.000630
      f-3     :     0.000074
  7 H s       :     0.659237  s :     0.659237
      pz      :     0.097288  p :     0.174773
      px      :     0.041840
      py      :     0.035645
  8 H s       :     0.673854  s :     0.673854
      pz      :     0.030911  p :     0.154713
      px      :     0.049324
      py      :     0.074478
  9 O s       :     3.457642  s :     3.457642
      pz      :     1.547310  p :     4.869040
      px      :     1.838397
      py      :     1.483333
      dz2     :     0.013714  d :     0.028776
      dxz     :     0.001526
      dyz     :     0.003877
      dx2y2   :     0.003725
      dxy     :     0.005935
      f0      :     0.000369  f :     0.001937
      f+1     :     0.000181
      f-1     :     0.000693
      f+2     :     0.000042
      f-2     :     0.000043
      f+3     :     0.000545
      f-3     :     0.000065
 10 H s       :     0.666057  s :     0.666057
      pz      :     0.030325  p :     0.187548
      px      :     0.052750
      py      :     0.104473
 11 H s       :     0.677884  s :     0.677884
      pz      :     0.091143  p :     0.171808
      px      :     0.043333
      py      :     0.037332
 12 O s       :     3.460997  s :     3.460997
      pz      :     1.547404  p :     4.827357
      px      :     1.492300
      py      :     1.787653
      dz2     :     0.014695  d :     0.030282
      dxz     :     0.004144
      dyz     :     0.001309
      dx2y2   :     0.004690
      dxy     :     0.005446
      f0      :     0.000371  f :     0.001992
      f+1     :     0.000741
      f-1     :     0.000200
      f+2     :     0.000040
      f-2     :     0.000047
      f+3     :     0.000065
      f-3     :     0.000528
 13 H s       :     0.673245  s :     0.673245
      pz      :     0.079492  p :     0.159807
      px      :     0.037069
      py      :     0.043246
 14 H s       :     0.657253  s :     0.657253
      pz      :     0.029000  p :     0.185989
      px      :     0.104474
      py      :     0.052515
 15 O s       :     3.466878  s :     3.466878
      pz      :     1.540540  p :     4.844447
      px      :     1.785161
      py      :     1.518746
      dz2     :     0.015093  d :     0.031805
      dxz     :     0.002278
      dyz     :     0.001812
      dx2y2   :     0.002403
      dxy     :     0.010218
      f0      :     0.000426  f :     0.002125
      f+1     :     0.000317
      f-1     :     0.000563
      f+2     :     0.000024
      f-2     :     0.000045
      f+3     :     0.000746
      f-3     :     0.000003
 16 H s       :     0.670632  s :     0.670632
      pz      :     0.094174  p :     0.171362
      px      :     0.041582
      py      :     0.035605
 17 H s       :     0.687471  s :     0.687471
      pz      :     0.031568  p :     0.157401
      px      :     0.054904
      py      :     0.070929
 18 O s       :     3.460036  s :     3.460036
      pz      :     1.677131  p :     4.858188
      px      :     1.782650
      py      :     1.398408
      dz2     :     0.004487  d :     0.028770
      dxz     :     0.005486
      dyz     :     0.006554
      dx2y2   :     0.003260
      dxy     :     0.008982
      f0      :     0.000080  f :     0.001965
      f+1     :     0.000258
      f-1     :     0.000423
      f+2     :     0.000033
      f-2     :     0.000610
      f+3     :     0.000476
      f-3     :     0.000084
 19 H s       :     0.677827  s :     0.677827
      pz      :     0.065725  p :     0.164846
      px      :     0.053188
      py      :     0.045933
 20 H s       :     0.650305  s :     0.650305
      pz      :     0.033399  p :     0.196913
      px      :     0.047862
      py      :     0.115653
 21 O s       :     3.467340  s :     3.467340
      pz      :     1.533289  p :     4.841287
      px      :     1.785325
      py      :     1.522674
      dz2     :     0.015502  d :     0.032030
      dxz     :     0.002333
      dyz     :     0.001922
      dx2y2   :     0.002332
      dxy     :     0.009941
      f0      :     0.000444  f :     0.002126
      f+1     :     0.000317
      f-1     :     0.000563
      f+2     :     0.000024
      f-2     :     0.000045
      f+3     :     0.000730
      f-3     :     0.000003
 22 H s       :     0.675461  s :     0.675461
      pz      :     0.092380  p :     0.170396
      px      :     0.042087
      py      :     0.035929
 23 H s       :     0.679939  s :     0.679939
      pz      :     0.031145  p :     0.157562
      px      :     0.054769
      py      :     0.071648


                      *****************************
                      * MAYER POPULATION ANALYSIS *
                      *****************************

  NA   - Mulliken gross atomic population
  ZA   - Total nuclear charge
  QA   - Mulliken gross atomic charge
  VA   - Mayer's total valence
  BVA  - Mayer's bonded valence
  FA   - Mayer's free valence

  ATOM       NA         ZA         QA         VA         BVA        FA
  0 O      8.7546     8.0000    -0.7546     1.7479     1.7479    -0.0000
  1 H      0.6224     1.0000     0.3776     0.8732     0.8732    -0.0000
  2 H      0.6047     1.0000     0.3953     0.8587     0.8587    -0.0000
  3 O      8.7323     8.0000    -0.7323     1.7524     1.7524    -0.0000
  4 H      0.6391     1.0000     0.3609     0.8856     0.8856    -0.0000
  5 H      0.5988     1.0000     0.4012     0.8691     0.8691    -0.0000
  6 O      8.7645     8.0000    -0.7645     1.7253     1.7253    -0.0000
  7 H      0.5840     1.0000     0.4160     0.8627     0.8627    -0.0000
  8 H      0.6462     1.0000     0.3538     0.8978     0.8978    -0.0000
  9 O      8.7838     8.0000    -0.7838     1.6771     1.6771     0.0000
 10 H      0.6288     1.0000     0.3712     0.9079     0.9079     0.0000
 11 H      0.6204     1.0000     0.3796     0.8817     0.8817     0.0000
 12 O      8.7548     8.0000    -0.7548     1.7249     1.7249    -0.0000
 13 H      0.6404     1.0000     0.3596     0.8875     0.8875    -0.0000
 14 H      0.5931     1.0000     0.4069     0.8670     0.8670     0.0000
 15 O      8.7266     8.0000    -0.7266     1.7520     1.7520    -0.0000
 16 H      0.6093     1.0000     0.3907     0.8755     0.8755    -0.0000
 17 H      0.6714     1.0000     0.3286     0.9104     0.9104     0.0000
 18 O      8.7774     8.0000    -0.7774     1.6878     1.6878     0.0000
 19 H      0.6455     1.0000     0.3545     0.8912     0.8912    -0.0000
 20 H      0.6012     1.0000     0.3988     0.8786     0.8786     0.0000
 21 O      8.7275     8.0000    -0.7275     1.7569     1.7569    -0.0000
 22 H      0.6168     1.0000     0.3832     0.8757     0.8757     0.0000
 23 H      0.6564     1.0000     0.3436     0.8996     0.8996    -0.0000

  Mayer bond orders larger than 0.100000
B(  0-O ,  1-H ) :   0.8643 B(  0-O ,  2-H ) :   0.8456 B(  3-O ,  4-H ) :   0.8772 
B(  3-O ,  5-H ) :   0.8285 B(  6-O ,  7-H ) :   0.8091 B(  6-O ,  8-H ) :   0.8747 
B(  9-O , 10-H ) :   0.8166 B(  9-O , 11-H ) :   0.8588 B( 12-O , 13-H ) :   0.8783 
B( 12-O , 14-H ) :   0.8097 B( 15-O , 16-H ) :   0.8445 B( 15-O , 17-H ) :   0.8996 
B( 18-O , 19-H ) :   0.8830 B( 18-O , 20-H ) :   0.7933 B( 21-O , 22-H ) :   0.8560 
B( 21-O , 23-H ) :   0.8891 

-------
TIMINGS
-------

Total SCF time: 0 days 0 hours 0 min 25 sec 

Total time                  ....      25.756 sec
Sum of individual times     ....      25.468 sec  ( 98.9%)

Fock matrix formation       ....      24.905 sec  ( 96.7%)
Diagonalization             ....       0.139 sec  (  0.5%)
Density matrix formation    ....       0.016 sec  (  0.1%)
Population analysis         ....       0.014 sec  (  0.1%)
Initial guess               ....       0.189 sec  (  0.7%)
Orbital Transformation      ....       0.000 sec  (  0.0%)
Orbital Orthonormalization  ....       0.000 sec  (  0.0%)
DIIS solution               ....       0.055 sec  (  0.2%)
SOSCF solution              ....       0.060 sec  (  0.2%)


           ************************************************************
           *        Program running with 6 parallel MPI-processes     *
           *              working on a common directory               *
           ************************************************************

------------------------------------------------------------------------------
                                ORCA  MP2 
------------------------------------------------------------------------------

Freezing NCore=16 chemical core electrons
MP2 will be done in the AO integral direct mode
The Q1-step will be done using symmetric double matrices
Dimension of the basis                    ...  344
Memory devoted for MP2                    ... 8000 MB   
Memory needed for all in one shot         ...  935 MB
Number of MOs that can be treated together...   50      
MP2 density construction                  ... relaxed
The MP2 gradient is requested => amplitudes will be stored on disk
Total number of MOs              ...   32
Number of MOs treated per batch  ...    6 
Number of batches necessary      ...    1 
OPERATORS   0/  0 PASS   0
-----------------------------------------------
 MP2 CORRELATION ENERGY   :     -2.070221400 Eh
-----------------------------------------------


---------------------
MP2 DENSITY FORMATION
---------------------

Completing the external part of the density      ... done
Storing the unrelaxed density                    ... done

Calculating G(D)                                 ... done
Completing the Lagrangian                        ... done
Solving the Z-vector equations                   ... 

------------------------------------------------------------------------------
                           ORCA CP-SCF CALCULATION
------------------------------------------------------------------------------

Input orbitals are from        ... 12h2o.su.etal.mol2,3,4,5,6,9,10,11-orca.engrad-mp2.def2tzvp.frozencore.gbw
Input Perturbation             ... 12h2o.su.etal.mol2,3,4,5,6,9,10,11-orca.engrad-mp2.def2tzvp.frozencore.pin.tmp
Wavefunction output            ... 12h2o.su.etal.mol2,3,4,5,6,9,10,11-orca.engrad-mp2.def2tzvp.frozencore.pout.tmp
Perturbation mode              ... Real perturbation (singlet)
Solver                         ... POPLE
Max. number of iterations      ... 128
Convergence tolerance          ... 1.000e-08
Integral handling              ... Direct
Number of perturbations        ... 1
Number of operators            ... 1
Orbital ranges used for CP-SCF:
 Operator 0:  Orbitals   0... 39  to  40...343
Variables per vector in CP-SCF ... 12160
Number of vectors sought       ... 1
     CP-SCF ITERATION   0: 
     CP-SCF ITERATION   1:      0.001061660739
     CP-SCF ITERATION   2:      0.000028050086
     CP-SCF ITERATION   3:      0.000001314191
     CP-SCF ITERATION   4:      0.000000132211
     CP-SCF ITERATION   5:      0.000000013284
     CP-SCF ITERATION   6:      0.000000000706
                                                 ... done
Finalizing the relaxed density                   ... done
Transforming P to the AO basis                   ... done
Storing the relaxed density                      ... done

------------------------------------
ENERGY WEIGHTED DENSITY FINALIZATION
------------------------------------

Gathering the parts of the W-matrix              ...                                                      done
Forming the Z-density                            ... done
Transforming Z to the AO basis                   ... done
Calculating G(Z)                                 ... done
Finalizing the W-matrix                          ...                                                      done
Transforming W to the AO basis and storing       ... done

                *********************************************
                * UNRELAXED MP2 DENSITY POPULATION ANALYSIS *
                *********************************************

------------------------------------------------------------------------------
                           ORCA POPULATION ANALYSIS
------------------------------------------------------------------------------
Input electron density              ... 12h2o.su.etal.mol2,3,4,5,6,9,10,11-orca.engrad-mp2.def2tzvp.frozencore.pmp2ur
BaseName (.gbw .S,...)              ... 12h2o.su.etal.mol2,3,4,5,6,9,10,11-orca.engrad-mp2.def2tzvp.frozencore

                    ********************************
                    * MULLIKEN POPULATION ANALYSIS *
                    ********************************

-----------------------
MULLIKEN ATOMIC CHARGES
-----------------------
   0 O :   -0.748734
   1 H :    0.375377
   2 H :    0.392414
   3 O :   -0.725559
   4 H :    0.358358
   5 H :    0.397899
   6 O :   -0.757898
   7 H :    0.412759
   8 H :    0.350676
   9 O :   -0.777287
  10 H :    0.366304
  11 H :    0.376749
  12 O :   -0.747702
  13 H :    0.357061
  14 H :    0.402706
  15 O :   -0.721188
  16 H :    0.387710
  17 H :    0.325981
  18 O :   -0.771145
  19 H :    0.352190
  20 H :    0.394010
  21 O :   -0.722026
  22 H :    0.380302
  23 H :    0.341044
Sum of atomic charges:   -0.0000000

--------------------------------
MULLIKEN REDUCED ORBITAL CHARGES
--------------------------------
  0 O s       :     3.803311  s :     3.803311
      pz      :     1.725947  p :     4.890294
      px      :     1.779731
      py      :     1.384616
      dz2     :     0.009683  d :     0.051093
      dxz     :     0.010841
      dyz     :     0.010026
      dx2y2   :     0.008024
      dxy     :     0.012519
      f0      :     0.000458  f :     0.004036
      f+1     :     0.000546
      f-1     :     0.000698
      f+2     :     0.000431
      f-2     :     0.000712
      f+3     :     0.000728
      f-3     :     0.000464
  1 H s       :     0.578273  s :     0.578273
      pz      :     0.017528  p :     0.046350
      px      :     0.015203
      py      :     0.013619
  2 H s       :     0.565820  s :     0.565820
      pz      :     0.011046  p :     0.041766
      px      :     0.012683
      py      :     0.018037
  3 O s       :     3.790616  s :     3.790616
      pz      :     1.512269  p :     4.878644
      px      :     1.588926
      py      :     1.777449
      dz2     :     0.017485  d :     0.052305
      dxz     :     0.006715
      dyz     :     0.007933
      dx2y2   :     0.008080
      dxy     :     0.012092
      f0      :     0.000631  f :     0.003994
      f+1     :     0.000756
      f-1     :     0.000532
      f+2     :     0.000414
      f-2     :     0.000424
      f+3     :     0.000426
      f-3     :     0.000811
  4 H s       :     0.596164  s :     0.596164
      pz      :     0.019294  p :     0.045478
      px      :     0.012485
      py      :     0.013699
  5 H s       :     0.551530  s :     0.551530
      pz      :     0.010219  p :     0.050571
      px      :     0.024372
      py      :     0.015980
  6 O s       :     3.797827  s :     3.797827
      pz      :     1.614050  p :     4.904757
      px      :     1.836015
      py      :     1.454692
      dz2     :     0.015944  d :     0.051344
      dxz     :     0.007779
      dyz     :     0.007945
      dx2y2   :     0.009075
      dxy     :     0.010600
      f0      :     0.000551  f :     0.003970
      f+1     :     0.000490
      f-1     :     0.000809
      f+2     :     0.000435
      f-2     :     0.000404
      f+3     :     0.000806
      f-3     :     0.000476
  7 H s       :     0.537482  s :     0.537482
      pz      :     0.025843  p :     0.049760
      px      :     0.012752
      py      :     0.011165
  8 H s       :     0.605620  s :     0.605620
      pz      :     0.010326  p :     0.043704
      px      :     0.014818
      py      :     0.018560
  9 O s       :     3.802264  s :     3.802264
      pz      :     1.568125  p :     4.920856
      px      :     1.863758
      py      :     1.488974
      dz2     :     0.015367  d :     0.050183
      dxz     :     0.007975
      dyz     :     0.008030
      dx2y2   :     0.008394
      dxy     :     0.010417
      f0      :     0.000573  f :     0.003984
      f+1     :     0.000492
      f-1     :     0.000795
      f+2     :     0.000441
      f-2     :     0.000404
      f+3     :     0.000798
      f-3     :     0.000481
 10 H s       :     0.578019  s :     0.578019
      pz      :     0.010067  p :     0.055677
      px      :     0.016448
      py      :     0.029162
 11 H s       :     0.572480  s :     0.572480
      pz      :     0.024040  p :     0.050771
      px      :     0.014413
      py      :     0.012317
 12 O s       :     3.796529  s :     3.796529
      pz      :     1.542921  p :     4.895187
      px      :     1.521505
      py      :     1.830761
      dz2     :     0.016878  d :     0.052026
      dxz     :     0.008327
      dyz     :     0.007767
      dx2y2   :     0.008984
      dxy     :     0.010071
      f0      :     0.000553  f :     0.003961
      f+1     :     0.000830
      f-1     :     0.000487
      f+2     :     0.000434
      f-2     :     0.000409
      f+3     :     0.000470
      f-3     :     0.000777
 13 H s       :     0.597350  s :     0.597350
      pz      :     0.018950  p :     0.045589
      px      :     0.012296
      py      :     0.014344
 14 H s       :     0.542936  s :     0.542936
      pz      :     0.009930  p :     0.054359
      px      :     0.029247
      py      :     0.015181
 15 O s       :     3.805758  s :     3.805758
      pz      :     1.550790  p :     4.859395
      px      :     1.802122
      py      :     1.506483
      dz2     :     0.016643  d :     0.051989
      dxz     :     0.008419
      dyz     :     0.006588
      dx2y2   :     0.007578
      dxy     :     0.012761
      f0      :     0.000625  f :     0.004045
      f+1     :     0.000539
      f-1     :     0.000741
      f+2     :     0.000415
      f-2     :     0.000420
      f+3     :     0.000870
      f-3     :     0.000435
 16 H s       :     0.562058  s :     0.562058
      pz      :     0.024757  p :     0.050233
      px      :     0.013433
      py      :     0.012043
 17 H s       :     0.627296  s :     0.627296
      pz      :     0.011925  p :     0.046722
      px      :     0.016721
      py      :     0.018076
 18 O s       :     3.803675  s :     3.803675
      pz      :     1.700718  p :     4.913307
      px      :     1.800223
      py      :     1.412366
      dz2     :     0.009144  d :     0.050158
      dxz     :     0.010802
      dyz     :     0.009608
      dx2y2   :     0.007803
      dxy     :     0.012800
      f0      :     0.000451  f :     0.004006
      f+1     :     0.000542
      f-1     :     0.000675
      f+2     :     0.000439
      f-2     :     0.000715
      f+3     :     0.000721
      f-3     :     0.000463
 19 H s       :     0.600547  s :     0.600547
      pz      :     0.017313  p :     0.047263
      px      :     0.015619
      py      :     0.014331
 20 H s       :     0.547691  s :     0.547691
      pz      :     0.011006  p :     0.058299
      px      :     0.014822
      py      :     0.032471
 21 O s       :     3.807470  s :     3.807470
      pz      :     1.539835  p :     4.858239
      px      :     1.803197
      py      :     1.515207
      dz2     :     0.016845  d :     0.052268
      dxz     :     0.008464
      dyz     :     0.006636
      dx2y2   :     0.007562
      dxy     :     0.012760
      f0      :     0.000630  f :     0.004049
      f+1     :     0.000539
      f-1     :     0.000742
      f+2     :     0.000414
      f-2     :     0.000420
      f+3     :     0.000869
      f-3     :     0.000435
 22 H s       :     0.569315  s :     0.569315
      pz      :     0.024237  p :     0.050383
      px      :     0.013889
      py      :     0.012257
 23 H s       :     0.612558  s :     0.612558
      pz      :     0.011666  p :     0.046399
      px      :     0.016453
      py      :     0.018279


                     *******************************
                     * LOEWDIN POPULATION ANALYSIS *
                     *******************************

----------------------
LOEWDIN ATOMIC CHARGES
----------------------
   0 O :   -0.294323
   1 H :    0.168492
   2 H :    0.196150
   3 O :   -0.283355
   4 H :    0.167607
   5 H :    0.160551
   6 O :   -0.290811
   7 H :    0.163935
   8 H :    0.169404
   9 O :   -0.353968
  10 H :    0.143622
  11 H :    0.148272
  12 O :   -0.316443
  13 H :    0.165395
  14 H :    0.154178
  15 O :   -0.342303
  16 H :    0.156100
  17 H :    0.153421
  18 O :   -0.345549
  19 H :    0.156073
  20 H :    0.150128
  21 O :   -0.339715
  22 H :    0.152221
  23 H :    0.160917

-------------------------------
LOEWDIN REDUCED ORBITAL CHARGES
-------------------------------
  0 O s       :     3.457232  s :     3.457232
      pz      :     1.678102  p :     4.772985
      px      :     1.734068
      py      :     1.360815
      dz2     :     0.011130  d :     0.059303
      dxz     :     0.011004
      dyz     :     0.012349
      dx2y2   :     0.009767
      dxy     :     0.015053
      f0      :     0.000476  f :     0.004802
      f+1     :     0.000653
      f-1     :     0.000853
      f+2     :     0.000409
      f-2     :     0.001005
      f+3     :     0.000932
      f-3     :     0.000475
  1 H s       :     0.664432  s :     0.664432
      pz      :     0.068040  p :     0.167077
      px      :     0.053486
      py      :     0.045551
  2 H s       :     0.651330  s :     0.651330
      pz      :     0.034043  p :     0.152520
      px      :     0.044325
      py      :     0.074153
  3 O s       :     3.448194  s :     3.448194
      pz      :     1.505443  p :     4.770216
      px      :     1.545884
      py      :     1.718889
      dz2     :     0.022177  d :     0.060046
      dxz     :     0.007452
      dyz     :     0.007393
      dx2y2   :     0.009054
      dxy     :     0.013970
      f0      :     0.000892  f :     0.004899
      f+1     :     0.000997
      f-1     :     0.000729
      f+2     :     0.000390
      f-2     :     0.000426
      f+3     :     0.000408
      f-3     :     0.001056
  4 H s       :     0.669933  s :     0.669933
      pz      :     0.082160  p :     0.162460
      px      :     0.037453
      py      :     0.042847
  5 H s       :     0.662422  s :     0.662422
      pz      :     0.030191  p :     0.177027
      px      :     0.088078
      py      :     0.058757
  6 O s       :     3.452394  s :     3.452394
      pz      :     1.559665  p :     4.774039
      px      :     1.771744
      py      :     1.442630
      dz2     :     0.020140  d :     0.059587
      dxz     :     0.006883
      dyz     :     0.008906
      dx2y2   :     0.011162
      dxy     :     0.012496
      f0      :     0.000741  f :     0.004791
      f+1     :     0.000593
      f-1     :     0.001137
      f+2     :     0.000409
      f-2     :     0.000415
      f+3     :     0.001042
      f-3     :     0.000453
  7 H s       :     0.658723  s :     0.658723
      pz      :     0.098433  p :     0.177342
      px      :     0.042573
      py      :     0.036336
  8 H s       :     0.672619  s :     0.672619
      pz      :     0.031770  p :     0.157976
      px      :     0.050295
      py      :     0.075912
  9 O s       :     3.454010  s :     3.454010
      pz      :     1.536824  p :     4.837599
      px      :     1.826773
      py      :     1.474003
      dz2     :     0.019773  d :     0.057631
      dxz     :     0.007138
      dyz     :     0.009443
      dx2y2   :     0.009504
      dxy     :     0.011773
      f0      :     0.000789  f :     0.004727
      f+1     :     0.000571
      f-1     :     0.001136
      f+2     :     0.000414
      f-2     :     0.000417
      f+3     :     0.000958
      f-3     :     0.000442
 10 H s       :     0.666019  s :     0.666019
      pz      :     0.031174  p :     0.190359
      px      :     0.053615
      py      :     0.105570
 11 H s       :     0.676906  s :     0.676906
      pz      :     0.092550  p :     0.174822
      px      :     0.044123
      py      :     0.038148
 12 O s       :     3.457210  s :     3.457210
      pz      :     1.537664  p :     4.795606
      px      :     1.483154
      py      :     1.774788
      dz2     :     0.020529  d :     0.058844
      dxz     :     0.009576
      dyz     :     0.006871
      dx2y2   :     0.010528
      dxy     :     0.011340
      f0      :     0.000785  f :     0.004783
      f+1     :     0.001178
      f-1     :     0.000589
      f+2     :     0.000414
      f-2     :     0.000420
      f+3     :     0.000450
      f-3     :     0.000947
 13 H s       :     0.671626  s :     0.671626
      pz      :     0.081070  p :     0.162979
      px      :     0.037882
      py      :     0.044028
 14 H s       :     0.657175  s :     0.657175
      pz      :     0.029805  p :     0.188648
      px      :     0.105506
      py      :     0.053336
 15 O s       :     3.463171  s :     3.463171
      pz      :     1.531049  p :     4.814666
      px      :     1.774142
      py      :     1.509474
      dz2     :     0.020897  d :     0.059586
      dxz     :     0.007686
      dyz     :     0.007159
      dx2y2   :     0.007873
      dxy     :     0.015970
      f0      :     0.000847  f :     0.004879
      f+1     :     0.000714
      f-1     :     0.000983
      f+2     :     0.000388
      f-2     :     0.000417
      f+3     :     0.001156
      f-3     :     0.000375
 16 H s       :     0.669741  s :     0.669741
      pz      :     0.095450  p :     0.174159
      px      :     0.042378
      py      :     0.036330
 17 H s       :     0.685771  s :     0.685771
      pz      :     0.032361  p :     0.160808
      px      :     0.056021
      py      :     0.072427
 18 O s       :     3.456401  s :     3.456401
      pz      :     1.665615  p :     4.826990
      px      :     1.771493
      py      :     1.389882
      dz2     :     0.010232  d :     0.057413
      dxz     :     0.011270
      dyz     :     0.012267
      dx2y2   :     0.008915
      dxy     :     0.014729
      f0      :     0.000464  f :     0.004744
      f+1     :     0.000643
      f-1     :     0.000838
      f+2     :     0.000411
      f-2     :     0.001021
      f+3     :     0.000895
      f-3     :     0.000472
 19 H s       :     0.675949  s :     0.675949
      pz      :     0.066940  p :     0.167978
      px      :     0.054178
      py      :     0.046860
 20 H s       :     0.650538  s :     0.650538
      pz      :     0.034229  p :     0.199334
      px      :     0.048733
      py      :     0.116372
 21 O s       :     3.463641  s :     3.463641
      pz      :     1.523788  p :     4.811384
      px      :     1.774229
      py      :     1.513366
      dz2     :     0.021300  d :     0.059809
      dxz     :     0.007745
      dyz     :     0.007265
      dx2y2   :     0.007803
      dxy     :     0.015695
      f0      :     0.000864  f :     0.004881
      f+1     :     0.000714
      f-1     :     0.000984
      f+2     :     0.000387
      f-2     :     0.000417
      f+3     :     0.001140
      f-3     :     0.000375
 22 H s       :     0.674433  s :     0.674433
      pz      :     0.093764  p :     0.173346
      px      :     0.042905
      py      :     0.036677
 23 H s       :     0.678269  s :     0.678269
      pz      :     0.031915  p :     0.160814
      px      :     0.055841
      py      :     0.073058


                      *****************************
                      * MAYER POPULATION ANALYSIS *
                      *****************************

  NA   - Mulliken gross atomic population
[...]
      f-1     :     0.000657
      f+2     :     0.000439
      f-2     :     0.000695
      f+3     :     0.000703
      f-3     :     0.000461
 19 H s       :     0.606584  s :     0.606584
      pz      :     0.017418  p :     0.047991
      px      :     0.016209
      py      :     0.014363
 20 H s       :     0.571204  s :     0.571204
      pz      :     0.011711  p :     0.058497
      px      :     0.015367
      py      :     0.031420
 21 O s       :     3.809136  s :     3.809136
      pz      :     1.536191  p :     4.839933
      px      :     1.796540
      py      :     1.507202
      dz2     :     0.015610  d :     0.050105
      dxz     :     0.008440
      dyz     :     0.006591
      dx2y2   :     0.007469
      dxy     :     0.011994
      f0      :     0.000613  f :     0.003976
      f+1     :     0.000529
      f-1     :     0.000720
      f+2     :     0.000415
      f-2     :     0.000419
      f+3     :     0.000845
      f-3     :     0.000435
 22 H s       :     0.581486  s :     0.581486
      pz      :     0.023378  p :     0.050903
      px      :     0.014779
      py      :     0.012746
 23 H s       :     0.619032  s :     0.619032
      pz      :     0.012411  p :     0.047212
      px      :     0.017115
      py      :     0.017686


                     *******************************
                     * LOEWDIN POPULATION ANALYSIS *
                     *******************************

----------------------
LOEWDIN ATOMIC CHARGES
----------------------
   0 O :   -0.288153
   1 H :    0.170213
   2 H :    0.196845
   3 O :   -0.276727
   4 H :    0.169091
   5 H :    0.155811
   6 O :   -0.282297
   7 H :    0.158719
   8 H :    0.169651
   9 O :   -0.350730
  10 H :    0.136378
  11 H :    0.144622
  12 O :   -0.310416
  13 H :    0.166827
  14 H :    0.147219
  15 O :   -0.343267
  16 H :    0.152332
  17 H :    0.154563
  18 O :   -0.342313
  19 H :    0.158011
  20 H :    0.142503
  21 O :   -0.340084
  22 H :    0.148983
  23 H :    0.162219

-------------------------------
LOEWDIN REDUCED ORBITAL CHARGES
-------------------------------
  0 O s       :     3.458848  s :     3.458848
      pz      :     1.673409  p :     4.766173
      px      :     1.727022
      py      :     1.365742
      dz2     :     0.011097  d :     0.058309
      dxz     :     0.011004
      dyz     :     0.012001
      dx2y2   :     0.009558
      dxy     :     0.014650
      f0      :     0.000480  f :     0.004822
      f+1     :     0.000654
      f-1     :     0.000859
      f+2     :     0.000409
      f-2     :     0.001006
      f+3     :     0.000937
      f-3     :     0.000477
  1 H s       :     0.663057  s :     0.663057
      pz      :     0.068078  p :     0.166731
      px      :     0.053874
      py      :     0.044778
  2 H s       :     0.650898  s :     0.650898
      pz      :     0.034727  p :     0.152257
      px      :     0.044870
      py      :     0.072660
  3 O s       :     3.449024  s :     3.449024
      pz      :     1.507733  p :     4.763546
      px      :     1.547607
      py      :     1.708205
      dz2     :     0.021507  d :     0.059237
      dxz     :     0.007323
      dyz     :     0.007427
      dx2y2   :     0.009150
      dxy     :     0.013831
      f0      :     0.000890  f :     0.004919
      f+1     :     0.001004
      f-1     :     0.000730
      f+2     :     0.000391
      f-2     :     0.000426
      f+3     :     0.000410
      f-3     :     0.001068
  4 H s       :     0.668335  s :     0.668335
      pz      :     0.081355  p :     0.162574
      px      :     0.037745
      py      :     0.043474
  5 H s       :     0.666831  s :     0.666831
      pz      :     0.030556  p :     0.177358
      px      :     0.087708
      py      :     0.059094
  6 O s       :     3.453468  s :     3.453468
      pz      :     1.558341  p :     4.765168
      px      :     1.761459
      py      :     1.445369
      dz2     :     0.019868  d :     0.058847
      dxz     :     0.006967
      dyz     :     0.008745
      dx2y2   :     0.011010
      dxy     :     0.012257
      f0      :     0.000745  f :     0.004814
      f+1     :     0.000595
      f-1     :     0.001145
      f+2     :     0.000411
      f-2     :     0.000414
      f+3     :     0.001048
      f-3     :     0.000455
  7 H s       :     0.663814  s :     0.663814
      pz      :     0.097965  p :     0.177467
      px      :     0.043215
      py      :     0.036287
  8 H s       :     0.672097  s :     0.672097
      pz      :     0.032367  p :     0.158252
      px      :     0.050894
      py      :     0.074991
  9 O s       :     3.454948  s :     3.454948
      pz      :     1.534629  p :     4.833937
      px      :     1.823339
      py      :     1.475969
      dz2     :     0.019487  d :     0.057081
      dxz     :     0.007209
      dyz     :     0.009272
      dx2y2   :     0.009449
      dxy     :     0.011664
      f0      :     0.000794  f :     0.004765
      f+1     :     0.000573
      f-1     :     0.001149
      f+2     :     0.000417
      f-2     :     0.000416
      f+3     :     0.000971
      f-3     :     0.000445
 10 H s       :     0.672327  s :     0.672327
      pz      :     0.031610  p :     0.191296
      px      :     0.054295
      py      :     0.105391
 11 H s       :     0.680103  s :     0.680103
      pz      :     0.091902  p :     0.175276
      px      :     0.045020
      py      :     0.038354
 12 O s       :     3.458404  s :     3.458404
      pz      :     1.539484  p :     4.789056
      px      :     1.486177
      py      :     1.763394
      dz2     :     0.019973  d :     0.058146
      dxz     :     0.009350
      dyz     :     0.006939
      dx2y2   :     0.010566
      dxy     :     0.011318
      f0      :     0.000781  f :     0.004811
      f+1     :     0.001189
      f-1     :     0.000591
      f+2     :     0.000415
      f-2     :     0.000420
      f+3     :     0.000453
      f-3     :     0.000961
 13 H s       :     0.670088  s :     0.670088
      pz      :     0.080361  p :     0.163085
      px      :     0.038011
      py      :     0.044713
 14 H s       :     0.663616  s :     0.663616
      pz      :     0.030225  p :     0.189165
      px      :     0.105115
      py      :     0.053825
 15 O s       :     3.464544  s :     3.464544
      pz      :     1.532266  p :     4.815436
      px      :     1.771904
      py      :     1.511266
      dz2     :     0.020301  d :     0.058390
      dxz     :     0.007714
      dyz     :     0.007038
      dx2y2   :     0.007791
      dxy     :     0.015546
      f0      :     0.000851  f :     0.004897
      f+1     :     0.000712
      f-1     :     0.000991
      f+2     :     0.000390
      f-2     :     0.000417
      f+3     :     0.001162
      f-3     :     0.000375
 16 H s       :     0.673330  s :     0.673330
      pz      :     0.094570  p :     0.174339
      px      :     0.043158
      py      :     0.036611
 17 H s       :     0.684102  s :     0.684102
      pz      :     0.032854  p :     0.161335
      px      :     0.056669
      py      :     0.071813
 18 O s       :     3.457814  s :     3.457814
      pz      :     1.659712  p :     4.822917
      px      :     1.769831
      py      :     1.393374
      dz2     :     0.010273  d :     0.056798
      dxz     :     0.011203
      dyz     :     0.011932
      dx2y2   :     0.008921
      dxy     :     0.014470
      f0      :     0.000467  f :     0.004783
      f+1     :     0.000645
      f-1     :     0.000850
      f+2     :     0.000411
      f-2     :     0.001023
      f+3     :     0.000911
      f-3     :     0.000477
 19 H s       :     0.674050  s :     0.674050
      pz      :     0.066802  p :     0.167939
      px      :     0.054718
      py      :     0.046419
 20 H s       :     0.657875  s :     0.657875
      pz      :     0.034766  p :     0.199623
      px      :     0.049304
      py      :     0.115553
 21 O s       :     3.465138  s :     3.465138
      pz      :     1.524934  p :     4.811426
      px      :     1.771593
      py      :     1.514899
      dz2     :     0.020681  d :     0.058621
      dxz     :     0.007783
      dyz     :     0.007141
      dx2y2   :     0.007722
      dxy     :     0.015295
      f0      :     0.000868  f :     0.004899
      f+1     :     0.000712
      f-1     :     0.000991
      f+2     :     0.000389
      f-2     :     0.000417
      f+3     :     0.001146
      f-3     :     0.000375
 22 H s       :     0.677322  s :     0.677322
      pz      :     0.092942  p :     0.173695
      px      :     0.043760
      py      :     0.036992
 23 H s       :     0.676704  s :     0.676704
      pz      :     0.032336  p :     0.161077
      px      :     0.056376
      py      :     0.072365


                      *****************************
                      * MAYER POPULATION ANALYSIS *
                      *****************************

  NA   - Mulliken gross atomic population
  ZA   - Total nuclear charge
  QA   - Mulliken gross atomic charge
  VA   - Mayer's total valence
  BVA  - Mayer's bonded valence
  FA   - Mayer's free valence

  ATOM       NA         ZA         QA         VA         BVA        FA
  0 O      8.7255     8.0000    -0.7255     2.1010     1.7145     0.3865
  1 H      0.6317     1.0000     0.3683     0.8842     0.8399     0.0443
  2 H      0.6155     1.0000     0.3845     0.8730     0.8272     0.0458
  3 O      8.6976     8.0000    -0.6976     2.0972     1.7148     0.3824
  4 H      0.6475     1.0000     0.3525     0.8966     0.8500     0.0467
  5 H      0.6185     1.0000     0.3815     0.8980     0.8551     0.0429
  6 O      8.7274     8.0000    -0.7274     2.0905     1.7027     0.3878
  7 H      0.6057     1.0000     0.3943     0.8940     0.8523     0.0417
  8 H      0.6585     1.0000     0.3415     0.9163     0.8674     0.0489
  9 O      8.7478     8.0000    -0.7478     2.0225     1.6324     0.3902
 10 H      0.6591     1.0000     0.3409     0.9496     0.9022     0.0474
 11 H      0.6380     1.0000     0.3620     0.9056     0.8608     0.0449
 12 O      8.7181     8.0000    -0.7181     2.0724     1.6860     0.3864
 13 H      0.6492     1.0000     0.3508     0.8989     0.8518     0.0471
 14 H      0.6183     1.0000     0.3817     0.9032     0.8592     0.0439
 15 O      8.7025     8.0000    -0.7025     2.0744     1.6912     0.3832
 16 H      0.6268     1.0000     0.3732     0.9017     0.8581     0.0436
 17 H      0.6813     1.0000     0.3187     0.9244     0.8748     0.0495
 18 O      8.7450     8.0000    -0.7450     2.0294     1.6403     0.3891
 19 H      0.6546     1.0000     0.3454     0.9016     0.8552     0.0464
 20 H      0.6297     1.0000     0.3703     0.9149     0.8696     0.0453
 21 O      8.7031     8.0000    -0.7031     2.0809     1.6977     0.3832
 22 H      0.6324     1.0000     0.3676     0.8990     0.8547     0.0444
 23 H      0.6662     1.0000     0.3338     0.9130     0.8648     0.0482

  Mayer bond orders larger than 0.100000
B(  0-O ,  1-H ) :   0.8295 B(  0-O ,  2-H ) :   0.8097 B(  3-O ,  4-H ) :   0.8396 
B(  3-O ,  5-H ) :   0.7950 B(  3-O , 20-H ) :   0.1033 B(  6-O ,  7-H ) :   0.7781 
B(  6-O ,  8-H ) :   0.8351 B(  9-O , 10-H ) :   0.7754 B(  9-O , 11-H ) :   0.8255 
B( 10-H , 12-O ) :   0.1050 B( 12-O , 13-H ) :   0.8405 B( 12-O , 14-H ) :   0.7736 
B( 15-O , 16-H ) :   0.8132 B( 15-O , 17-H ) :   0.8600 B( 18-O , 19-H ) :   0.8462 
B( 18-O , 20-H ) :   0.7557 B( 21-O , 22-H ) :   0.8231 B( 21-O , 23-H ) :   0.8509 



----------------------------------
MP2 DERIVATIVE INTEGRAL GENERATION
----------------------------------


Input Wavefunction Amplitudes       ... 12h2o.su.etal.mol2,3,4,5,6,9,10,11-orca.engrad-mp2.def2tzvp.frozencore.mp2tsaa.tmp
Input Correlated Electron Density   ... 12h2o.su.etal.mol2,3,4,5,6,9,10,11-orca.engrad-mp2.def2tzvp.frozencore.pmp2re
Input Energy Weighted Density       ... 12h2o.su.etal.mol2,3,4,5,6,9,10,11-orca.engrad-mp2.def2tzvp.frozencore.wmp2.tmp
Input SCF Electron Density          ... 12h2o.su.etal.mol2,3,4,5,6,9,10,11-orca.engrad-mp2.def2tzvp.frozencore.scfp

One-Electron Terms    ...
                        ... One-Electron Terms done
Prescreening matrices              ... done

Batch handling in the gradient evaluation:
Memory available                      ... 8000.0 MB
Memory per occupied orbital in Q2     ...   28.9 MB
Memory per occupied orbital in Q3     ...    0.1 MB
Total memory requirement per |i>      ...   29.0 MB
Max. Number of orbitals possible      ...    275
Number of orbitals treated per batch  ...     32
Number of batches to be done          ...      1
Batch   0: i=    8 ...    39

---------------------------------------
MP2 TOTAL ENERGY:     -610.578237181 Eh
---------------------------------------

The final MP2 gradient
  0:  -0.00470386  -0.02622737   0.00364701
  1:  -0.00269180   0.00012672   0.00287279
  2:   0.00647913   0.02410047  -0.00209751
  3:   0.00136924   0.00194163  -0.00996732
  4:  -0.00057179   0.00300036   0.00812563
  5:   0.00017120   0.00211001  -0.00106382
  6:   0.00824432   0.01768850  -0.00059375
  7:  -0.00059537  -0.00011111   0.00701447
  8:  -0.00694315  -0.01569696  -0.00150132
  9:  -0.00169890  -0.00175467   0.00489813
 10:   0.00216841   0.00430347   0.00122599
 11:   0.00136254  -0.00180286  -0.00738809
 12:  -0.00000701  -0.00038703  -0.00976352
 13:   0.00147989  -0.00142004   0.00817454
 14:  -0.00444444  -0.00067142  -0.00039047
 15:  -0.00705664  -0.00919522  -0.00064425
 16:   0.00289583  -0.00153902  -0.00014193
 17:   0.00685692   0.00989143  -0.00003257
 18:   0.00374929   0.00594858  -0.00436784
 19:   0.00023473   0.00035917   0.00067909
 20:  -0.00382534  -0.01126470   0.00355423
 21:   0.00581374   0.00805724   0.00302464
 22:  -0.00140014   0.00089946  -0.00468858
 23:  -0.00688680  -0.00835664  -0.00057554

-----------------------------------
NORM OF THE MP2 GRADIENT:  0.057834
-----------------------------------

-------------------------   --------------------
FINAL SINGLE POINT ENERGY      -610.578237180751
-------------------------   --------------------


                            ***************************************
                            *     ORCA property calculations      *
                            ***************************************

                                    ---------------------
                                    Active property flags
                                    ---------------------
   (+) Dipole Moment


------------------------------------------------------------------------------
                       ORCA ELECTRIC PROPERTIES CALCULATION
------------------------------------------------------------------------------

Dipole Moment Calculation                       ... on
Quadrupole Moment Calculation                   ... off
Polarizability Calculation                      ... off
GBWName                                         ... 12h2o.su.etal.mol2,3,4,5,6,9,10,11-orca.engrad-mp2.def2tzvp.frozencore.gbw
Electron density file                           ... 12h2o.su.etal.mol2,3,4,5,6,9,10,11-orca.engrad-mp2.def2tzvp.frozencore.scfp
The origin for moment calculation is the CENTER OF MASS  = (-0.003366,  0.032239 -0.654533)

-------------
DIPOLE MOMENT
-------------
                                X             Y             Z
Electronic contribution:     -0.06434      -0.02563      -0.37016
Nuclear contribution   :      0.00057      -0.11171      -2.72557
                        -----------------------------------------
Total Dipole Moment    :     -0.06376      -0.13734      -3.09574
                        -----------------------------------------
Magnitude (a.u.)       :      3.09944
Magnitude (Debye)      :      7.87814



--------------------
Rotational spectrum 
--------------------
 
Rotational constants in cm-1:     0.031438     0.019864     0.014742 
Rotational constants in MHz :   942.499915   595.509354   441.954995 

 Dipole components along the rotational axes: 
x,y,z [a.u.] :    -3.072731    -0.130848    -0.384340 
x,y,z [Debye]:    -7.810262    -0.332589    -0.976916 

 

                         *** MP2 UNRELAXED DENSITY ***

------------------------------------------------------------------------------
                       ORCA ELECTRIC PROPERTIES CALCULATION
------------------------------------------------------------------------------

Dipole Moment Calculation                       ... on
Quadrupole Moment Calculation                   ... off
Polarizability Calculation                      ... off
GBWName                                         ... 12h2o.su.etal.mol2,3,4,5,6,9,10,11-orca.engrad-mp2.def2tzvp.frozencore.gbw
Electron density file                           ... 12h2o.su.etal.mol2,3,4,5,6,9,10,11-orca.engrad-mp2.def2tzvp.frozencore.pmp2ur
The origin for moment calculation is the CENTER OF MASS  = (-0.003366,  0.032239 -0.654533)

-------------
DIPOLE MOMENT
-------------
                                X             Y             Z
Electronic contribution:     -0.06509      -0.02501      -0.35044
Nuclear contribution   :      0.00057      -0.11171      -2.72557
                        -----------------------------------------
Total Dipole Moment    :     -0.06451      -0.13672      -3.07602
                        -----------------------------------------
Magnitude (a.u.)       :      3.07973
Magnitude (Debye)      :      7.82805



--------------------
Rotational spectrum 
--------------------
 
Rotational constants in cm-1:     0.031438     0.019864     0.014742 
Rotational constants in MHz :   942.499915   595.509354   441.954995 

 Dipole components along the rotational axes: 
x,y,z [a.u.] :    -3.053346    -0.129716    -0.380762 
x,y,z [Debye]:    -7.760988    -0.329713    -0.967820 

 

                           *** MP2 RELAXED DENSITY ***

------------------------------------------------------------------------------
                       ORCA ELECTRIC PROPERTIES CALCULATION
------------------------------------------------------------------------------

Dipole Moment Calculation                       ... on
Quadrupole Moment Calculation                   ... off
Polarizability Calculation                      ... off
GBWName                                         ... 12h2o.su.etal.mol2,3,4,5,6,9,10,11-orca.engrad-mp2.def2tzvp.frozencore.gbw
Electron density file                           ... 12h2o.su.etal.mol2,3,4,5,6,9,10,11-orca.engrad-mp2.def2tzvp.frozencore.pmp2re
The origin for moment calculation is the CENTER OF MASS  = (-0.003366,  0.032239 -0.654533)

-------------
DIPOLE MOMENT
-------------
                                X             Y             Z
Electronic contribution:     -0.06831      -0.02400      -0.34131
Nuclear contribution   :      0.00057      -0.11171      -2.72557
                        -----------------------------------------
Total Dipole Moment    :     -0.06774      -0.13571      -3.06688
                        -----------------------------------------
Magnitude (a.u.)       :      3.07063
Magnitude (Debye)      :      7.80492



--------------------
Rotational spectrum 
--------------------
 
Rotational constants in cm-1:     0.031438     0.019864     0.014742 
Rotational constants in MHz :   942.499915   595.509354   441.954995 

 Dipole components along the rotational axes: 
x,y,z [a.u.] :    -3.044755    -0.127240    -0.376899 
x,y,z [Debye]:    -7.739153    -0.323418    -0.958001 

 

Timings for individual modules:

Sum of individual times         ...      179.340 sec (=   2.989 min)
GTO integral calculation        ...        1.037 sec (=   0.017 min)   0.6 %
SCF iterations                  ...       26.456 sec (=   0.441 min)  14.8 %
MP2 module                      ...      151.848 sec (=   2.531 min)  84.7 %
                             ****ORCA TERMINATED NORMALLY****
TOTAL RUN TIME: 0 days 0 hours 3 minutes 0 seconds 350 msec
