
                                 *****************
                                 * O   R   C   A *
                                 *****************

           --- An Ab Initio, DFT and Semiempirical electronic structure package ---

                  #######################################################
                  #                        -***-                        #
                  #          Department of theory and spectroscopy      #
                  #               Directorship: Frank Neese             #
                  #        Max Planck Institute fuer Kohlenforschung    #
                  #                Kaiser Wilhelm Platz 1               #
                  #                 D-45470 Muelheim/Ruhr               #
                  #                      Germany                        #
                  #                                                     #
                  #                  All rights reserved                #
                  #                        -***-                        #
                  #######################################################


                         Program Version 4.2.0 -  RELEASE  -


 With contributions from (in alphabetic order):
   Daniel Aravena         : Magnetic Suceptibility
   Michael Atanasov       : Ab Initio Ligand Field Theory (pilot matlab implementation)
   Alexander A. Auer      : GIAO ZORA, VPT2
   Ute Becker             : Parallelization
   Giovanni Bistoni       : ED, misc. LED, open-shell LED, HFLED
   Martin Brehm           : Molecular dynamics
   Dmytro Bykov           : SCF Hessian
   Vijay G. Chilkuri      : MRCI spin determinant printing, contributions to CSF-ICE
   Dipayan Datta          : RHF DLPNO-CCSD density
   Achintya Kumar Dutta   : EOM-CC, STEOM-CC
   Dmitry Ganyushin       : Spin-Orbit,Spin-Spin,Magnetic field MRCI
   Miquel Garcia          : C-PCM Hessian, Gaussian charge scheme
   Yang Guo               : DLPNO-NEVPT2, CIM, IAO-localization
   Andreas Hansen         : Spin unrestricted coupled pair/coupled cluster methods
   Benjamin Helmich-Paris : CASSCF linear response (MC-RPA)
   Lee Huntington         : MR-EOM, pCC
   Robert Izsak           : Overlap fitted RIJCOSX, COSX-SCS-MP3, EOM
   Christian Kollmar      : KDIIS, OOCD, Brueckner-CCSD(T), CCSD density
   Simone Kossmann        : Meta GGA functionals, TD-DFT gradient, OOMP2, MP2 Hessian
   Martin Krupicka        : AUTO-CI
   Lucas Lang             : DCDCAS
   Dagmar Lenk            : GEPOL surface, SMD
   Dimitrios Liakos       : Extrapolation schemes; Compound Job, initial MDCI parallelization
   Dimitrios Manganas     : Further ROCIS development; embedding schemes
   Dimitrios Pantazis     : SARC Basis sets
   Taras Petrenko         : DFT Hessian,TD-DFT gradient, ASA, ECA, R-Raman, ABS, FL, XAS/XES, NRVS
   Peter Pinski           : DLPNO-MP2, DLPNO-MP2 Gradient
   Christoph Reimann      : Effective Core Potentials
   Marius Retegan         : Local ZFS, SOC
   Christoph Riplinger    : Optimizer, TS searches, QM/MM, DLPNO-CCSD(T), (RO)-DLPNO pert. Triples
   Tobias Risthaus        : Range-separated hybrids, TD-DFT gradient, RPA, STAB
   Michael Roemelt        : Original ROCIS implementation
   Masaaki Saitow         : Open-shell DLPNO-CCSD energy and density
   Barbara Sandhoefer     : DKH picture change effects
   Avijit Sen             : IP-ROCIS
   Kantharuban Sivalingam : CASSCF convergence, NEVPT2, FIC-MRCI
   Bernardo de Souza      : ESD, SOC TD-DFT
   Georgi Stoychev        : AutoAux, RI-MP2 NMR
   Willem Van den Heuvel  : Paramagnetic NMR
   Boris Wezisla          : Elementary symmetry handling
   Frank Wennmohs         : Technical directorship


 We gratefully acknowledge several colleagues who have allowed us to
 interface, adapt or use parts of their codes:
   Stefan Grimme, W. Hujo, H. Kruse,             : VdW corrections, initial TS optimization,
                  C. Bannwarth                     DFT functionals, gCP, sTDA/sTD-DF
   Ed Valeev, F. Pavosevic, A. Kumar             : LibInt (2-el integral package), F12 methods
   Garnet Chan, S. Sharma, J. Yang, R. Olivares  : DMRG
   Ulf Ekstrom                                   : XCFun DFT Library
   Mihaly Kallay                                 : mrcc  (arbitrary order and MRCC methods)
   Andreas Klamt, Michael Diedenhofen            : otool_cosmo (COSMO solvation model)
   Jiri Pittner, Ondrej Demel                    : Mk-CCSD
   Frank Weinhold                                : gennbo (NPA and NBO analysis)
   Christopher J. Cramer and Donald G. Truhlar   : smd solvation model
   Lars Goerigk                                  : TD-DFT with DH, B97 family of functionals
   V. Asgeirsson, H. Jonsson                     : NEB implementation
   FAccTs GmbH                                   : IRC, NEB, NEB-TS, Multilevel, MM, QM/MM, CI optimization
   S Lehtola, MJT Oliveira, MAL Marques          : LibXC Library


 Your calculation uses the libint2 library for the computation of 2-el integrals
 For citations please refer to: http://libint.valeyev.net

 Your ORCA version has been built with support for libXC version: 4.2.3
 For citations please refer to: https://tddft.org/programs/libxc/

 This ORCA versions uses:
   CBLAS   interface :  Fast vector & matrix operations
   LAPACKE interface :  Fast linear algebra routines
   SCALAPACK package :  Parallel linear algebra routines


----- Orbital basis set information -----
Your calculation utilizes the basis: def2-TZVP
   F. Weigend and R. Ahlrichs, Phys. Chem. Chem. Phys. 7, 3297 (2005).

================================================================================
                                        WARNINGS
                       Please study these warnings very carefully!
================================================================================


WARNING: The frozen-core approximation for MP2-gradient calculations is turned on by default.

INFO   : the flag for use of LIBINT has been found!

================================================================================
                                       INPUT FILE
================================================================================
NAME = 12mecn.remya.etal.2.mol6,7,8-orca.engrad-mp2.def2tzvp.frozencore.inp
|  1> # 12mecn.remya.etal.2.mol6,7,8
|  2> ! MP2 def2-TZVP EnGrad TightSCF
|  3> 
|  4> %pal
|  5>     nprocs 6
|  6> end
|  7> 
|  8> %maxcore 8000
|  9> 
| 10> %scf
| 11>     ConvForced true
| 12> end
| 13> 
| 14> *xyz 0 1
| 15> C   5.300864000  -2.920090000   1.401103000
| 16> H   5.986071000  -2.139770000   1.737487000
| 17> H   5.636642000  -3.888750000   1.778233000
| 18> H   4.307359000  -2.697240000   1.799307000
| 19> C   5.234791000  -2.933140000  -0.043290000
| 20> N   5.170868000  -2.941760000  -1.207750000
| 21> C   1.502241000   0.651296000   1.710523000
| 22> H   1.309219000   1.637164000   2.143202000
| 23> H   2.493408000   0.297996000   2.009069000
| 24> H   0.746597000  -0.059850000   2.055508000
| 25> C   1.447974000   0.738517000   0.269805000
| 26> N   1.405612000   0.808047000  -0.894380000
| 27> C   1.912641000  -2.468050000  -1.750510000
| 28> H   2.876947000  -2.793500000  -2.151200000
| 29> H   1.688016000  -1.463720000  -2.122170000
| 30> H   1.123460000  -3.154780000  -2.069590000
| 31> C   1.977850000  -2.444240000  -0.306900000
| 32> N   2.036566000  -2.426130000   0.858249000
| 33> *
| 34> 
| 35>                          ****END OF INPUT****
================================================================================

                     *******************************
                     * Energy+Gradient Calculation *
                     *******************************

---------------------------------
CARTESIAN COORDINATES (ANGSTROEM)
---------------------------------
  C      5.300864   -2.920090    1.401103
  H      5.986071   -2.139770    1.737487
  H      5.636642   -3.888750    1.778233
  H      4.307359   -2.697240    1.799307
  C      5.234791   -2.933140   -0.043290
  N      5.170868   -2.941760   -1.207750
  C      1.502241    0.651296    1.710523
  H      1.309219    1.637164    2.143202
  H      2.493408    0.297996    2.009069
  H      0.746597   -0.059850    2.055508
  C      1.447974    0.738517    0.269805
  N      1.405612    0.808047   -0.894380
  C      1.912641   -2.468050   -1.750510
  H      2.876947   -2.793500   -2.151200
  H      1.688016   -1.463720   -2.122170
  H      1.123460   -3.154780   -2.069590
  C      1.977850   -2.444240   -0.306900
  N      2.036566   -2.426130    0.858249

----------------------------
CARTESIAN COORDINATES (A.U.)
----------------------------
  NO LB      ZA    FRAG     MASS         X           Y           Z
   0 C     6.0000    0    12.011   10.017181   -5.518170    2.647701
   1 H     1.0000    0     1.008   11.312035   -4.043579    3.283375
   2 H     1.0000    0     1.008   10.651710   -7.348673    3.360373
   3 H     1.0000    0     1.008    8.139729   -5.097045    3.400197
   4 C     6.0000    0    12.011    9.892321   -5.542831   -0.081806
   5 N     7.0000    0    14.007    9.771524   -5.559121   -2.282317
   6 C     6.0000    0    12.011    2.838824    1.230771    3.232420
   7 H     1.0000    0     1.008    2.474065    3.093792    4.050065
   8 H     1.0000    0     1.008    4.711858    0.563131    3.796590
   9 H     1.0000    0     1.008    1.410864   -0.113100    3.884347
  10 C     6.0000    0    12.011    2.736274    1.395595    0.509858
  11 N     7.0000    0    14.007    2.656222    1.526988   -1.690133
  12 C     6.0000    0    12.011    3.614368   -4.663939   -3.307984
  13 H     1.0000    0     1.008    5.436642   -5.278950   -4.065179
  14 H     1.0000    0     1.008    3.189888   -2.766030   -4.010320
  15 H     1.0000    0     1.008    2.123032   -5.961670   -3.910958
  16 C     6.0000    0    12.011    3.737595   -4.618944   -0.579957
  17 N     7.0000    0    14.007    3.848552   -4.584721    1.621856

--------------------------------
INTERNAL COORDINATES (ANGSTROEM)
--------------------------------
 C      0   0   0     0.000000000000     0.00000000     0.00000000
 H      1   0   0     1.091586978076     0.00000000     0.00000000
 H      1   2   0     1.092371776358   109.54533538     0.00000000
 H      1   2   3     1.093288952263   108.20839361   119.35754574
 C      1   2   3     1.445962337780   110.05738052   238.26291057
 N      5   1   2     1.166245062553   179.46874677   239.41288738
 C      4   1   2     4.369126106657   137.07561007    55.39514671
 H      7   4   1     1.093802689222   142.75367980   283.28831940
 H      7   4   1     1.093783628514    33.39460527   298.44498360
 H      7   4   1     1.093499491667    86.49292593   164.52142988
 C      7   4   1     1.444375562537    95.20227370    55.59270233
 N     11   7   4     1.167028566132   179.91347457   342.46016735
 C      6   5   1     3.336919652199   102.40808581   358.30047196
 H     13   6   5     1.093780709391    32.48951105   197.28979368
 H     13   6   5     1.094196643719   112.70552118   106.81784384
 H     13   6   5     1.093716960672   131.51835365   254.69239288
 C     13   6   5     1.445278160729    78.21842806     0.44247106
 N     17  13   6     1.166768071622   179.69652586   358.17586220

---------------------------
INTERNAL COORDINATES (A.U.)
---------------------------
 C      0   0   0     0.000000000000     0.00000000     0.00000000
 H      1   0   0     2.062800439918     0.00000000     0.00000000
 H      1   2   0     2.064283493742   109.54533538     0.00000000
 H      1   2   3     2.066016705019   108.20839361   119.35754574
 C      1   2   3     2.732472818369   110.05738052   238.26291057
 N      5   1   2     2.203883773263   179.46874677   239.41288738
 C      4   1   2     8.256451786148   137.07561007    55.39514671
 H      7   4   1     2.066987527176   142.75367980   283.28831940
 H      7   4   1     2.066951507658    33.39460527   298.44498360
 H      7   4   1     2.066414566834    86.49292593   164.52142988
 C      7   4   1     2.729474247723    95.20227370    55.59270233
 N     11   7   4     2.205364380453   179.91347457   342.46016735
 C      6   5   1     6.305864273555   102.40808581   358.30047196
 H     13   6   5     2.066945991315    32.48951105   197.28979368
 H     13   6   5     2.067731993284   112.70552118   106.81784384
 H     13   6   5     2.066825523694   131.51835365   254.69239288
 C     13   6   5     2.731179911116    78.21842806     0.44247106
 N     17  13   6     2.204872117169   179.69652586   358.17586220

---------------------
BASIS SET INFORMATION
---------------------
There are 3 groups of distinct atoms

 Group   1 Type C   : 11s6p2d1f contracted to 5s3p2d1f pattern {62111/411/11/1}
 Group   2 Type H   : 5s1p contracted to 3s1p pattern {311/1}
 Group   3 Type N   : 11s6p2d1f contracted to 5s3p2d1f pattern {62111/411/11/1}

Atom   0C    basis set group =>   1
Atom   1H    basis set group =>   2
Atom   2H    basis set group =>   2
Atom   3H    basis set group =>   2
Atom   4C    basis set group =>   1
Atom   5N    basis set group =>   3
Atom   6C    basis set group =>   1
Atom   7H    basis set group =>   2
Atom   8H    basis set group =>   2
Atom   9H    basis set group =>   2
Atom  10C    basis set group =>   1
Atom  11N    basis set group =>   3
Atom  12C    basis set group =>   1
Atom  13H    basis set group =>   2
Atom  14H    basis set group =>   2
Atom  15H    basis set group =>   2
Atom  16C    basis set group =>   1
Atom  17N    basis set group =>   3


           ************************************************************
           *        Program running with 6 parallel MPI-processes     *
           *              working on a common directory               *
           ************************************************************
------------------------------------------------------------------------------
                           ORCA GTO INTEGRAL CALCULATION
------------------------------------------------------------------------------

                         BASIS SET STATISTICS AND STARTUP INFO

 # of primitive gaussian shells          ...  234
 # of primitive gaussian functions       ...  486
 # of contracted shells                  ...  135
 # of contracted basis functions         ...  333
 Highest angular momentum                ...    3
 Maximum contraction depth               ...    6
 Integral package used                   ... LIBINT
 Integral threshhold            Thresh   ...  2.500e-11
 Primitive cut-off              TCut     ...  2.500e-12


------------------------------ INTEGRAL EVALUATION ----------------------------


 * One electron integrals 
 Pre-screening matrix                    ... done
 Shell pair data                         ... done (   0.002 sec)



           ************************************************************
           *        Program running with 6 parallel MPI-processes     *
           *              working on a common directory               *
           ************************************************************
-------------------------------------------------------------------------------
                                 ORCA SCF
-------------------------------------------------------------------------------

------------
SCF SETTINGS
------------
Hamiltonian:
 Ab initio Hamiltonian  Method          .... Hartree-Fock(GTOs)


General Settings:
 Integral files         IntName         .... 12mecn.remya.etal.2.mol6,7,8-orca.engrad-mp2.def2tzvp.frozencore
 Hartree-Fock type      HFTyp           .... RHF
 Total Charge           Charge          ....    0
 Multiplicity           Mult            ....    1
 Number of Electrons    NEL             ....   66
 Basis Dimension        Dim             ....  333
 Nuclear Repulsion      ENuc            ....    361.4147200712 Eh

Convergence Acceleration:
 DIIS                   CNVDIIS         .... on
   Start iteration      DIISMaxIt       ....    12
   Startup error        DIISStart       ....  0.200000
   # of expansion vecs  DIISMaxEq       ....     5
   Bias factor          DIISBfac        ....   1.050
   Max. coefficient     DIISMaxC        ....  10.000
 Newton-Raphson         CNVNR           .... off
 SOSCF                  CNVSOSCF        .... on
   Start iteration      SOSCFMaxIt      ....   150
   Startup grad/error   SOSCFStart      ....  0.003300
 Level Shifting         CNVShift        .... on
   Level shift para.    LevelShift      ....    0.2500
   Turn off err/grad.   ShiftErr        ....    0.0010
 Zerner damping         CNVZerner       .... off
 Static damping         CNVDamp         .... on
   Fraction old density DampFac         ....    0.7000
   Max. Damping (<1)    DampMax         ....    0.9800
   Min. Damping (>=0)   DampMin         ....    0.0000
   Turn off err/grad.   DampErr         ....    0.1000
 Fernandez-Rico         CNVRico         .... off

SCF Procedure:
 Maximum # iterations   MaxIter         ....   125
 SCF integral mode      SCFMode         .... Direct
   Integral package                     .... LIBINT
 Reset frequency        DirectResetFreq ....    20
 Integral Threshold     Thresh          ....  2.500e-11 Eh
 Primitive CutOff       TCut            ....  2.500e-12 Eh

Convergence Tolerance:
 Convergence Check Mode ConvCheckMode   .... Total+1el-Energy
 Convergence forced     ConvForced      .... 1
 Energy Change          TolE            ....  1.000e-08 Eh
 1-El. energy change                    ....  1.000e-05 Eh
 Orbital Gradient       TolG            ....  1.000e-05
 Orbital Rotation angle TolX            ....  1.000e-05
 DIIS Error             TolErr          ....  5.000e-07


Diagonalization of the overlap matrix:
Smallest eigenvalue                        ... 1.461e-04
Time for diagonalization                   ...    0.833 sec
Threshold for overlap eigenvalues          ... 1.000e-08
Number of eigenvalues below threshold      ... 0
Time for construction of square roots      ...    0.009 sec
Total time needed                          ...    0.842 sec

-------------------
DFT GRID GENERATION
-------------------

General Integration Accuracy     IntAcc      ...  4.340
Radial Grid Type                 RadialGrid  ... Gauss-Chebyshev
Angular Grid (max. acc.)         AngularGrid ... Lebedev-110
Angular grid pruning method      GridPruning ... 3 (G Style)
Weight generation scheme         WeightScheme... Becke
Basis function cutoff            BFCut       ...    1.0000e-11
Integration weight cutoff        WCut        ...    1.0000e-14
Grids for H and He will be reduced by one unit

# of grid points (after initial pruning)     ...  22188 (   0.0 sec)
# of grid points (after weights+screening)   ...  20694 (   0.0 sec)
nearest neighbour list constructed           ...    0.0 sec
Grid point re-assignment to atoms done       ...    0.0 sec
Grid point division into batches done        ...    0.0 sec
Reduced shell lists constructed in    0.0 sec

Total number of grid points                  ...    20694
Total number of batches                      ...      332
Average number of points per batch           ...       62
Average number of grid points per atom       ...     1150
Average number of shells per batch           ...    67.39 (49.92%)
Average number of basis functions per batch  ...   158.30 (47.54%)
Average number of large shells per batch     ...    48.11 (71.39%)
Average number of large basis fcns per batch ...   111.61 (70.51%)
Maximum spatial batch extension              ...  20.98, 15.26, 19.63 au
Average spatial batch extension              ...   0.72,  0.65,  0.78 au

Time for grid setup =    0.072 sec

------------------------------
INITIAL GUESS: MODEL POTENTIAL
------------------------------
Loading Hartree-Fock densities                     ... done
Calculating cut-offs                               ... done
Setting up the integral package                    ... done
Initializing the effective Hamiltonian             ... done
Starting the Coulomb interaction                   ... done (   0.0 sec)
Reading the grid                                   ... done
Mapping shells                                     ... done
Starting the XC term evaluation                    ... done (   0.0 sec)
Transforming the Hamiltonian                       ... done (   0.0 sec)
Diagonalizing the Hamiltonian                      ... done (   0.0 sec)
Back transforming the eigenvectors                 ... done (   0.0 sec)
Now organizing SCF variables                       ... done
                      ------------------
                      INITIAL GUESS DONE (   0.3 sec)
                      ------------------
--------------
SCF ITERATIONS
--------------
ITER       Energy         Delta-E        Max-DP      RMS-DP      [F,P]     Damp
               ***  Starting incremental Fock matrix formation  ***
  0   -395.4613056731   0.000000000000 0.03671684  0.00083854  0.2697756 0.7000
  1   -395.6283082095  -0.167002536368 0.02636500  0.00065909  0.1877586 0.7000
                               ***Turning on DIIS***
  2   -395.7270734161  -0.098765206632 0.01584894  0.00044561  0.1417688 0.7000
  3   -396.6913186800  -0.964245263901 0.01100067  0.00030296  0.1052743 0.7000
  4   -396.6293987159   0.061919964142 0.02935529  0.00074295  0.0742276 0.0000
  5   -395.9584353084   0.670963407533 0.00518943  0.00010708  0.0059405 0.0000
                      *** Initiating the SOSCF procedure ***
                           *** Shutting down DIIS ***
                      *** Re-Reading the Fockian *** 
                      *** Removing any level shift *** 
ITER      Energy       Delta-E        Grad      Rot      Max-DP    RMS-DP
  6   -395.93974321   0.0186921023  0.001214  0.001214  0.003670  0.000065
               *** Restarting incremental Fock matrix formation ***
  7   -395.93136153   0.0083816723  0.000469  0.000751  0.002421  0.000045
  8   -395.93138090  -0.0000193614  0.000259  0.000506  0.002102  0.000038
  9   -395.93138582  -0.0000049292  0.000120  0.000143  0.000627  0.000010
 10   -395.93138638  -0.0000005552  0.000021  0.000036  0.000086  0.000002
 11   -395.93138641  -0.0000000315  0.000011  0.000048  0.000039  0.000001
 12   -395.93138643  -0.0000000171  0.000005  0.000013  0.000039  0.000001
                  ***Gradient check signals convergence***
              ***Rediagonalizing the Fockian in SOSCF/NRSCF***

               *****************************************************
               *                     SUCCESS                       *
               *           SCF CONVERGED AFTER  13 CYCLES          *
               *****************************************************


----------------
TOTAL SCF ENERGY
----------------

Total Energy       :         -395.93138643 Eh          -10773.84076 eV

Components:
Nuclear Repulsion  :          361.41472007 Eh            9834.59451 eV
Electronic Energy  :         -757.34610650 Eh          -20608.43527 eV
One Electron Energy:        -1252.01703349 Eh          -34069.11552 eV
Two Electron Energy:          494.67092699 Eh           13460.68025 eV

Virial components:
Potential Energy   :         -791.11688694 Eh          -21527.38492 eV
Kinetic Energy     :          395.18550051 Eh           10753.54417 eV
Virial Ratio       :            2.00188743


---------------
SCF CONVERGENCE
---------------

  Last Energy change         ...   -2.0680e-09  Tolerance :   1.0000e-08
  Last MAX-Density change    ...    1.6252e-05  Tolerance :   1.0000e-07
  Last RMS-Density change    ...    2.8786e-07  Tolerance :   5.0000e-09
  Last Orbital Gradient      ...    2.2747e-06  Tolerance :   1.0000e-05
  Last Orbital Rotation      ...    5.0911e-06  Tolerance :   1.0000e-05

             **** THE GBW FILE WAS UPDATED (12mecn.remya.etal.2.mol6,7,8-orca.engrad-mp2.def2tzvp.frozencore.gbw) ****
             **** DENSITY FILE WAS UPDATED (12mecn.remya.etal.2.mol6,7,8-orca.engrad-mp2.def2tzvp.frozencore.scfp) ****
             **** ENERGY FILE WAS UPDATED (12mecn.remya.etal.2.mol6,7,8-orca.engrad-mp2.def2tzvp.frozencore.en.tmp) ****
             **** THE GBW FILE WAS UPDATED (12mecn.remya.etal.2.mol6,7,8-orca.engrad-mp2.def2tzvp.frozencore.gbw) ****
             **** DENSITY FILE WAS UPDATED (12mecn.remya.etal.2.mol6,7,8-orca.engrad-mp2.def2tzvp.frozencore.scfp) ****
----------------
ORBITAL ENERGIES
----------------

  NO   OCC          E(Eh)            E(eV) 
   0   2.0000     -15.571718      -423.7280 
   1   2.0000     -15.569617      -423.6708 
   2   2.0000     -15.569039      -423.6551 
   3   2.0000     -11.285304      -307.0887 
   4   2.0000     -11.282854      -307.0221 
   5   2.0000     -11.280882      -306.9684 
   6   2.0000     -11.275560      -306.8236 
   7   2.0000     -11.274317      -306.7898 
   8   2.0000     -11.260200      -306.4056 
   9   2.0000      -1.219539       -33.1853 
  10   2.0000      -1.215496       -33.0753 
  11   2.0000      -1.212535       -32.9948 
  12   2.0000      -1.037537       -28.2328 
  13   2.0000      -1.036974       -28.2175 
  14   2.0000      -1.026625       -27.9359 
  15   2.0000      -0.696608       -18.9557 
  16   2.0000      -0.693072       -18.8595 
  17   2.0000      -0.684878       -18.6365 
  18   2.0000      -0.629993       -17.1430 
  19   2.0000      -0.629271       -17.1233 
  20   2.0000      -0.625166       -17.0116 
  21   2.0000      -0.622960       -16.9516 
  22   2.0000      -0.611947       -16.6519 
  23   2.0000      -0.608477       -16.5575 
  24   2.0000      -0.560485       -15.2516 
  25   2.0000      -0.556187       -15.1346 
  26   2.0000      -0.554782       -15.0964 
  27   2.0000      -0.463417       -12.6102 
  28   2.0000      -0.459516       -12.5041 
  29   2.0000      -0.458595       -12.4790 
  30   2.0000      -0.456799       -12.4301 
  31   2.0000      -0.455828       -12.4037 
  32   2.0000      -0.451364       -12.2822 
  33   0.0000       0.115656         3.1472 
  34   0.0000       0.143062         3.8929 
  35   0.0000       0.155402         4.2287 
  36   0.0000       0.165303         4.4981 
  37   0.0000       0.172788         4.7018 
  38   0.0000       0.176544         4.8040 
  39   0.0000       0.180130         4.9016 
  40   0.0000       0.184814         5.0291 
  41   0.0000       0.194926         5.3042 
  42   0.0000       0.205081         5.5805 
  43   0.0000       0.216599         5.8940 
  44   0.0000       0.217546         5.9197 
  45   0.0000       0.224010         6.0956 
  46   0.0000       0.231335         6.2950 
  47   0.0000       0.240842         6.5536 
  48   0.0000       0.255318         6.9476 
  49   0.0000       0.266079         7.2404 
  50   0.0000       0.275417         7.4945 
  51   0.0000       0.292214         7.9515 
  52   0.0000       0.316076         8.6009 
  53   0.0000       0.318687         8.6719 
  54   0.0000       0.322278         8.7696 
  55   0.0000       0.325013         8.8441 
  56   0.0000       0.330795         9.0014 
  57   0.0000       0.342825         9.3287 
  58   0.0000       0.352557         9.5936 
  59   0.0000       0.387808        10.5528 
  60   0.0000       0.400002        10.8846 
  61   0.0000       0.405180        11.0255 
  62   0.0000       0.413025        11.2390 
  63   0.0000       0.433155        11.7867 
  64   0.0000       0.454812        12.3761 
  65   0.0000       0.475529        12.9398 
  66   0.0000       0.476985        12.9794 
  67   0.0000       0.483990        13.1700 
  68   0.0000       0.512035        13.9332 
  69   0.0000       0.515234        14.0202 
  70   0.0000       0.529554        14.4099 
  71   0.0000       0.532592        14.4926 
  72   0.0000       0.548218        14.9178 
  73   0.0000       0.566004        15.4017 
  74   0.0000       0.571773        15.5587 
  75   0.0000       0.601238        16.3605 
  76   0.0000       0.609559        16.5870 
  77   0.0000       0.612603        16.6698 
  78   0.0000       0.614267        16.7151 
  79   0.0000       0.620883        16.8951 
  80   0.0000       0.632766        17.2185 
  81   0.0000       0.648208        17.6386 
  82   0.0000       0.660999        17.9867 
  83   0.0000       0.667623        18.1669 
  84   0.0000       0.679613        18.4932 
  85   0.0000       0.690200        18.7813 
  86   0.0000       0.704677        19.1752 
  87   0.0000       0.718087        19.5401 
  88   0.0000       0.730886        19.8884 
  89   0.0000       0.737578        20.0705 
  90   0.0000       0.758025        20.6269 
  91   0.0000       0.766230        20.8502 
  92   0.0000       0.774919        21.0866 
  93   0.0000       0.796243        21.6669 
  94   0.0000       0.812109        22.0986 
  95   0.0000       0.831563        22.6280 
  96   0.0000       0.836559        22.7639 
  97   0.0000       0.855925        23.2909 
  98   0.0000       0.863464        23.4960 
  99   0.0000       0.894783        24.3483 
 100   0.0000       0.909126        24.7386 
 101   0.0000       0.925932        25.1959 
 102   0.0000       0.939023        25.5521 
 103   0.0000       0.939439        25.5634 
 104   0.0000       0.955931        26.0122 
 105   0.0000       1.002203        27.2713 
 106   0.0000       1.029002        28.0006 
 107   0.0000       1.046460        28.4756 
 108   0.0000       1.069441        29.1010 
 109   0.0000       1.082279        29.4503 
 110   0.0000       1.117783        30.4164 
 111   0.0000       1.131543        30.7909 
 112   0.0000       1.145376        31.1673 
 113   0.0000       1.147989        31.2384 
 114   0.0000       1.169748        31.8304 
 115   0.0000       1.191177        32.4136 
 116   0.0000       1.213981        33.0341 
 117   0.0000       1.329901        36.1885 
 118   0.0000       1.338469        36.4216 
 119   0.0000       1.352589        36.8058 
 120   0.0000       1.393300        37.9136 
 121   0.0000       1.401718        38.1427 
 122   0.0000       1.423152        38.7259 
 123   0.0000       1.428734        38.8778 
 124   0.0000       1.440431        39.1961 
 125   0.0000       1.450358        39.4662 
 126   0.0000       1.459845        39.7244 
 127   0.0000       1.466893        39.9162 
 128   0.0000       1.469365        39.9834 
 129   0.0000       1.481124        40.3034 
 130   0.0000       1.488168        40.4951 
 131   0.0000       1.498325        40.7715 
 132   0.0000       1.507393        41.0182 
 133   0.0000       1.519602        41.3505 
 134   0.0000       1.528751        41.5994 
 135   0.0000       1.545328        42.0505 
 136   0.0000       1.569917        42.7196 
 137   0.0000       1.606623        43.7184 
 138   0.0000       1.697972        46.2042 
 139   0.0000       1.710620        46.5483 
 140   0.0000       1.731228        47.1091 
 141   0.0000       1.746910        47.5358 
 142   0.0000       1.754416        47.7401 
 143   0.0000       1.758019        47.8381 
 144   0.0000       1.769006        48.1371 
 145   0.0000       1.776345        48.3368 
 146   0.0000       1.777715        48.3741 
 147   0.0000       1.794692        48.8360 
 148   0.0000       1.804565        49.1047 
 149   0.0000       1.814853        49.3847 
 150   0.0000       1.835097        49.9355 
 151   0.0000       1.845289        50.2129 
 152   0.0000       1.852839        50.4183 
 153   0.0000       1.867966        50.8299 
 154   0.0000       1.869342        50.8674 
 155   0.0000       1.884620        51.2831 
 156   0.0000       1.941391        52.8279 
 157   0.0000       1.947549        52.9955 
 158   0.0000       1.961282        53.3692 
 159   0.0000       1.982320        53.9417 
 160   0.0000       1.988254        54.1031 
 161   0.0000       1.997218        54.3471 
 162   0.0000       2.016820        54.8804 
 163   0.0000       2.041713        55.5578 
 164   0.0000       2.050143        55.7872 
 165   0.0000       2.218375        60.3650 
 166   0.0000       2.234623        60.8072 
 167   0.0000       2.238974        60.9256 
 168   0.0000       2.255197        61.3670 
 169   0.0000       2.261727        61.5447 
 170   0.0000       2.271649        61.8147 
 171   0.0000       2.278960        62.0137 
 172   0.0000       2.314110        62.9701 
 173   0.0000       2.319166        63.1077 
 174   0.0000       2.373830        64.5952 
 175   0.0000       2.385433        64.9109 
 176   0.0000       2.436195        66.2922 
 177   0.0000       2.549127        69.3653 
 178   0.0000       2.554659        69.5158 
 179   0.0000       2.567619        69.8685 
 180   0.0000       2.578813        70.1731 
 181   0.0000       2.589852        70.4735 
 182   0.0000       2.599578        70.7381 
 183   0.0000       2.607947        70.9658 
 184   0.0000       2.616064        71.1867 
 185   0.0000       2.634170        71.6794 
 186   0.0000       2.636872        71.7529 
 187   0.0000       2.644066        71.9487 
 188   0.0000       2.655302        72.2544 
 189   0.0000       2.663051        72.4653 
 190   0.0000       2.680763        72.9473 
 191   0.0000       2.692856        73.2763 
 192   0.0000       2.718065        73.9623 
 193   0.0000       2.747382        74.7601 
 194   0.0000       2.754765        74.9610 
 195   0.0000       2.758110        75.0520 
 196   0.0000       2.761793        75.1522 
 197   0.0000       2.766070        75.2686 
 198   0.0000       2.776661        75.5568 
 199   0.0000       2.820297        76.7442 
 200   0.0000       2.840571        77.2959 
 201   0.0000       2.910752        79.2056 
 202   0.0000       2.913284        79.2745 
 203   0.0000       2.915262        79.3283 
 204   0.0000       2.917242        79.3822 
 205   0.0000       2.921859        79.5078 
 206   0.0000       2.929581        79.7180 
 207   0.0000       2.954659        80.4004 
 208   0.0000       2.959161        80.5229 
 209   0.0000       2.964410        80.6657 
 210   0.0000       2.967729        80.7560 
 211   0.0000       3.001268        81.6687 
 212   0.0000       3.006132        81.8010 
 213   0.0000       3.032664        82.5230 
 214   0.0000       3.044283        82.8392 
 215   0.0000       3.065453        83.4152 
 216   0.0000       3.094087        84.1944 
 217   0.0000       3.099399        84.3389 
 218   0.0000       3.103551        84.4519 
 219   0.0000       3.113444        84.7211 
 220   0.0000       3.130605        85.1881 
 221   0.0000       3.160638        86.0053 
 222   0.0000       3.215020        87.4851 
 223   0.0000       3.227904        87.8357 
 224   0.0000       3.254197        88.5512 
 225   0.0000       3.257183        88.6325 
 226   0.0000       3.266206        88.8780 
 227   0.0000       3.276194        89.1498 
 228   0.0000       3.283963        89.3612 
 229   0.0000       3.314738        90.1986 
 230   0.0000       3.322245        90.4029 
 231   0.0000       3.334695        90.7417 
 232   0.0000       3.341750        90.9336 
 233   0.0000       3.361627        91.4745 
 234   0.0000       3.369610        91.6918 
 235   0.0000       3.395883        92.4067 
 236   0.0000       3.432408        93.4006 
 237   0.0000       3.447180        93.8025 
 238   0.0000       3.454126        93.9916 
 239   0.0000       3.461457        94.1910 
 240   0.0000       3.475853        94.5828 
 241   0.0000       3.490655        94.9856 
 242   0.0000       3.502242        95.3009 
 243   0.0000       3.535800        96.2140 
 244   0.0000       3.569205        97.1230 
 245   0.0000       3.594649        97.8154 
 246   0.0000       3.658745        99.5595 
 247   0.0000       3.662904        99.6727 
 248   0.0000       3.670207        99.8714 
 249   0.0000       3.670840        99.8886 
 250   0.0000       3.680652       100.1556 
 251   0.0000       3.690049       100.4113 
 252   0.0000       3.800964       103.4295 
 253   0.0000       3.807146       103.5977 
 254   0.0000       3.809252       103.6550 
 255   0.0000       3.818923       103.9182 
 256   0.0000       3.833166       104.3057 
 257   0.0000       3.868740       105.2738 
 258   0.0000       3.939584       107.2015 
 259   0.0000       3.945747       107.3692 
 260   0.0000       3.953818       107.5889 
 261   0.0000       3.956826       107.6707 
 262   0.0000       3.964927       107.8911 
 263   0.0000       3.973952       108.1367 
 264   0.0000       3.976569       108.2079 
 265   0.0000       3.990669       108.5916 
 266   0.0000       4.010921       109.1427 
 267   0.0000       4.253494       115.7435 
 268   0.0000       4.256274       115.8191 
 269   0.0000       4.258726       115.8858 
 270   0.0000       4.263462       116.0147 
 271   0.0000       4.294213       116.8515 
 272   0.0000       4.309899       117.2783 
 273   0.0000       4.343322       118.1878 
 274   0.0000       4.343643       118.1965 
 275   0.0000       4.345966       118.2598 
 276   0.0000       4.347830       118.3105 
 277   0.0000       4.350297       118.3776 
 278   0.0000       4.357849       118.5831 
 279   0.0000       4.579579       124.6167 
 280   0.0000       4.581944       124.6810 
 281   0.0000       4.602917       125.2517 
 282   0.0000       4.748797       129.2213 
 283   0.0000       4.755382       129.4005 
 284   0.0000       4.770453       129.8106 
 285   0.0000       4.770797       129.8200 
 286   0.0000       4.787343       130.2702 
 287   0.0000       4.804883       130.7475 
 288   0.0000       4.854640       132.1015 
 289   0.0000       4.870719       132.5390 
 290   0.0000       4.880955       132.8175 
 291   0.0000       4.962443       135.0349 
 292   0.0000       4.968464       135.1988 
 293   0.0000       4.973625       135.3392 
 294   0.0000       4.982708       135.5864 
 295   0.0000       5.011367       136.3662 
 296   0.0000       5.017578       136.5352 
 297   0.0000       5.066273       137.8603 
 298   0.0000       5.068486       137.9205 
 299   0.0000       5.076850       138.1481 
 300   0.0000       5.082337       138.2974 
 301   0.0000       5.103499       138.8733 
 302   0.0000       5.125726       139.4781 
 303   0.0000       5.216076       141.9366 
 304   0.0000       5.224699       142.1713 
 305   0.0000       5.242231       142.6484 
 306   0.0000       5.558576       151.2565 
 307   0.0000       5.562344       151.3591 
 308   0.0000       5.584728       151.9682 
 309   0.0000       5.589052       152.0858 
 310   0.0000       5.595527       152.2620 
 311   0.0000       5.599438       152.3685 
 312   0.0000       6.022242       163.8735 
 313   0.0000       6.025341       163.9579 
 314   0.0000       6.031454       164.1242 
 315   0.0000       6.083428       165.5385 
 316   0.0000       6.084197       165.5594 
 317   0.0000       6.097569       165.9233 
 318   0.0000       6.101891       166.0409 
 319   0.0000       6.171321       167.9302 
 320   0.0000       6.185847       168.3255 
 321   0.0000       6.474974       176.1930 
 322   0.0000       6.477281       176.2558 
 323   0.0000       6.497144       176.7963 
 324   0.0000      23.493195       639.2823 
 325   0.0000      23.509403       639.7234 
 326   0.0000      23.518433       639.9691 
 327   0.0000      24.377398       663.3427 
 328   0.0000      24.393237       663.7737 
 329   0.0000      24.423025       664.5843 
 330   0.0000      33.429164       909.6538 
 331   0.0000      33.468970       910.7370 
 332   0.0000      33.539473       912.6555 

                    ********************************
                    * MULLIKEN POPULATION ANALYSIS *
                    ********************************

-----------------------
MULLIKEN ATOMIC CHARGES
-----------------------
   0 C :   -0.185705
   1 H :    0.148741
   2 H :    0.152556
   3 H :    0.193331
   4 C :   -0.056039
   5 N :   -0.253182
   6 C :   -0.132675
   7 H :    0.157470
   8 H :    0.146651
   9 H :    0.162297
  10 C :   -0.083190
  11 N :   -0.251002
  12 C :   -0.195714
  13 H :    0.193106
  14 H :    0.190653
  15 H :    0.143097
  16 C :   -0.005698
  17 N :   -0.324699
Sum of atomic charges:    0.0000000

--------------------------------
MULLIKEN REDUCED ORBITAL CHARGES
--------------------------------
  0 C s       :     3.155899  s :     3.155899
      pz      :     0.783713  p :     2.964539
      px      :     1.105121
      py      :     1.075706
      dz2     :     0.017620  d :     0.061782
      dxz     :     0.011866
      dyz     :     0.010553
      dx2y2   :     0.009976
      dxy     :     0.011766
      f0      :     0.001753  f :     0.003485
      f+1     :     0.000204
      f-1     :     0.000185
      f+2     :     0.000069
      f-2     :     0.000075
      f+3     :     0.000809
      f-3     :     0.000390
  1 H s       :     0.828920  s :     0.828920
      pz      :     0.004673  p :     0.022339
      px      :     0.008164
      py      :     0.009501
  2 H s       :     0.825039  s :     0.825039
      pz      :     0.004942  p :     0.022404
      px      :     0.004837
      py      :     0.012625
  3 H s       :     0.783390  s :     0.783390
      pz      :     0.004914  p :     0.023279
      px      :     0.014240
      py      :     0.004124
  4 C s       :     3.243391  s :     3.243391
      pz      :     0.954637  p :     2.679576
      px      :     0.852189
      py      :     0.872751
      dz2     :     0.025550  d :     0.115672
      dxz     :     0.045467
      dyz     :     0.043603
      dx2y2   :     0.000351
      dxy     :     0.000700
      f0      :     0.004127  f :     0.017400
      f+1     :     0.006614
      f-1     :     0.006507
      f+2     :     0.000054
      f-2     :     0.000093
      f+3     :     0.000003
      f-3     :     0.000002
  5 N s       :     3.741889  s :     3.741889
      pz      :     1.275281  p :     3.454763
      px      :     1.098008
      py      :     1.081475
      dz2     :     0.011225  d :     0.053588
      dxz     :     0.021036
      dyz     :     0.021204
      dx2y2   :     0.000101
      dxy     :     0.000021
      f0      :     0.000628  f :     0.002942
      f+1     :     0.001134
      f-1     :     0.001160
      f+2     :     0.000010
      f-2     :     0.000009
      f+3     :     0.000001
      f-3     :     0.000000
  6 C s       :     3.123931  s :     3.123931
      pz      :     0.781584  p :     2.943728
      px      :     1.089663
      py      :     1.072481
      dz2     :     0.017019  d :     0.061552
      dxz     :     0.009749
      dyz     :     0.011978
      dx2y2   :     0.011593
      dxy     :     0.011213
      f0      :     0.001668  f :     0.003464
      f+1     :     0.000215
      f-1     :     0.000222
      f+2     :     0.000068
      f-2     :     0.000062
      f+3     :     0.000399
      f-3     :     0.000829
  7 H s       :     0.820353  s :     0.820353
      pz      :     0.005394  p :     0.022176
      px      :     0.003961
      py      :     0.012821
  8 H s       :     0.830835  s :     0.830835
      pz      :     0.004348  p :     0.022514
      px      :     0.013097
      py      :     0.005069
  9 H s       :     0.815067  s :     0.815067
      pz      :     0.004643  p :     0.022637
      px      :     0.009027
      py      :     0.008967
 10 C s       :     3.254581  s :     3.254581
      pz      :     0.962665  p :     2.696230
      px      :     0.872541
      py      :     0.861024
      dz2     :     0.024691  d :     0.114966
      dxz     :     0.043778
      dyz     :     0.045086
      dx2y2   :     0.000683
      dxy     :     0.000729
      f0      :     0.004132  f :     0.017412
      f+1     :     0.006467
      f-1     :     0.006584
      f+2     :     0.000099
      f-2     :     0.000124
      f+3     :     0.000002
      f-3     :     0.000004
 11 N s       :     3.737120  s :     3.737120
      pz      :     1.275827  p :     3.457237
      px      :     1.083548
      py      :     1.097861
      dz2     :     0.011257  d :     0.053701
      dxz     :     0.021081
      dyz     :     0.020993
      dx2y2   :     0.000214
      dxy     :     0.000155
      f0      :     0.000630  f :     0.002944
      f+1     :     0.001151
      f-1     :     0.001133
      f+2     :     0.000015
      f-2     :     0.000013
      f+3     :     0.000000
      f-3     :     0.000001
 12 C s       :     3.170761  s :     3.170761
      pz      :     0.764746  p :     2.961107
      px      :     1.093346
      py      :     1.103014
      dz2     :     0.017872  d :     0.060360
      dxz     :     0.010345
      dyz     :     0.009999
      dx2y2   :     0.010117
      dxy     :     0.012026
      f0      :     0.001756  f :     0.003487
      f+1     :     0.000188
      f-1     :     0.000183
      f+2     :     0.000070
      f-2     :     0.000059
      f+3     :     0.000403
      f-3     :     0.000828
 13 H s       :     0.783667  s :     0.783667
      pz      :     0.004981  p :     0.023227
      px      :     0.013611
      py      :     0.004634
 14 H s       :     0.786325  s :     0.786325
      pz      :     0.004729  p :     0.023022
      px      :     0.004175
      py      :     0.014117
 15 H s       :     0.834654  s :     0.834654
      pz      :     0.004556  p :     0.022249
      px      :     0.009559
      py      :     0.008134
 16 C s       :     3.258322  s :     3.258322
      pz      :     0.944676  p :     2.610803
      px      :     0.832815
      py      :     0.833312
      dz2     :     0.024577  d :     0.119176
      dxz     :     0.046376
      dyz     :     0.046826
      dx2y2   :     0.000634
      dxy     :     0.000763
      f0      :     0.004063  f :     0.017396
      f+1     :     0.006565
      f-1     :     0.006614
      f+2     :     0.000052
      f-2     :     0.000093
      f+3     :     0.000005
      f-3     :     0.000005
 17 N s       :     3.755146  s :     3.755146
      pz      :     1.272318  p :     3.514410
      px      :     1.122036
      py      :     1.120056
      dz2     :     0.010822  d :     0.052220
      dxz     :     0.020550
      dyz     :     0.020689
      dx2y2   :     0.000122
      dxy     :     0.000037
      f0      :     0.000626  f :     0.002923
      f+1     :     0.001131
      f-1     :     0.001145
      f+2     :     0.000010
      f-2     :     0.000009
      f+3     :     0.000002
      f-3     :     0.000001


                     *******************************
                     * LOEWDIN POPULATION ANALYSIS *
                     *******************************

----------------------
LOEWDIN ATOMIC CHARGES
----------------------
   0 C :   -0.245687
   1 H :    0.141013
   2 H :    0.142557
   3 H :    0.148811
   4 C :   -0.183793
   5 N :   -0.003424
   6 C :   -0.246062
   7 H :    0.141317
   8 H :    0.145133
   9 H :    0.148653
  10 C :   -0.188575
  11 N :   -0.005561
  12 C :   -0.241492
  13 H :    0.150383
  14 H :    0.150906
  15 H :    0.140997
  16 C :   -0.168991
  17 N :   -0.026185

-------------------------------
LOEWDIN REDUCED ORBITAL CHARGES
-------------------------------
  0 C s       :     2.812784  s :     2.812784
      pz      :     1.021323  p :     3.149783
      px      :     1.071125
      py      :     1.057335
      dz2     :     0.078378  d :     0.258005
      dxz     :     0.060123
      dyz     :     0.059325
      dx2y2   :     0.026547
      dxy     :     0.033631
      f0      :     0.007513  f :     0.025115
      f+1     :     0.004820
      f-1     :     0.005041
      f+2     :     0.002385
      f-2     :     0.002115
      f+3     :     0.002191
      f-3     :     0.001050
  1 H s       :     0.798071  s :     0.798071
      pz      :     0.012309  p :     0.060916
      px      :     0.022964
      py      :     0.025643
  2 H s       :     0.796570  s :     0.796570
      pz      :     0.012828  p :     0.060874
      px      :     0.015095
      py      :     0.032950
  3 H s       :     0.786884  s :     0.786884
      pz      :     0.013100  p :     0.064305
      px      :     0.037952
      py      :     0.013254
  4 C s       :     2.839909  s :     2.839909
      pz      :     1.193079  p :     2.828678
      px      :     0.813689
      py      :     0.821911
      dz2     :     0.154527  d :     0.455707
      dxz     :     0.152150
      dyz     :     0.147158
      dx2y2   :     0.000593
      dxy     :     0.001279
      f0      :     0.022911  f :     0.059497
      f+1     :     0.018470
      f-1     :     0.017733
      f+2     :     0.000145
      f-2     :     0.000229
      f+3     :     0.000007
      f-3     :     0.000004
  5 N s       :     3.307910  s :     3.307910
      pz      :     1.494113  p :     3.572252
      px      :     1.042843
      py      :     1.035296
      dz2     :     0.045522  d :     0.109046
      dxz     :     0.031506
      dyz     :     0.031718
      dx2y2   :     0.000236
      dxy     :     0.000064
      f0      :     0.006231  f :     0.014216
      f+1     :     0.003943
      f-1     :     0.003975
      f+2     :     0.000034
      f-2     :     0.000030
      f+3     :     0.000002
      f-3     :     0.000000
  6 C s       :     2.814778  s :     2.814778
      pz      :     1.022785  p :     3.145288
      px      :     1.062543
      py      :     1.059960
      dz2     :     0.078757  d :     0.260667
      dxz     :     0.054865
      dyz     :     0.063388
      dx2y2   :     0.031433
      dxy     :     0.032224
      f0      :     0.007491  f :     0.025328
      f+1     :     0.005465
      f-1     :     0.004702
      f+2     :     0.002322
      f-2     :     0.002002
      f+3     :     0.001089
      f-3     :     0.002256
  7 H s       :     0.798325  s :     0.798325
      pz      :     0.013747  p :     0.060357
      px      :     0.013101
      py      :     0.033510
  8 H s       :     0.794173  s :     0.794173
      pz      :     0.011662  p :     0.060694
      px      :     0.034033
      py      :     0.014999
  9 H s       :     0.790108  s :     0.790108
      pz      :     0.012265  p :     0.061239
      px      :     0.024905
      py      :     0.024069
 10 C s       :     2.840635  s :     2.840635
      pz      :     1.193094  p :     2.831321
      px      :     0.822248
      py      :     0.815979
      dz2     :     0.154976  d :     0.457158
      dxz     :     0.148832
      dyz     :     0.150353
      dx2y2   :     0.001468
      dxy     :     0.001529
      f0      :     0.022820  f :     0.059461
      f+1     :     0.017708
      f-1     :     0.018385
      f+2     :     0.000233
      f-2     :     0.000300
      f+3     :     0.000005
      f-3     :     0.000009
 11 N s       :     3.309101  s :     3.309101
      pz      :     1.493194  p :     3.573422
      px      :     1.037458
      py      :     1.042771
      dz2     :     0.045404  d :     0.108868
      dxz     :     0.031583
      dyz     :     0.031463
      dx2y2   :     0.000232
      dxy     :     0.000186
      f0      :     0.006180  f :     0.014170
      f+1     :     0.003956
      f-1     :     0.003936
      f+2     :     0.000050
      f-2     :     0.000046
      f+3     :     0.000000
      f-3     :     0.000001
 12 C s       :     2.813383  s :     2.813383
      pz      :     1.016412  p :     3.150985
      px      :     1.066005
      py      :     1.068569
      dz2     :     0.080815  d :     0.252251
      dxz     :     0.056684
      dyz     :     0.055114
      dx2y2   :     0.026189
      dxy     :     0.033448
      f0      :     0.007756  f :     0.024873
      f+1     :     0.004770
      f-1     :     0.004826
      f+2     :     0.002299
      f-2     :     0.001971
      f+3     :     0.001065
      f-3     :     0.002186
 13 H s       :     0.785525  s :     0.785525
      pz      :     0.013123  p :     0.064091
      px      :     0.036223
      py      :     0.014745
 14 H s       :     0.785777  s :     0.785777
      pz      :     0.012585  p :     0.063317
      px      :     0.013438
      py      :     0.037294
 15 H s       :     0.798527  s :     0.798527
      pz      :     0.011972  p :     0.060476
      px      :     0.025831
      py      :     0.022673
 16 C s       :     2.842597  s :     2.842597
      pz      :     1.197188  p :     2.799095
      px      :     0.801139
      py      :     0.800768
      dz2     :     0.154791  d :     0.467010
      dxz     :     0.154939
      dyz     :     0.154695
      dx2y2   :     0.001170
      dxy     :     0.001414
      f0      :     0.022717  f :     0.060289
      f+1     :     0.018618
      f-1     :     0.018563
      f+2     :     0.000140
      f-2     :     0.000229
      f+3     :     0.000010
      f-3     :     0.000011
 17 N s       :     3.301052  s :     3.301052
      pz      :     1.494369  p :     3.605743
      px      :     1.057302
      py      :     1.054071
      dz2     :     0.045211  d :     0.105485
      dxz     :     0.030018
      dyz     :     0.029915
      dx2y2   :     0.000271
      dxy     :     0.000069
      f0      :     0.006239  f :     0.013905
      f+1     :     0.003814
      f-1     :     0.003792
      f+2     :     0.000031
      f-2     :     0.000028
      f+3     :     0.000002
      f-3     :     0.000001


                      *****************************
                      * MAYER POPULATION ANALYSIS *
                      *****************************

  NA   - Mulliken gross atomic population
  ZA   - Total nuclear charge
  QA   - Mulliken gross atomic charge
  VA   - Mayer's total valence
  BVA  - Mayer's bonded valence
  FA   - Mayer's free valence

  ATOM       NA         ZA         QA         VA         BVA        FA
  0 C      6.1857     6.0000    -0.1857     3.7898     3.7898    -0.0000
  1 H      0.8513     1.0000     0.1487     0.9620     0.9620    -0.0000
  2 H      0.8474     1.0000     0.1526     0.9640     0.9640    -0.0000
  3 H      0.8067     1.0000     0.1933     0.9598     0.9598     0.0000
  4 C      6.0560     6.0000    -0.0560     3.8662     3.8662     0.0000
  5 N      7.2532     7.0000    -0.2532     2.9879     2.9879     0.0000
  6 C      6.1327     6.0000    -0.1327     3.7965     3.7965     0.0000
  7 H      0.8425     1.0000     0.1575     0.9562     0.9562     0.0000
  8 H      0.8533     1.0000     0.1467     0.9711     0.9711     0.0000
  9 H      0.8377     1.0000     0.1623     0.9689     0.9689    -0.0000
 10 C      6.0832     6.0000    -0.0832     3.9042     3.9042     0.0000
 11 N      7.2510     7.0000    -0.2510     2.9965     2.9965     0.0000
 12 C      6.1957     6.0000    -0.1957     3.7612     3.7612     0.0000
 13 H      0.8069     1.0000     0.1931     0.9608     0.9608     0.0000
 14 H      0.8093     1.0000     0.1907     0.9633     0.9633     0.0000
 15 H      0.8569     1.0000     0.1431     0.9622     0.9622     0.0000
 16 C      6.0057     6.0000    -0.0057     3.8233     3.8233    -0.0000
 17 N      7.3247     7.0000    -0.3247     2.9463     2.9463    -0.0000

  Mayer bond orders larger than 0.100000
B(  0-C ,  1-H ) :   0.9649 B(  0-C ,  2-H ) :   0.9615 B(  0-C ,  3-H ) :   0.9535 
B(  0-C ,  4-C ) :   0.9241 B(  4-C ,  5-N ) :   2.9536 B(  6-C ,  7-H ) :   0.9578 
B(  6-C ,  8-H ) :   0.9627 B(  6-C ,  9-H ) :   0.9596 B(  6-C , 10-C ) :   0.9371 
B( 10-C , 11-N ) :   2.9619 B( 12-C , 13-H ) :   0.9501 B( 12-C , 14-H ) :   0.9526 
B( 12-C , 15-H ) :   0.9613 B( 12-C , 16-C ) :   0.9175 B( 16-C , 17-N ) :   2.9049 


-------
TIMINGS
-------

Total SCF time: 0 days 0 hours 0 min 51 sec 

Total time                  ....      51.322 sec
Sum of individual times     ....      50.205 sec  ( 97.8%)

Fock matrix formation       ....      49.627 sec  ( 96.7%)
Diagonalization             ....       0.138 sec  (  0.3%)
Density matrix formation    ....       0.016 sec  (  0.0%)
Population analysis         ....       0.026 sec  (  0.1%)
Initial guess               ....       0.191 sec  (  0.4%)
Orbital Transformation      ....       0.000 sec  (  0.0%)
Orbital Orthonormalization  ....       0.000 sec  (  0.0%)
DIIS solution               ....       0.051 sec  (  0.1%)
SOSCF solution              ....       0.084 sec  (  0.2%)


           ************************************************************
           *        Program running with 6 parallel MPI-processes     *
           *              working on a common directory               *
           ************************************************************

------------------------------------------------------------------------------
                                ORCA  MP2 
------------------------------------------------------------------------------

Freezing NCore=18 chemical core electrons
MP2 will be done in the AO integral direct mode
The Q1-step will be done using symmetric double matrices
Dimension of the basis                    ...  333
Memory devoted for MP2                    ... 8000 MB   
Memory needed for all in one shot         ...  566 MB
Number of MOs that can be treated together...   55      
MP2 density construction                  ... relaxed
The MP2 gradient is requested => amplitudes will be stored on disk
Total number of MOs              ...   24
Number of MOs treated per batch  ...    4 
Number of batches necessary      ...    1 
OPERATORS   0/  0 PASS   0
-----------------------------------------------
 MP2 CORRELATION ENERGY   :     -1.535931144 Eh
-----------------------------------------------


---------------------
MP2 DENSITY FORMATION
---------------------

Completing the external part of the density      ... done
Storing the unrelaxed density                    ... done

Calculating G(D)                                 ... done
Completing the Lagrangian                        ... done
Solving the Z-vector equations                   ... 

------------------------------------------------------------------------------
                           ORCA CP-SCF CALCULATION
------------------------------------------------------------------------------

Input orbitals are from        ... 12mecn.remya.etal.2.mol6,7,8-orca.engrad-mp2.def2tzvp.frozencore.gbw
Input Perturbation             ... 12mecn.remya.etal.2.mol6,7,8-orca.engrad-mp2.def2tzvp.frozencore.pin.tmp
Wavefunction output            ... 12mecn.remya.etal.2.mol6,7,8-orca.engrad-mp2.def2tzvp.frozencore.pout.tmp
Perturbation mode              ... Real perturbation (singlet)
Solver                         ... POPLE
Max. number of iterations      ... 128
Convergence tolerance          ... 1.000e-08
Integral handling              ... Direct
Number of perturbations        ... 1
Number of operators            ... 1
Orbital ranges used for CP-SCF:
 Operator 0:  Orbitals   0... 32  to  33...332
Variables per vector in CP-SCF ... 9900
Number of vectors sought       ... 1
     CP-SCF ITERATION   0: 
     CP-SCF ITERATION   1:      0.001626459362
     CP-SCF ITERATION   2:      0.000254917367
     CP-SCF ITERATION   3:      0.000011554769
     CP-SCF ITERATION   4:      0.000003408109
     CP-SCF ITERATION   5:      0.000001458858
     CP-SCF ITERATION   6:      0.000000148978
     CP-SCF ITERATION   7:      0.000000013482
     CP-SCF ITERATION   8:      0.000000000730
                                                 ... done
Finalizing the relaxed density                   ... done
Transforming P to the AO basis                   ... done
Storing the relaxed density                      ... done

------------------------------------
ENERGY WEIGHTED DENSITY FINALIZATION
------------------------------------

Gathering the parts of the W-matrix              ...                                                      done
Forming the Z-density                            ... done
Transforming Z to the AO basis                   ... done
Calculating G(Z)                                 ... done
Finalizing the W-matrix                          ...                                                      done
Transforming W to the AO basis and storing       ... done

                *********************************************
                * UNRELAXED MP2 DENSITY POPULATION ANALYSIS *
                *********************************************

------------------------------------------------------------------------------
                           ORCA POPULATION ANALYSIS
------------------------------------------------------------------------------
Input electron density              ... 12mecn.remya.etal.2.mol6,7,8-orca.engrad-mp2.def2tzvp.frozencore.pmp2ur
BaseName (.gbw .S,...)              ... 12mecn.remya.etal.2.mol6,7,8-orca.engrad-mp2.def2tzvp.frozencore

                    ********************************
                    * MULLIKEN POPULATION ANALYSIS *
                    ********************************

-----------------------
MULLIKEN ATOMIC CHARGES
-----------------------
   0 C :   -0.198179
   1 H :    0.151435
   2 H :    0.155258
   3 H :    0.195018
   4 C :   -0.066174
   5 N :   -0.237602
   6 C :   -0.146761
   7 H :    0.160175
   8 H :    0.149453
   9 H :    0.164985
  10 C :   -0.093095
  11 N :   -0.235293
  12 C :   -0.207183
  13 H :    0.194992
  14 H :    0.192613
  15 H :    0.145887
  16 C :   -0.018483
  17 N :   -0.307044
Sum of atomic charges:    0.0000000

--------------------------------
MULLIKEN REDUCED ORBITAL CHARGES
--------------------------------
  0 C s       :     3.154159  s :     3.154159
      pz      :     0.782519  p :     2.949020
      px      :     1.097418
      py      :     1.069083
      dz2     :     0.020157  d :     0.087647
      dxz     :     0.017980
      dyz     :     0.016688
      dx2y2   :     0.015561
      dxy     :     0.017260
      f0      :     0.002149  f :     0.007353
      f+1     :     0.000872
      f-1     :     0.000851
      f+2     :     0.000609
      f-2     :     0.000620
      f+3     :     0.001315
      f-3     :     0.000936
  1 H s       :     0.823368  s :     0.823368
      pz      :     0.005684  p :     0.025198
      px      :     0.009107
      py      :     0.010406
  2 H s       :     0.819509  s :     0.819509
      pz      :     0.005937  p :     0.025233
      px      :     0.005858
      py      :     0.013438
  3 H s       :     0.778991  s :     0.778991
      pz      :     0.005889  p :     0.025991
      px      :     0.014965
      py      :     0.005137
  4 C s       :     3.242595  s :     3.242595
      pz      :     0.945502  p :     2.672192
      px      :     0.853572
      py      :     0.873118
      dz2     :     0.027970  d :     0.131041
      dxz     :     0.047430
      dyz     :     0.045646
      dx2y2   :     0.004820
      dxy     :     0.005174
      f0      :     0.004591  f :     0.020347
      f+1     :     0.007042
      f-1     :     0.006944
      f+2     :     0.000609
      f-2     :     0.000646
      f+3     :     0.000258
      f-3     :     0.000256
  5 N s       :     3.729453  s :     3.729453
      pz      :     1.262929  p :     3.426222
      px      :     1.089483
      py      :     1.073810
      dz2     :     0.015505  d :     0.076257
      dxz     :     0.025260
      dyz     :     0.025330
      dx2y2   :     0.005128
      dxy     :     0.005034
      f0      :     0.001058  f :     0.005670
      f+1     :     0.001583
      f-1     :     0.001607
      f+2     :     0.000429
      f-2     :     0.000427
      f+3     :     0.000284
      f-3     :     0.000283
  6 C s       :     3.122723  s :     3.122723
      pz      :     0.780491  p :     2.929426
      px      :     1.082665
      py      :     1.066271
      dz2     :     0.019556  d :     0.087287
      dxz     :     0.015919
      dyz     :     0.017974
      dx2y2   :     0.017141
      dxy     :     0.016698
      f0      :     0.002073  f :     0.007324
      f+1     :     0.000874
      f-1     :     0.000885
      f+2     :     0.000608
      f-2     :     0.000605
      f+3     :     0.000946
      f-3     :     0.001332
  7 H s       :     0.814806  s :     0.814806
      pz      :     0.006381  p :     0.025019
      px      :     0.005004
      py      :     0.013633
  8 H s       :     0.825211  s :     0.825211
      pz      :     0.005363  p :     0.025337
      px      :     0.013895
      py      :     0.006078
  9 H s       :     0.809597  s :     0.809597
      pz      :     0.005639  p :     0.025419
      px      :     0.009929
      py      :     0.009851
 10 C s       :     3.253571  s :     3.253571
      pz      :     0.953675  p :     2.688798
      px      :     0.873024
      py      :     0.862100
      dz2     :     0.027113  d :     0.130366
      dxz     :     0.045830
      dyz     :     0.047102
      dx2y2   :     0.005128
      dxy     :     0.005193
      f0      :     0.004598  f :     0.020361
      f+1     :     0.006906
      f-1     :     0.007011
      f+2     :     0.000652
      f-2     :     0.000676
      f+3     :     0.000258
      f-3     :     0.000260
 11 N s       :     3.724640  s :     3.724640
      pz      :     1.263514  p :     3.428657
      px      :     1.075778
      py      :     1.089365
      dz2     :     0.015554  d :     0.076326
      dxz     :     0.025217
      dyz     :     0.025200
      dx2y2   :     0.005207
      dxy     :     0.005149
      f0      :     0.001060  f :     0.005670
      f+1     :     0.001598
      f-1     :     0.001582
      f+2     :     0.000432
      f-2     :     0.000431
      f+3     :     0.000283
      f-3     :     0.000284
 12 C s       :     3.168675  s :     3.168675
      pz      :     0.763661  p :     2.944716
      px      :     1.085744
      py      :     1.095311
      dz2     :     0.020369  d :     0.086429
      dxz     :     0.016486
      dyz     :     0.016197
      dx2y2   :     0.015788
      dxy     :     0.017589
      f0      :     0.002156  f :     0.007363
      f+1     :     0.000852
      f-1     :     0.000846
      f+2     :     0.000611
      f-2     :     0.000604
      f+3     :     0.000956
      f-3     :     0.001338
 13 H s       :     0.779086  s :     0.779086
      pz      :     0.005948  p :     0.025922
      px      :     0.014347
      py      :     0.005628
 14 H s       :     0.781662  s :     0.781662
      pz      :     0.005708  p :     0.025725
      px      :     0.005183
      py      :     0.014834
 15 H s       :     0.828999  s :     0.828999
      pz      :     0.005573  p :     0.025114
      px      :     0.010465
      py      :     0.009076
 16 C s       :     3.257425  s :     3.257425
      pz      :     0.935527  p :     2.606612
      px      :     0.835335
      py      :     0.835750
      dz2     :     0.026893  d :     0.134120
      dxz     :     0.048247
      dyz     :     0.048700
      dx2y2   :     0.005082
      dxy     :     0.005198
      f0      :     0.004529  f :     0.020326
      f+1     :     0.006989
      f-1     :     0.007037
      f+2     :     0.000610
      f-2     :     0.000646
      f+3     :     0.000257
      f-3     :     0.000257
 17 N s       :     3.742862  s :     3.742862
      pz      :     1.259963  p :     3.482777
      px      :     1.112421
      py      :     1.110393
      dz2     :     0.015220  d :     0.075723
      dxz     :     0.024926
      dyz     :     0.025039
      dx2y2   :     0.005320
      dxy     :     0.005218
      f0      :     0.001059  f :     0.005683
      f+1     :     0.001583
      f-1     :     0.001596
      f+2     :     0.000433
      f-2     :     0.000430
      f+3     :     0.000291
      f-3     :     0.000290


                     *******************************
                     * LOEWDIN POPULATION ANALYSIS *
                     *******************************

----------------------
LOEWDIN ATOMIC CHARGES
----------------------
   0 C :   -0.253689
   1 H :    0.142681
   2 H :    0.144257
   3 H :    0.150307
   4 C :   -0.189661
   5 N :    0.005568
   6 C :   -0.254271
   7 H :    0.142987
   8 H :    0.146781
   9 H :    0.150326
  10 C :   -0.194488
  11 N :    0.003504
  12 C :   -0.249374
  13 H :    0.151955
  14 H :    0.152492
  15 H :    0.142671
  16 C :   -0.175766
  17 N :   -0.016282

-------------------------------
LOEWDIN REDUCED ORBITAL CHARGES
-------------------------------
  0 C s       :     2.811015  s :     2.811015
      pz      :     1.012782  p :     3.124666
      px      :     1.062589
      py      :     1.049295
      dz2     :     0.083582  d :     0.286852
      dxz     :     0.066166
      dyz     :     0.065248
      dx2y2   :     0.032422
      dxy     :     0.039434
      f0      :     0.008633  f :     0.031156
      f+1     :     0.005885
      f-1     :     0.006101
      f+2     :     0.003065
      f-2     :     0.002792
      f+3     :     0.002944
      f-3     :     0.001737
  1 H s       :     0.791591  s :     0.791591
      pz      :     0.013711  p :     0.065729
      px      :     0.024608
      py      :     0.027410
  2 H s       :     0.790104  s :     0.790104
      pz      :     0.014248  p :     0.065639
      px      :     0.016391
      py      :     0.035000
  3 H s       :     0.780733  s :     0.780733
      pz      :     0.014537  p :     0.068960
      px      :     0.039941
      py      :     0.014482
  4 C s       :     2.836520  s :     2.836520
      pz      :     1.180476  p :     2.811203
      px      :     0.811516
      py      :     0.819211
      dz2     :     0.161805  d :     0.474800
      dxz     :     0.153469
      dyz     :     0.148662
      dx2y2   :     0.005115
      dxy     :     0.005749
      f0      :     0.024534  f :     0.067137
      f+1     :     0.020528
      f-1     :     0.019817
      f+2     :     0.000823
      f-2     :     0.000912
      f+3     :     0.000264
      f-3     :     0.000260
  5 N s       :     3.300117  s :     3.300117
      pz      :     1.478039  p :     3.536076
      px      :     1.032542
      py      :     1.025496
      dz2     :     0.052484  d :     0.139551
      dxz     :     0.038392
      dyz     :     0.038453
      dx2y2   :     0.005210
      dxy     :     0.005011
      f0      :     0.007302  f :     0.018689
      f+1     :     0.004928
      f-1     :     0.004945
      f+2     :     0.000475
      f-2     :     0.000470
      f+3     :     0.000285
      f-3     :     0.000283
  6 C s       :     2.813002  s :     2.813002
      pz      :     1.014259  p :     3.120548
      px      :     1.054365
      py      :     1.051923
      dz2     :     0.083961  d :     0.289352
      dxz     :     0.060796
      dyz     :     0.069355
      dx2y2   :     0.037197
      dxy     :     0.038043
      f0      :     0.008605  f :     0.031369
      f+1     :     0.006533
      f-1     :     0.005766
      f+2     :     0.002999
      f-2     :     0.002673
      f+3     :     0.001780
      f-3     :     0.003013
  7 H s       :     0.791853  s :     0.791853
      pz      :     0.015217  p :     0.065160
      px      :     0.014327
      py      :     0.035615
  8 H s       :     0.787758  s :     0.787758
      pz      :     0.013035  p :     0.065461
      px      :     0.036118
      py      :     0.016309
  9 H s       :     0.783739  s :     0.783739
      pz      :     0.013655  p :     0.065935
      px      :     0.026599
      py      :     0.025681
 10 C s       :     2.837242  s :     2.837242
      pz      :     1.180537  p :     2.813930
      px      :     0.819641
      py      :     0.813752
      dz2     :     0.162196  d :     0.476199
      dxz     :     0.150271
      dyz     :     0.151759
      dx2y2   :     0.005971
      dxy     :     0.006002
      f0      :     0.024456  f :     0.067116
      f+1     :     0.019788
      f-1     :     0.020432
      f+2     :     0.000922
      f-2     :     0.000989
      f+3     :     0.000262
      f-3     :     0.000268
 11 N s       :     3.301326  s :     3.301326
      pz      :     1.477133  p :     3.537193
      px      :     1.027588
      py      :     1.032472
      dz2     :     0.052361  d :     0.139338
      dxz     :     0.038330
      dyz     :     0.038336
      dx2y2   :     0.005189
      dxy     :     0.005122
      f0      :     0.007250  f :     0.018640
      f+1     :     0.004924
      f-1     :     0.004917
      f+2     :     0.000493
      f-2     :     0.000488
      f+3     :     0.000283
      f-3     :     0.000284
 12 C s       :     2.811629  s :     2.811629
      pz      :     1.007854  p :     3.125336
      px      :     1.057470
      py      :     1.060012
      dz2     :     0.085965  d :     0.281477
      dxz     :     0.062788
      dyz     :     0.061222
      dx2y2   :     0.032183
      dxy     :     0.039318
      f0      :     0.008872  f :     0.030932
      f+1     :     0.005840
      f-1     :     0.005896
      f+2     :     0.002977
      f-2     :     0.002640
      f+3     :     0.001759
      f-3     :     0.002947
 13 H s       :     0.779334  s :     0.779334
      pz      :     0.014546  p :     0.068711
      px      :     0.038152
      py      :     0.016013
 14 H s       :     0.779565  s :     0.779565
      pz      :     0.013990  p :     0.067943
      px      :     0.014659
      py      :     0.039295
 15 H s       :     0.792023  s :     0.792023
      pz      :     0.013362  p :     0.065305
      px      :     0.027624
      py      :     0.024320
 16 C s       :     2.839048  s :     2.839048
      pz      :     1.184518  p :     2.783507
      px      :     0.799671
      py      :     0.799318
      dz2     :     0.162007  d :     0.485367
      dxz     :     0.156045
      dyz     :     0.155776
      dx2y2   :     0.005677
      dxy     :     0.005862
      f0      :     0.024353  f :     0.067844
      f+1     :     0.020636
      f-1     :     0.020583
      f+2     :     0.000826
      f-2     :     0.000917
      f+3     :     0.000264
      f-3     :     0.000266
 17 N s       :     3.293323  s :     3.293323
      pz      :     1.478120  p :     3.567436
      px      :     1.046276
      py      :     1.043040
      dz2     :     0.052327  d :     0.137094
      dxz     :     0.037141
      dyz     :     0.037003
      dx2y2   :     0.005428
      dxy     :     0.005195
      f0      :     0.007311  f :     0.018430
      f+1     :     0.004807
      f-1     :     0.004783
      f+2     :     0.000475
      f-2     :     0.000470
      f+3     :     0.000293
      f-3     :     0.000291


                      *****************************
                      * MAYER POPULATION ANALYSIS *
                      *****************************

  NA   - Mulliken gross atomic population
  ZA   - Total nuclear charge
  QA   - Mulliken gross atomic charge
  VA   - Mayer's total valence
  BVA  - Mayer's bonded valence
  FA   - Mayer's free valence

  ATOM       NA         ZA         QA         VA         BVA        FA
  0 C      6.1982     6.0000    -0.1982     3.9085     3.6233     0.2852
  1 H      0.8486     1.0000     0.1514     0.9697     0.9216     0.0481
  2 H      0.8447     1.0000     0.1553     0.9715     0.9238     0.0477
  3 H      0.8050     1.0000     0.1950     0.9669     0.9192     0.0477
  4 C      6.0662     6.0000    -0.0662     3.9669     3.5314     0.4355
  5 N      7.2376     7.0000    -0.2376     3.1918     2.7000     0.4917
  6 C      6.1468     6.0000    -0.1468     3.9151     3.6304     0.2847
  7 H      0.8398     1.0000     0.1602     0.9638     0.9161     0.0477
  8 H      0.8505     1.0000     0.1495     0.9784     0.9302     0.0482
  9 H      0.8350     1.0000     0.1650     0.9758     0.9284     0.0474
 10 C      6.0931     6.0000    -0.0931     4.0045     3.5677     0.4368
 11 N      7.2353     7.0000    -0.2353     3.1999     2.7080     0.4919
 12 C      6.2072     6.0000    -0.2072     3.8799     3.5944     0.2855
 13 H      0.8050     1.0000     0.1950     0.9678     0.9203     0.0475
 14 H      0.8074     1.0000     0.1926     0.9701     0.9226     0.0476
 15 H      0.8541     1.0000     0.1459     0.9701     0.9214     0.0487
 16 C      6.0185     6.0000    -0.0185     3.9241     3.4917     0.4324
 17 N      7.3070     7.0000    -0.3070     3.1601     2.6623     0.4978

  Mayer bond orders larger than 0.100000
B(  0-C ,  1-H ) :   0.9272 B(  0-C ,  2-H ) :   0.9241 B(  0-C ,  3-H ) :   0.9157 
B(  0-C ,  4-C ) :   0.8724 B(  4-C ,  5-N ) :   2.6732 B(  6-C ,  7-H ) :   0.9203 
B(  6-C ,  8-H ) :   0.9248 B(  6-C ,  9-H ) :   0.9220 B(  6-C , 10-C ) :   0.8849 
B( 10-C , 11-N ) :   2.6809 B( 12-C , 13-H ) :   0.9126 B( 12-C , 14-H ) :   0.9150 
B( 12-C , 15-H ) :   0.9235 B( 12-C , 16-C ) :   0.8655 B( 16-C , 17-N ) :   2.6290 



                *******************************************
                * RELAXED MP2 DENSITY POPULATION ANALYSIS *
                *******************************************

------------------------------------------------------------------------------
                           ORCA POPULATION ANALYSIS
------------------------------------------------------------------------------
Input electron density              ... 12mecn.remya.etal.2.mol6,7,8-orca.engrad-mp2.def2tzvp.frozencore.pmp2re
BaseName (.gbw .S,...)              ... 12mecn.remya.etal.2.mol6,7,8-orca.engrad-mp2.def2tzvp.frozencore

                    ********************************
                    * MULLIKEN POPULATION ANALYSIS *
                    ********************************

-----------------------
MULLIKEN ATOMIC CHARGES
-----------------------
   0 C :   -0.292713
   1 H :    0.166269
   2 H :    0.169454
   3 H :    0.199957
   4 C :   -0.100429
   5 N :   -0.143068
   6 C :   -0.253718
   7 H :    0.172838
   8 H :    0.165048
   9 H :    0.178463
  10 C :   -0.124746
  11 N :   -0.137909
  12 C :   -0.293459
  13 H :    0.201107
  14 H :    0.199688
  15 H :    0.160711
  16 C :   -0.063847
  17 N :   -0.203645
Sum of atomic charges:    0.0000000

--------------------------------
MULLIKEN REDUCED ORBITAL CHARGES
--------------------------------
  0 C s       :     3.188551  s :     3.188551
      pz      :     0.828898  p :     3.020146
      px      :     1.107540
      py      :     1.083708
      dz2     :     0.015873  d :     0.076940
      dxz     :     0.017900
      dyz     :     0.016831
      dx2y2   :     0.012544
      dxy     :     0.013792
      f0      :     0.001905  f :     0.007076
      f+1     :     0.000927
      f-1     :     0.000910
      f+2     :     0.000595
      f-2     :     0.000609
      f+3     :     0.001234
      f-3     :     0.000896
  1 H s       :     0.809616  s :     0.809616
      pz      :     0.005743  p :     0.024115
      px      :     0.008678
      py      :     0.009693
  2 H s       :     0.806417  s :     0.806417
      pz      :     0.005941  p :     0.024129
      px      :     0.005940
      py      :     0.012248
  3 H s       :     0.775198  s :     0.775198
      pz      :     0.005946  p :     0.024844
      px      :     0.013615
      py      :     0.005283
  4 C s       :     3.222304  s :     3.222304
      pz      :     0.971007  p :     2.753277
      px      :     0.887330
      py      :     0.894941
      dz2     :     0.023298  d :     0.105860
      dxz     :     0.036967
      dyz     :     0.035681
      dx2y2   :     0.004813
      dxy     :     0.005101
      f0      :     0.004422  f :     0.018988
      f+1     :     0.006435
      f-1     :     0.006379
      f+2     :     0.000602
      f-2     :     0.000634
      f+3     :     0.000258
      f-3     :     0.000256
  5 N s       :     3.680086  s :     3.680086
      pz      :     1.250214  p :     3.390386
      px      :     1.072154
      py      :     1.068017
      dz2     :     0.014418  d :     0.067396
      dxz     :     0.021425
      dyz     :     0.021380
      dx2y2   :     0.005142
      dxy     :     0.005031
      f0      :     0.000936  f :     0.005200
      f+1     :     0.001410
      f-1     :     0.001433
[...]
      f+1     :     0.006336
      f-1     :     0.006401
      f+2     :     0.000642
      f-2     :     0.000664
      f+3     :     0.000258
      f-3     :     0.000260
 11 N s       :     3.672431  s :     3.672431
      pz      :     1.251907  p :     3.392799
      px      :     1.069283
      py      :     1.071608
      dz2     :     0.014441  d :     0.067476
      dxz     :     0.021304
      dyz     :     0.021412
      dx2y2   :     0.005195
      dxy     :     0.005125
      f0      :     0.000937  f :     0.005203
      f+1     :     0.001426
      f-1     :     0.001413
      f+2     :     0.000430
      f-2     :     0.000428
      f+3     :     0.000283
      f-3     :     0.000284
 12 C s       :     3.200098  s :     3.200098
      pz      :     0.809553  p :     3.010802
      px      :     1.096248
      py      :     1.105001
      dz2     :     0.016032  d :     0.075493
      dxz     :     0.016442
      dyz     :     0.016276
      dx2y2   :     0.012753
      dxy     :     0.013990
      f0      :     0.001901  f :     0.007067
      f+1     :     0.000905
      f-1     :     0.000901
      f+2     :     0.000598
      f-2     :     0.000594
      f+3     :     0.000914
      f-3     :     0.001253
 13 H s       :     0.774104  s :     0.774104
      pz      :     0.005981  p :     0.024790
      px      :     0.013087
      py      :     0.005722
 14 H s       :     0.775724  s :     0.775724
      pz      :     0.005767  p :     0.024588
      px      :     0.005343
      py      :     0.013478
 15 H s       :     0.815222  s :     0.815222
      pz      :     0.005654  p :     0.024068
      px      :     0.009784
      py      :     0.008630
 16 C s       :     3.238707  s :     3.238707
      pz      :     0.951758  p :     2.696806
      px      :     0.871915
      py      :     0.873133
      dz2     :     0.023169  d :     0.109381
      dxz     :     0.037760
      dyz     :     0.038239
      dx2y2   :     0.005086
      dxy     :     0.005126
      f0      :     0.004382  f :     0.018953
      f+1     :     0.006383
      f-1     :     0.006435
      f+2     :     0.000605
      f-2     :     0.000635
      f+3     :     0.000257
      f-3     :     0.000257
 17 N s       :     3.700529  s :     3.700529
      pz      :     1.247212  p :     3.430795
      px      :     1.093168
      py      :     1.090415
      dz2     :     0.014092  d :     0.067104
      dxz     :     0.021180
      dyz     :     0.021261
      dx2y2   :     0.005350
      dxy     :     0.005220
      f0      :     0.000933  f :     0.005218
      f+1     :     0.001415
      f-1     :     0.001427
      f+2     :     0.000432
      f-2     :     0.000429
      f+3     :     0.000291
      f-3     :     0.000290


                     *******************************
                     * LOEWDIN POPULATION ANALYSIS *
                     *******************************

----------------------
LOEWDIN ATOMIC CHARGES
----------------------
   0 C :   -0.284365
   1 H :    0.149959
   2 H :    0.151376
   3 H :    0.154719
   4 C :   -0.207844
   5 N :    0.035630
   6 C :   -0.285537
   7 H :    0.149913
   8 H :    0.153455
   9 H :    0.156510
  10 C :   -0.213073
  11 N :    0.033998
  12 C :   -0.280102
  13 H :    0.156748
  14 H :    0.157571
  15 H :    0.150240
  16 C :   -0.198724
  17 N :    0.019525

-------------------------------
LOEWDIN REDUCED ORBITAL CHARGES
-------------------------------
  0 C s       :     2.816107  s :     2.816107
      pz      :     1.031157  p :     3.160684
      px      :     1.070583
      py      :     1.058945
      dz2     :     0.075757  d :     0.276206
      dxz     :     0.068245
      dyz     :     0.066708
      dx2y2   :     0.029608
      dxy     :     0.035888
      f0      :     0.008092  f :     0.031368
      f+1     :     0.006364
      f-1     :     0.006502
      f+2     :     0.003058
      f-2     :     0.002774
      f+3     :     0.002875
      f-3     :     0.001704
  1 H s       :     0.783867  s :     0.783867
      pz      :     0.014256  p :     0.066174
      px      :     0.024662
      py      :     0.027255
  2 H s       :     0.782591  s :     0.782591
      pz      :     0.014743  p :     0.066033
      px      :     0.016782
      py      :     0.034508
  3 H s       :     0.776292  s :     0.776292
      pz      :     0.015028  p :     0.068989
      px      :     0.039034
      py      :     0.014927
  4 C s       :     2.841020  s :     2.841020
      pz      :     1.169740  p :     2.842503
      px      :     0.836576
      py      :     0.836187
      dz2     :     0.163937  d :     0.457467
      dxz     :     0.143129
      dyz     :     0.139707
      dx2y2   :     0.005067
      dxy     :     0.005627
      f0      :     0.025564  f :     0.066854
      f+1     :     0.019711
      f-1     :     0.019362
      f+2     :     0.000815
      f-2     :     0.000880
      f+3     :     0.000263
      f-3     :     0.000259
  5 N s       :     3.300658  s :     3.300658
      pz      :     1.465605  p :     3.508670
      px      :     1.021380
      py      :     1.021684
      dz2     :     0.053043  d :     0.135933
      dxz     :     0.036606
      dyz     :     0.036057
      dx2y2   :     0.005216
      dxy     :     0.005010
      f0      :     0.007391  f :     0.019110
      f+1     :     0.005130
      f-1     :     0.005072
      f+2     :     0.000477
      f-2     :     0.000471
      f+3     :     0.000285
      f-3     :     0.000283
  6 C s       :     2.818191  s :     2.818191
      pz      :     1.032731  p :     3.157181
      px      :     1.063013
      py      :     1.061437
      dz2     :     0.076275  d :     0.278587
      dxz     :     0.062484
      dyz     :     0.071167
      dx2y2   :     0.033838
      dxy     :     0.034824
      f0      :     0.008081  f :     0.031577
      f+1     :     0.006938
      f-1     :     0.006230
      f+2     :     0.002990
      f-2     :     0.002663
      f+3     :     0.001743
      f-3     :     0.002933
  7 H s       :     0.784527  s :     0.784527
      pz      :     0.015664  p :     0.065561
      px      :     0.014772
      py      :     0.035125
  8 H s       :     0.780760  s :     0.780760
      pz      :     0.013640  p :     0.065785
      px      :     0.035509
      py      :     0.016636
  9 H s       :     0.777338  s :     0.777338
      pz      :     0.014210  p :     0.066152
      px      :     0.026447
      py      :     0.025495
 10 C s       :     2.841714  s :     2.841714
      pz      :     1.170097  p :     2.845830
      px      :     0.837225
      py      :     0.838507
      dz2     :     0.164121  d :     0.458707
      dxz     :     0.141280
      dyz     :     0.141637
      dx2y2   :     0.005814
      dxy     :     0.005854
      f0      :     0.025464  f :     0.066822
      f+1     :     0.019305
      f-1     :     0.019656
      f+2     :     0.000909
      f-2     :     0.000961
      f+3     :     0.000262
      f-3     :     0.000266
 11 N s       :     3.301913  s :     3.301913
      pz      :     1.464695  p :     3.509274
      px      :     1.023327
      py      :     1.021251
      dz2     :     0.052899  d :     0.135755
      dxz     :     0.036007
      dyz     :     0.036551
      dx2y2   :     0.005187
      dxy     :     0.005110
      f0      :     0.007339  f :     0.019059
      f+1     :     0.005055
      f-1     :     0.005112
      f+2     :     0.000495
      f-2     :     0.000491
      f+3     :     0.000284
      f-3     :     0.000284
 12 C s       :     2.816823  s :     2.816823
      pz      :     1.027101  p :     3.160904
      px      :     1.065693
      py      :     1.068110
      dz2     :     0.077717  d :     0.271220
      dxz     :     0.064856
      dyz     :     0.063432
      dx2y2   :     0.029484
      dxy     :     0.035731
      f0      :     0.008270  f :     0.031155
      f+1     :     0.006301
      f-1     :     0.006371
      f+2     :     0.002976
      f-2     :     0.002630
      f+3     :     0.001728
      f-3     :     0.002879
 13 H s       :     0.774465  s :     0.774465
      pz      :     0.015017  p :     0.068787
      px      :     0.037368
      py      :     0.016403
 14 H s       :     0.774372  s :     0.774372
      pz      :     0.014496  p :     0.068057
      px      :     0.015108
      py      :     0.038453
 15 H s       :     0.783948  s :     0.783948
      pz      :     0.013926  p :     0.065811
      px      :     0.027522
      py      :     0.024364
 16 C s       :     2.842366  s :     2.842366
      pz      :     1.171651  p :     2.822721
      px      :     0.825503
      py      :     0.825567
      dz2     :     0.164144  d :     0.466468
      dxz     :     0.145643
      dyz     :     0.145359
      dx2y2   :     0.005602
      dxy     :     0.005720
      f0      :     0.025457  f :     0.067169
      f+1     :     0.019782
      f-1     :     0.019703
      f+2     :     0.000817
      f-2     :     0.000883
      f+3     :     0.000263
      f-3     :     0.000264
 17 N s       :     3.294413  s :     3.294413
      pz      :     1.466486  p :     3.532855
      px      :     1.034942
      py      :     1.031427
      dz2     :     0.052766  d :     0.134288
      dxz     :     0.035507
      dyz     :     0.035371
      dx2y2   :     0.005443
      dxy     :     0.005200
      f0      :     0.007385  f :     0.018919
      f+1     :     0.005010
      f-1     :     0.004991
      f+2     :     0.000478
      f-2     :     0.000472
      f+3     :     0.000293
      f-3     :     0.000291


                      *****************************
                      * MAYER POPULATION ANALYSIS *
                      *****************************

  NA   - Mulliken gross atomic population
  ZA   - Total nuclear charge
  QA   - Mulliken gross atomic charge
  VA   - Mayer's total valence
  BVA  - Mayer's bonded valence
  FA   - Mayer's free valence

  ATOM       NA         ZA         QA         VA         BVA        FA
  0 C      6.2927     6.0000    -0.2927     3.9124     3.6286     0.2839
  1 H      0.8337     1.0000     0.1663     0.9635     0.9160     0.0475
  2 H      0.8305     1.0000     0.1695     0.9653     0.9182     0.0471
  3 H      0.8000     1.0000     0.2000     0.9711     0.9241     0.0471
  4 C      6.1004     6.0000    -0.1004     4.0813     3.6565     0.4247
  5 N      7.1431     7.0000    -0.1431     3.3016     2.8226     0.4789
  6 C      6.2537     6.0000    -0.2537     3.9303     3.6466     0.2837
  7 H      0.8272     1.0000     0.1728     0.9585     0.9115     0.0471
  8 H      0.8350     1.0000     0.1650     0.9718     0.9242     0.0476
  9 H      0.8215     1.0000     0.1785     0.9698     0.9231     0.0468
 10 C      6.1247     6.0000    -0.1247     4.1128     3.6869     0.4259
 11 N      7.1379     7.0000    -0.1379     3.3121     2.8332     0.4790
 12 C      6.2935     6.0000    -0.2935     3.8858     3.6018     0.2839
 13 H      0.7989     1.0000     0.2011     0.9707     0.9239     0.0468
 14 H      0.8003     1.0000     0.1997     0.9717     0.9248     0.0469
 15 H      0.8393     1.0000     0.1607     0.9643     0.9162     0.0480
 16 C      6.0638     6.0000    -0.0638     4.0327     3.6108     0.4219
 17 N      7.2036     7.0000    -0.2036     3.2687     2.7845     0.4843

  Mayer bond orders larger than 0.100000
B(  0-C ,  1-H ) :   0.9173 B(  0-C ,  2-H ) :   0.9146 B(  0-C ,  3-H ) :   0.9040 
B(  0-C ,  4-C ) :   0.9011 B(  4-C ,  5-N ) :   2.7691 B(  6-C ,  7-H ) :   0.9107 
B(  6-C ,  8-H ) :   0.9158 B(  6-C ,  9-H ) :   0.9130 B(  6-C , 10-C ) :   0.9100 
B( 10-C , 11-N ) :   2.7816 B( 12-C , 13-H ) :   0.9012 B( 12-C , 14-H ) :   0.9038 
B( 12-C , 15-H ) :   0.9136 B( 12-C , 16-C ) :   0.8971 B( 16-C , 17-N ) :   2.7181 



----------------------------------
MP2 DERIVATIVE INTEGRAL GENERATION
----------------------------------


Input Wavefunction Amplitudes       ... 12mecn.remya.etal.2.mol6,7,8-orca.engrad-mp2.def2tzvp.frozencore.mp2tsaa.tmp
Input Correlated Electron Density   ... 12mecn.remya.etal.2.mol6,7,8-orca.engrad-mp2.def2tzvp.frozencore.pmp2re
Input Energy Weighted Density       ... 12mecn.remya.etal.2.mol6,7,8-orca.engrad-mp2.def2tzvp.frozencore.wmp2.tmp
Input SCF Electron Density          ... 12mecn.remya.etal.2.mol6,7,8-orca.engrad-mp2.def2tzvp.frozencore.scfp

One-Electron Terms    ...
                        ... One-Electron Terms done
Prescreening matrices              ... done

Batch handling in the gradient evaluation:
Memory available                      ... 8000.0 MB
Memory per occupied orbital in Q2     ...   20.3 MB
Memory per occupied orbital in Q3     ...    0.1 MB
Total memory requirement per |i>      ...   20.4 MB
Max. Number of orbitals possible      ...    391
Number of orbitals treated per batch  ...     24
Number of batches to be done          ...      1
Batch   0: i=    9 ...    32

---------------------------------------
MP2 TOTAL ENERGY:     -397.467317574 Eh
---------------------------------------

The final MP2 gradient
  0:   0.00122704  -0.00227806  -0.00839322
  1:  -0.00082920   0.00194240   0.00061121
  2:   0.00043517  -0.00217242   0.00073632
  3:  -0.00117269   0.00213978   0.00066534
  4:  -0.00054928   0.00051159   0.00033472
  5:   0.00025325   0.00021867   0.00554673
  6:   0.00003990  -0.00004932  -0.00686056
  7:  -0.00093868   0.00295966  -0.00025598
  8:   0.00392994  -0.00067443  -0.00111153
  9:  -0.00338729  -0.00163965  -0.00067899
 10:   0.00021717  -0.00052425   0.00490170
 11:   0.00029204   0.00004705   0.00413339
 12:   0.00145825   0.00001425   0.00824053
 13:   0.00246454  -0.00040023  -0.00093549
 14:  -0.00047666   0.00181714  -0.00155604
 15:  -0.00227747  -0.00139468  -0.00006447
 16:  -0.00032736  -0.00000373   0.00075146
 17:  -0.00035866  -0.00051379  -0.00606512

-----------------------------------
NORM OF THE MP2 GRADIENT:  0.019583
-----------------------------------

-------------------------   --------------------
FINAL SINGLE POINT ENERGY      -397.467317574249
-------------------------   --------------------


                            ***************************************
                            *     ORCA property calculations      *
                            ***************************************

                                    ---------------------
                                    Active property flags
                                    ---------------------
   (+) Dipole Moment


------------------------------------------------------------------------------
                       ORCA ELECTRIC PROPERTIES CALCULATION
------------------------------------------------------------------------------

Dipole Moment Calculation                       ... on
Quadrupole Moment Calculation                   ... off
Polarizability Calculation                      ... off
GBWName                                         ... 12mecn.remya.etal.2.mol6,7,8-orca.engrad-mp2.def2tzvp.frozencore.gbw
Electron density file                           ... 12mecn.remya.etal.2.mol6,7,8-orca.engrad-mp2.def2tzvp.frozencore.scfp
The origin for moment calculation is the CENTER OF MASS  = ( 5.458208, -2.928484  0.048810)

-------------
DIPOLE MOMENT
-------------
                                X             Y             Z
Electronic contribution:     -0.11039       0.18170      -3.04665
Nuclear contribution   :      0.16153      -0.29529       4.63424
                        -----------------------------------------
Total Dipole Moment    :      0.05114      -0.11359       1.58759
                        -----------------------------------------
Magnitude (a.u.)       :      1.59247
Magnitude (Debye)      :      4.04773



--------------------
Rotational spectrum 
--------------------
 
Rotational constants in cm-1:     0.060250     0.025489     0.021906 
Rotational constants in MHz :  1806.243225   764.152633   656.711635 

 Dipole components along the rotational axes: 
x,y,z [a.u.] :     0.011135     1.414422     0.731602 
x,y,z [Debye]:     0.028304     3.595175     1.859585 

 

                         *** MP2 UNRELAXED DENSITY ***

------------------------------------------------------------------------------
                       ORCA ELECTRIC PROPERTIES CALCULATION
------------------------------------------------------------------------------

Dipole Moment Calculation                       ... on
Quadrupole Moment Calculation                   ... off
Polarizability Calculation                      ... off
GBWName                                         ... 12mecn.remya.etal.2.mol6,7,8-orca.engrad-mp2.def2tzvp.frozencore.gbw
Electron density file                           ... 12mecn.remya.etal.2.mol6,7,8-orca.engrad-mp2.def2tzvp.frozencore.pmp2ur
The origin for moment calculation is the CENTER OF MASS  = ( 5.458208, -2.928484  0.048810)

-------------
DIPOLE MOMENT
-------------
                                X             Y             Z
Electronic contribution:     -0.11190       0.18401      -3.08236
Nuclear contribution   :      0.16153      -0.29529       4.63424
                        -----------------------------------------
Total Dipole Moment    :      0.04963      -0.11128       1.55188
                        -----------------------------------------
Magnitude (a.u.)       :      1.55666
Magnitude (Debye)      :      3.95670



--------------------
Rotational spectrum 
--------------------
 
Rotational constants in cm-1:     0.060250     0.025489     0.021906 
Rotational constants in MHz :  1806.243225   764.152633   656.711635 

 Dipole components along the rotational axes: 
x,y,z [a.u.] :     0.010798     1.382418     0.715529 
x,y,z [Debye]:     0.027446     3.513827     1.818729 

 

                           *** MP2 RELAXED DENSITY ***

------------------------------------------------------------------------------
                       ORCA ELECTRIC PROPERTIES CALCULATION
------------------------------------------------------------------------------

Dipole Moment Calculation                       ... on
Quadrupole Moment Calculation                   ... off
Polarizability Calculation                      ... off
GBWName                                         ... 12mecn.remya.etal.2.mol6,7,8-orca.engrad-mp2.def2tzvp.frozencore.gbw
Electron density file                           ... 12mecn.remya.etal.2.mol6,7,8-orca.engrad-mp2.def2tzvp.frozencore.pmp2re
The origin for moment calculation is the CENTER OF MASS  = ( 5.458208, -2.928484  0.048810)

-------------
DIPOLE MOMENT
-------------
                                X             Y             Z
Electronic contribution:     -0.11445       0.19268      -3.17796
Nuclear contribution   :      0.16153      -0.29529       4.63424
                        -----------------------------------------
Total Dipole Moment    :      0.04709      -0.10260       1.45628
                        -----------------------------------------
Magnitude (a.u.)       :      1.46065
Magnitude (Debye)      :      3.71269



--------------------
Rotational spectrum 
--------------------
 
Rotational constants in cm-1:     0.060250     0.025489     0.021906 
Rotational constants in MHz :  1806.243225   764.152633   656.711635 

 Dipole components along the rotational axes: 
x,y,z [a.u.] :     0.009234     1.297930     0.669926 
x,y,z [Debye]:     0.023471     3.299077     1.702817 

 

Timings for individual modules:

Sum of individual times         ...      266.543 sec (=   4.442 min)
GTO integral calculation        ...        5.775 sec (=   0.096 min)   2.2 %
SCF iterations                  ...       57.607 sec (=   0.960 min)  21.6 %
MP2 module                      ...      203.162 sec (=   3.386 min)  76.2 %
                             ****ORCA TERMINATED NORMALLY****
TOTAL RUN TIME: 0 days 0 hours 4 minutes 27 seconds 539 msec
