
                                 *****************
                                 * O   R   C   A *
                                 *****************

           --- An Ab Initio, DFT and Semiempirical electronic structure package ---

                  #######################################################
                  #                        -***-                        #
                  #          Department of theory and spectroscopy      #
                  #               Directorship: Frank Neese             #
                  #        Max Planck Institute fuer Kohlenforschung    #
                  #                Kaiser Wilhelm Platz 1               #
                  #                 D-45470 Muelheim/Ruhr               #
                  #                      Germany                        #
                  #                                                     #
                  #                  All rights reserved                #
                  #                        -***-                        #
                  #######################################################


                         Program Version 4.2.0 -  RELEASE  -


 With contributions from (in alphabetic order):
   Daniel Aravena         : Magnetic Suceptibility
   Michael Atanasov       : Ab Initio Ligand Field Theory (pilot matlab implementation)
   Alexander A. Auer      : GIAO ZORA, VPT2
   Ute Becker             : Parallelization
   Giovanni Bistoni       : ED, misc. LED, open-shell LED, HFLED
   Martin Brehm           : Molecular dynamics
   Dmytro Bykov           : SCF Hessian
   Vijay G. Chilkuri      : MRCI spin determinant printing, contributions to CSF-ICE
   Dipayan Datta          : RHF DLPNO-CCSD density
   Achintya Kumar Dutta   : EOM-CC, STEOM-CC
   Dmitry Ganyushin       : Spin-Orbit,Spin-Spin,Magnetic field MRCI
   Miquel Garcia          : C-PCM Hessian, Gaussian charge scheme
   Yang Guo               : DLPNO-NEVPT2, CIM, IAO-localization
   Andreas Hansen         : Spin unrestricted coupled pair/coupled cluster methods
   Benjamin Helmich-Paris : CASSCF linear response (MC-RPA)
   Lee Huntington         : MR-EOM, pCC
   Robert Izsak           : Overlap fitted RIJCOSX, COSX-SCS-MP3, EOM
   Christian Kollmar      : KDIIS, OOCD, Brueckner-CCSD(T), CCSD density
   Simone Kossmann        : Meta GGA functionals, TD-DFT gradient, OOMP2, MP2 Hessian
   Martin Krupicka        : AUTO-CI
   Lucas Lang             : DCDCAS
   Dagmar Lenk            : GEPOL surface, SMD
   Dimitrios Liakos       : Extrapolation schemes; Compound Job, initial MDCI parallelization
   Dimitrios Manganas     : Further ROCIS development; embedding schemes
   Dimitrios Pantazis     : SARC Basis sets
   Taras Petrenko         : DFT Hessian,TD-DFT gradient, ASA, ECA, R-Raman, ABS, FL, XAS/XES, NRVS
   Peter Pinski           : DLPNO-MP2, DLPNO-MP2 Gradient
   Christoph Reimann      : Effective Core Potentials
   Marius Retegan         : Local ZFS, SOC
   Christoph Riplinger    : Optimizer, TS searches, QM/MM, DLPNO-CCSD(T), (RO)-DLPNO pert. Triples
   Tobias Risthaus        : Range-separated hybrids, TD-DFT gradient, RPA, STAB
   Michael Roemelt        : Original ROCIS implementation
   Masaaki Saitow         : Open-shell DLPNO-CCSD energy and density
   Barbara Sandhoefer     : DKH picture change effects
   Avijit Sen             : IP-ROCIS
   Kantharuban Sivalingam : CASSCF convergence, NEVPT2, FIC-MRCI
   Bernardo de Souza      : ESD, SOC TD-DFT
   Georgi Stoychev        : AutoAux, RI-MP2 NMR
   Willem Van den Heuvel  : Paramagnetic NMR
   Boris Wezisla          : Elementary symmetry handling
   Frank Wennmohs         : Technical directorship


 We gratefully acknowledge several colleagues who have allowed us to
 interface, adapt or use parts of their codes:
   Stefan Grimme, W. Hujo, H. Kruse,             : VdW corrections, initial TS optimization,
                  C. Bannwarth                     DFT functionals, gCP, sTDA/sTD-DF
   Ed Valeev, F. Pavosevic, A. Kumar             : LibInt (2-el integral package), F12 methods
   Garnet Chan, S. Sharma, J. Yang, R. Olivares  : DMRG
   Ulf Ekstrom                                   : XCFun DFT Library
   Mihaly Kallay                                 : mrcc  (arbitrary order and MRCC methods)
   Andreas Klamt, Michael Diedenhofen            : otool_cosmo (COSMO solvation model)
   Jiri Pittner, Ondrej Demel                    : Mk-CCSD
   Frank Weinhold                                : gennbo (NPA and NBO analysis)
   Christopher J. Cramer and Donald G. Truhlar   : smd solvation model
   Lars Goerigk                                  : TD-DFT with DH, B97 family of functionals
   V. Asgeirsson, H. Jonsson                     : NEB implementation
   FAccTs GmbH                                   : IRC, NEB, NEB-TS, Multilevel, MM, QM/MM, CI optimization
   S Lehtola, MJT Oliveira, MAL Marques          : LibXC Library


 Your calculation uses the libint2 library for the computation of 2-el integrals
 For citations please refer to: http://libint.valeyev.net

 Your ORCA version has been built with support for libXC version: 4.2.3
 For citations please refer to: https://tddft.org/programs/libxc/

 This ORCA versions uses:
   CBLAS   interface :  Fast vector & matrix operations
   LAPACKE interface :  Fast linear algebra routines
   SCALAPACK package :  Parallel linear algebra routines


----- Orbital basis set information -----
Your calculation utilizes the basis: def2-TZVP
   F. Weigend and R. Ahlrichs, Phys. Chem. Chem. Phys. 7, 3297 (2005).

================================================================================
                                        WARNINGS
                       Please study these warnings very carefully!
================================================================================


WARNING: The frozen-core approximation for MP2-gradient calculations is turned on by default.

INFO   : the flag for use of LIBINT has been found!

================================================================================
                                       INPUT FILE
================================================================================
NAME = 12h2o.su.etal.mol1,2,3,5,7,10-orca.engrad-mp2.def2tzvp.frozencore.inp
|  1> # 12h2o.su.etal.mol1,2,3,5,7,10
|  2> ! MP2 def2-TZVP EnGrad TightSCF
|  3> 
|  4> %pal
|  5>     nprocs 6
|  6> end
|  7> 
|  8> %maxcore 8000
|  9> 
| 10> %scf
| 11>     ConvForced true
| 12> end
| 13> 
| 14> *xyz 0 1
| 15> O  -1.794470000  -0.923410000   2.768350000
| 16> H  -2.338250000  -1.359750000   3.430940000
| 17> H  -0.879480000  -1.303000000   2.865760000
| 18> O   0.923410000  -1.794470000  -2.768350000
| 19> H   1.359750000  -2.338250000  -3.430940000
| 20> H   1.303000000  -0.879480000  -2.865760000
| 21> O  -1.752130000  -0.741530000  -2.896280000
| 22> H  -2.036450000  -0.920500000  -1.984040000
| 23> H  -0.921210000  -1.242140000  -2.984230000
| 24> O   0.885520000  -1.737840000   0.052730000
| 25> H   1.284090000  -0.839590000   0.017130000
| 26> H   1.032320000  -2.090180000  -0.841890000
| 27> O  -1.737840000  -0.885520000  -0.052730000
| 28> H  -2.090180000  -1.032320000   0.841890000
| 29> H  -0.839590000  -1.284090000  -0.017130000
| 30> O  -0.923410000   1.794470000  -2.768350000
| 31> H  -1.359750000   2.338250000  -3.430940000
| 32> H  -1.303000000   0.879480000  -2.865760000
| 33> *
| 34> 
| 35>                          ****END OF INPUT****
================================================================================

                     *******************************
                     * Energy+Gradient Calculation *
                     *******************************

---------------------------------
CARTESIAN COORDINATES (ANGSTROEM)
---------------------------------
  O     -1.794470   -0.923410    2.768350
  H     -2.338250   -1.359750    3.430940
  H     -0.879480   -1.303000    2.865760
  O      0.923410   -1.794470   -2.768350
  H      1.359750   -2.338250   -3.430940
  H      1.303000   -0.879480   -2.865760
  O     -1.752130   -0.741530   -2.896280
  H     -2.036450   -0.920500   -1.984040
  H     -0.921210   -1.242140   -2.984230
  O      0.885520   -1.737840    0.052730
  H      1.284090   -0.839590    0.017130
  H      1.032320   -2.090180   -0.841890
  O     -1.737840   -0.885520   -0.052730
  H     -2.090180   -1.032320    0.841890
  H     -0.839590   -1.284090   -0.017130
  O     -0.923410    1.794470   -2.768350
  H     -1.359750    2.338250   -3.430940
  H     -1.303000    0.879480   -2.865760

----------------------------
CARTESIAN COORDINATES (A.U.)
----------------------------
  NO LB      ZA    FRAG     MASS         X           Y           Z
   0 O     8.0000    0    15.999   -3.391057   -1.744992    5.231423
   1 H     1.0000    0     1.008   -4.418652   -2.569555    6.483537
   2 H     1.0000    0     1.008   -1.661976   -2.462313    5.415502
   3 O     8.0000    0    15.999    1.744992   -3.391057   -5.231423
   4 H     1.0000    0     1.008    2.569555   -4.418652   -6.483537
   5 H     1.0000    0     1.008    2.462313   -1.661976   -5.415502
   6 O     8.0000    0    15.999   -3.311046   -1.401289   -5.473176
   7 H     1.0000    0     1.008   -3.848333   -1.739493   -3.749292
   8 H     1.0000    0     1.008   -1.740835   -2.347304   -5.639377
   9 O     8.0000    0    15.999    1.673390   -3.284042    0.099645
  10 H     1.0000    0     1.008    2.426578   -1.586595    0.032371
  11 H     1.0000    0     1.008    1.950802   -3.949868   -1.590942
  12 O     8.0000    0    15.999   -3.284042   -1.673390   -0.099645
  13 H     1.0000    0     1.008   -3.949868   -1.950802    1.590942
  14 H     1.0000    0     1.008   -1.586595   -2.426578   -0.032371
  15 O     8.0000    0    15.999   -1.744992    3.391057   -5.231423
  16 H     1.0000    0     1.008   -2.569555    4.418652   -6.483537
  17 H     1.0000    0     1.008   -2.462313    1.661976   -5.415502

--------------------------------
INTERNAL COORDINATES (ANGSTROEM)
--------------------------------
 O      0   0   0     0.000000000000     0.00000000     0.00000000
 H      1   0   0     0.961828878803     0.00000000     0.00000000
 H      1   2   0     0.995381322057   106.21731035     0.00000000
 O      3   1   2     5.935920367146   102.58474291   140.89009172
 H      4   3   1     0.961828878803   146.97742434   224.01286022
 H      4   3   1     0.995381322057    97.62005672    87.72090689
 O      4   3   1     2.878117964938    74.30903121   359.04191204
 H      7   4   3     0.972136791249    99.37069922   345.64431536
 H      7   4   3     0.974050112161    12.30570018   233.12878636
 O      4   3   1     2.821902722526    17.32744736   169.52589616
 H     10   4   3     0.983350632989    88.66470709   258.45499027
 H     10   4   3     0.972645187106    21.75017499   124.29821266
 O      8   7   4     1.954571525578   151.55104644    46.66533865
 H     13   8   7     0.972645187106   148.29772527   173.62852352
 H     13   8   7     0.983350632989    99.67573411   310.71905253
 O      7   4   3     2.671037050155    93.25587544    89.13707796
 H     16   7   4     0.961828878803   111.28648995   133.34764634
 H     16   7   4     0.995381322057     5.27275451   149.57993166

---------------------------
INTERNAL COORDINATES (A.U.)
---------------------------
 O      0   0   0     0.000000000000     0.00000000     0.00000000
 H      1   0   0     1.817593168635     0.00000000     0.00000000
 H      1   2   0     1.880998097508   106.21731035     0.00000000
 O      3   1   2    11.217263846671   102.58474291   140.89009172
 H      4   3   1     1.817593168635   146.97742434   224.01286022
 H      4   3   1     1.880998097508    97.62005672    87.72090689
 O      4   3   1     5.438854734852    74.30903121   359.04191204
 H      7   4   3     1.837072300170    99.37069922   345.64431536
 H      7   4   3     1.840687952699    12.30570018   233.12878636
 O      4   3   1     5.332623322141    17.32744736   169.52589616
 H     10   4   3     1.858263389967    88.66470709   258.45499027
 H     10   4   3     1.838033029106    21.75017499   124.29821266
 O      8   7   4     3.693604892503   151.55104644    46.66533865
 H     13   8   7     1.838033029106   148.29772527   173.62852352
 H     13   8   7     1.858263389967    99.67573411   310.71905253
 O      7   4   3     5.047528518350    93.25587544    89.13707796
 H     16   7   4     1.817593168635   111.28648995   133.34764634
 H     16   7   4     1.880998097508     5.27275451   149.57993166

---------------------
BASIS SET INFORMATION
---------------------
There are 2 groups of distinct atoms

 Group   1 Type O   : 11s6p2d1f contracted to 5s3p2d1f pattern {62111/411/11/1}
 Group   2 Type H   : 5s1p contracted to 3s1p pattern {311/1}

Atom   0O    basis set group =>   1
Atom   1H    basis set group =>   2
Atom   2H    basis set group =>   2
Atom   3O    basis set group =>   1
Atom   4H    basis set group =>   2
Atom   5H    basis set group =>   2
Atom   6O    basis set group =>   1
Atom   7H    basis set group =>   2
Atom   8H    basis set group =>   2
Atom   9O    basis set group =>   1
Atom  10H    basis set group =>   2
Atom  11H    basis set group =>   2
Atom  12O    basis set group =>   1
Atom  13H    basis set group =>   2
Atom  14H    basis set group =>   2
Atom  15O    basis set group =>   1
Atom  16H    basis set group =>   2
Atom  17H    basis set group =>   2


           ************************************************************
           *        Program running with 6 parallel MPI-processes     *
           *              working on a common directory               *
           ************************************************************
------------------------------------------------------------------------------
                           ORCA GTO INTEGRAL CALCULATION
------------------------------------------------------------------------------

                         BASIS SET STATISTICS AND STARTUP INFO

 # of primitive gaussian shells          ...  192
 # of primitive gaussian functions       ...  372
 # of contracted shells                  ...  114
 # of contracted basis functions         ...  258
 Highest angular momentum                ...    3
 Maximum contraction depth               ...    6
 Integral package used                   ... LIBINT
 Integral threshhold            Thresh   ...  2.500e-11
 Primitive cut-off              TCut     ...  2.500e-12


------------------------------ INTEGRAL EVALUATION ----------------------------


 * One electron integrals 
 Pre-screening matrix                    ... done
 Shell pair data                         ... done (   0.001 sec)



           ************************************************************
           *        Program running with 6 parallel MPI-processes     *
           *              working on a common directory               *
           ************************************************************
-------------------------------------------------------------------------------
                                 ORCA SCF
-------------------------------------------------------------------------------

------------
SCF SETTINGS
------------
Hamiltonian:
 Ab initio Hamiltonian  Method          .... Hartree-Fock(GTOs)


General Settings:
 Integral files         IntName         .... 12h2o.su.etal.mol1,2,3,5,7,10-orca.engrad-mp2.def2tzvp.frozencore
 Hartree-Fock type      HFTyp           .... RHF
 Total Charge           Charge          ....    0
 Multiplicity           Mult            ....    1
 Number of Electrons    NEL             ....   60
 Basis Dimension        Dim             ....  258
 Nuclear Repulsion      ENuc            ....    271.8315309254 Eh

Convergence Acceleration:
 DIIS                   CNVDIIS         .... on
   Start iteration      DIISMaxIt       ....    12
   Startup error        DIISStart       ....  0.200000
   # of expansion vecs  DIISMaxEq       ....     5
   Bias factor          DIISBfac        ....   1.050
   Max. coefficient     DIISMaxC        ....  10.000
 Newton-Raphson         CNVNR           .... off
 SOSCF                  CNVSOSCF        .... on
   Start iteration      SOSCFMaxIt      ....   150
   Startup grad/error   SOSCFStart      ....  0.003300
 Level Shifting         CNVShift        .... on
   Level shift para.    LevelShift      ....    0.2500
   Turn off err/grad.   ShiftErr        ....    0.0010
 Zerner damping         CNVZerner       .... off
 Static damping         CNVDamp         .... on
   Fraction old density DampFac         ....    0.7000
   Max. Damping (<1)    DampMax         ....    0.9800
   Min. Damping (>=0)   DampMin         ....    0.0000
   Turn off err/grad.   DampErr         ....    0.1000
 Fernandez-Rico         CNVRico         .... off

SCF Procedure:
 Maximum # iterations   MaxIter         ....   125
 SCF integral mode      SCFMode         .... Direct
   Integral package                     .... LIBINT
 Reset frequency        DirectResetFreq ....    20
 Integral Threshold     Thresh          ....  2.500e-11 Eh
 Primitive CutOff       TCut            ....  2.500e-12 Eh

Convergence Tolerance:
 Convergence Check Mode ConvCheckMode   .... Total+1el-Energy
 Convergence forced     ConvForced      .... 1
 Energy Change          TolE            ....  1.000e-08 Eh
 1-El. energy change                    ....  1.000e-05 Eh
 Orbital Gradient       TolG            ....  1.000e-05
 Orbital Rotation angle TolX            ....  1.000e-05
 DIIS Error             TolErr          ....  5.000e-07


Diagonalization of the overlap matrix:
Smallest eigenvalue                        ... 4.157e-03
Time for diagonalization                   ...    0.010 sec
Threshold for overlap eigenvalues          ... 1.000e-08
Number of eigenvalues below threshold      ... 0
Time for construction of square roots      ...    0.005 sec
Total time needed                          ...    0.015 sec

-------------------
DFT GRID GENERATION
-------------------

General Integration Accuracy     IntAcc      ...  4.340
Radial Grid Type                 RadialGrid  ... Gauss-Chebyshev
Angular Grid (max. acc.)         AngularGrid ... Lebedev-110
Angular grid pruning method      GridPruning ... 3 (G Style)
Weight generation scheme         WeightScheme... Becke
Basis function cutoff            BFCut       ...    1.0000e-11
Integration weight cutoff        WCut        ...    1.0000e-14
Grids for H and He will be reduced by one unit

# of grid points (after initial pruning)     ...  19824 (   0.0 sec)
# of grid points (after weights+screening)   ...  18753 (   0.0 sec)
nearest neighbour list constructed           ...    0.0 sec
Grid point re-assignment to atoms done       ...    0.0 sec
Grid point division into batches done        ...    0.0 sec
Reduced shell lists constructed in    0.0 sec

Total number of grid points                  ...    18753
Total number of batches                      ...      303
Average number of points per batch           ...       61
Average number of grid points per atom       ...     1042
Average number of shells per batch           ...    46.35 (40.65%)
Average number of basis functions per batch  ...    91.77 (35.57%)
Average number of large shells per batch     ...    30.75 (66.35%)
Average number of large basis fcns per batch ...    61.90 (67.46%)
Maximum spatial batch extension              ...  14.53, 20.95, 13.04 au
Average spatial batch extension              ...   0.72,  0.84,  0.66 au

Time for grid setup =    0.059 sec

------------------------------
INITIAL GUESS: MODEL POTENTIAL
------------------------------
Loading Hartree-Fock densities                     ... done
Calculating cut-offs                               ... done
Setting up the integral package                    ... done
Initializing the effective Hamiltonian             ... done
Starting the Coulomb interaction                   ... done (   0.0 sec)
Reading the grid                                   ... done
Mapping shells                                     ... done
Starting the XC term evaluation                    ... done (   0.0 sec)
Transforming the Hamiltonian                       ... done (   0.0 sec)
Diagonalizing the Hamiltonian                      ... done (   0.0 sec)
Back transforming the eigenvectors                 ... done (   0.0 sec)
Now organizing SCF variables                       ... done
                      ------------------
                      INITIAL GUESS DONE (   0.2 sec)
                      ------------------
--------------
SCF ITERATIONS
--------------
ITER       Energy         Delta-E        Max-DP      RMS-DP      [F,P]     Damp
               ***  Starting incremental Fock matrix formation  ***
  0   -455.8448502164   0.000000000000 0.04412492  0.00096574  0.3494445 0.7000
  1   -456.0512697752  -0.206419558741 0.02935495  0.00066999  0.2167564 0.7000
                               ***Turning on DIIS***
  2   -456.1608540314  -0.109584256286 0.01643303  0.00037591  0.1635006 0.7000
  3   -457.1761565808  -1.015302549368 0.00759789  0.00017435  0.1218382 0.7000
  4   -456.9731245286   0.203032052201 0.01709909  0.00040613  0.0861891 0.0000
  5   -456.4137444557   0.559380072907 0.00227048  0.00006522  0.0054328 0.0000
                      *** Initiating the SOSCF procedure ***
                           *** Shutting down DIIS ***
                      *** Re-Reading the Fockian *** 
                      *** Removing any level shift *** 
ITER      Energy       Delta-E        Grad      Rot      Max-DP    RMS-DP
  6   -456.38329389   0.0304505654  0.000892  0.000892  0.001462  0.000040
               *** Restarting incremental Fock matrix formation ***
  7   -456.37299943   0.0102944635  0.000306  0.000440  0.000670  0.000017
  8   -456.37300866  -0.0000092356  0.000132  0.000353  0.000517  0.000014
  9   -456.37301086  -0.0000022014  0.000065  0.000053  0.000108  0.000003
 10   -456.37301105  -0.0000001859  0.000011  0.000009  0.000019  0.000000
 11   -456.37301105  -0.0000000044  0.000003  0.000003  0.000006  0.000000
                  ***Gradient check signals convergence***
              ***Rediagonalizing the Fockian in SOSCF/NRSCF***

               *****************************************************
               *                     SUCCESS                       *
               *           SCF CONVERGED AFTER  12 CYCLES          *
               *****************************************************


----------------
TOTAL SCF ENERGY
----------------

Total Energy       :         -456.37301105 Eh          -12418.54098 eV

Components:
Nuclear Repulsion  :          271.83153093 Eh            7396.91201 eV
Electronic Energy  :         -728.20454198 Eh          -19815.45299 eV
One Electron Energy:        -1172.29892821 Eh          -31899.87559 eV
Two Electron Energy:          444.09438623 Eh           12084.42261 eV

Virial components:
Potential Energy   :         -912.13678805 Eh          -24820.50385 eV
Kinetic Energy     :          455.76377700 Eh           12401.96288 eV
Virial Ratio       :            2.00133673


---------------
SCF CONVERGENCE
---------------

  Last Energy change         ...    2.4670e-11  Tolerance :   1.0000e-08
  Last MAX-Density change    ...    1.7995e-06  Tolerance :   1.0000e-07
  Last RMS-Density change    ...    3.8947e-08  Tolerance :   5.0000e-09
  Last Orbital Gradient      ...    8.5946e-07  Tolerance :   1.0000e-05
  Last Orbital Rotation      ...    8.5963e-07  Tolerance :   1.0000e-05

             **** THE GBW FILE WAS UPDATED (12h2o.su.etal.mol1,2,3,5,7,10-orca.engrad-mp2.def2tzvp.frozencore.gbw) ****
             **** DENSITY FILE WAS UPDATED (12h2o.su.etal.mol1,2,3,5,7,10-orca.engrad-mp2.def2tzvp.frozencore.scfp) ****
             **** ENERGY FILE WAS UPDATED (12h2o.su.etal.mol1,2,3,5,7,10-orca.engrad-mp2.def2tzvp.frozencore.en.tmp) ****
             **** THE GBW FILE WAS UPDATED (12h2o.su.etal.mol1,2,3,5,7,10-orca.engrad-mp2.def2tzvp.frozencore.gbw) ****
             **** DENSITY FILE WAS UPDATED (12h2o.su.etal.mol1,2,3,5,7,10-orca.engrad-mp2.def2tzvp.frozencore.scfp) ****
----------------
ORBITAL ENERGIES
----------------

  NO   OCC          E(Eh)            E(eV) 
   0   2.0000     -20.620421      -561.1102 
   1   2.0000     -20.579865      -560.0066 
   2   2.0000     -20.577152      -559.9328 
   3   2.0000     -20.531234      -558.6833 
   4   2.0000     -20.513420      -558.1985 
   5   2.0000     -20.498441      -557.7909 
   6   2.0000      -1.400992       -38.1229 
   7   2.0000      -1.360933       -37.0329 
   8   2.0000      -1.357470       -36.9386 
   9   2.0000      -1.325164       -36.0595 
  10   2.0000      -1.298239       -35.3269 
  11   2.0000      -1.279699       -34.8224 
  12   2.0000      -0.766154       -20.8481 
  13   2.0000      -0.725922       -19.7533 
  14   2.0000      -0.723892       -19.6981 
  15   2.0000      -0.694338       -18.8939 
  16   2.0000      -0.679645       -18.4941 
  17   2.0000      -0.665841       -18.1184 
  18   2.0000      -0.642096       -17.4723 
  19   2.0000      -0.605400       -16.4738 
  20   2.0000      -0.596457       -16.2304 
  21   2.0000      -0.581413       -15.8210 
  22   2.0000      -0.551372       -15.0036 
  23   2.0000      -0.550326       -14.9751 
  24   2.0000      -0.523017       -14.2320 
  25   2.0000      -0.517524       -14.0825 
  26   2.0000      -0.503360       -13.6971 
  27   2.0000      -0.472070       -12.8457 
  28   2.0000      -0.464032       -12.6270 
  29   2.0000      -0.449141       -12.2217 
  30   0.0000       0.090579         2.4648 
  31   0.0000       0.118870         3.2346 
  32   0.0000       0.149401         4.0654 
  33   0.0000       0.174849         4.7579 
  34   0.0000       0.189769         5.1639 
  35   0.0000       0.204583         5.5670 
  36   0.0000       0.224886         6.1194 
  37   0.0000       0.249256         6.7826 
  38   0.0000       0.271977         7.4009 
  39   0.0000       0.329291         8.9605 
  40   0.0000       0.342138         9.3101 
  41   0.0000       0.362515         9.8645 
  42   0.0000       0.445648        12.1267 
  43   0.0000       0.470666        12.8075 
  44   0.0000       0.496073        13.4988 
  45   0.0000       0.509316        13.8592 
  46   0.0000       0.533146        14.5076 
  47   0.0000       0.541326        14.7302 
  48   0.0000       0.555997        15.1294 
  49   0.0000       0.562373        15.3029 
  50   0.0000       0.572754        15.5854 
  51   0.0000       0.575824        15.6690 
  52   0.0000       0.588583        16.0162 
  53   0.0000       0.606792        16.5116 
  54   0.0000       0.621542        16.9130 
  55   0.0000       0.644022        17.5247 
  56   0.0000       0.649520        17.6743 
  57   0.0000       0.654310        17.8047 
  58   0.0000       0.688796        18.7431 
  59   0.0000       0.700369        19.0580 
  60   0.0000       0.711737        19.3673 
  61   0.0000       0.719475        19.5779 
  62   0.0000       0.731593        19.9077 
  63   0.0000       0.751648        20.4534 
  64   0.0000       0.760719        20.7002 
  65   0.0000       0.773796        21.0561 
  66   0.0000       0.801986        21.8231 
  67   0.0000       0.816889        22.2287 
  68   0.0000       0.821609        22.3571 
  69   0.0000       0.826869        22.5002 
  70   0.0000       0.870796        23.6956 
  71   0.0000       0.917334        24.9619 
  72   0.0000       0.946515        25.7560 
  73   0.0000       0.965349        26.2685 
  74   0.0000       0.999542        27.1989 
  75   0.0000       1.044728        28.4285 
  76   0.0000       1.066566        29.0227 
  77   0.0000       1.172530        31.9062 
  78   0.0000       1.360390        37.0181 
  79   0.0000       1.372000        37.3340 
  80   0.0000       1.392923        37.9034 
  81   0.0000       1.396762        38.0078 
  82   0.0000       1.407789        38.3079 
  83   0.0000       1.426901        38.8279 
  84   0.0000       1.450728        39.4763 
  85   0.0000       1.473859        40.1057 
  86   0.0000       1.489880        40.5417 
  87   0.0000       1.505002        40.9532 
  88   0.0000       1.519152        41.3382 
  89   0.0000       1.530992        41.6604 
  90   0.0000       1.564406        42.5697 
  91   0.0000       1.581428        43.0328 
  92   0.0000       1.600173        43.5429 
  93   0.0000       1.627020        44.2735 
  94   0.0000       1.644884        44.7596 
  95   0.0000       1.686736        45.8984 
  96   0.0000       1.790974        48.7349 
  97   0.0000       1.806326        49.1526 
  98   0.0000       1.837487        50.0006 
  99   0.0000       1.847694        50.2783 
 100   0.0000       1.876514        51.0626 
 101   0.0000       1.893009        51.5114 
 102   0.0000       1.930734        52.5379 
 103   0.0000       1.954797        53.1927 
 104   0.0000       1.962123        53.3921 
 105   0.0000       1.989766        54.1443 
 106   0.0000       2.010252        54.7017 
 107   0.0000       2.021100        54.9969 
 108   0.0000       2.055838        55.9422 
 109   0.0000       2.088910        56.8421 
 110   0.0000       2.092631        56.9434 
 111   0.0000       2.150703        58.5236 
 112   0.0000       2.175209        59.1905 
 113   0.0000       2.198118        59.8138 
 114   0.0000       2.242784        61.0293 
 115   0.0000       2.288894        62.2840 
 116   0.0000       2.301992        62.6404 
 117   0.0000       2.305968        62.7486 
 118   0.0000       2.329222        63.3813 
 119   0.0000       2.333684        63.5028 
 120   0.0000       2.340575        63.6903 
 121   0.0000       2.364949        64.3535 
 122   0.0000       2.379721        64.7555 
 123   0.0000       2.385493        64.9126 
 124   0.0000       2.409310        65.5607 
 125   0.0000       2.420258        65.8586 
 126   0.0000       2.440873        66.4195 
 127   0.0000       2.467801        67.1523 
 128   0.0000       2.510122        68.3039 
 129   0.0000       2.547655        69.3252 
 130   0.0000       2.561129        69.6919 
 131   0.0000       2.568654        69.8966 
 132   0.0000       2.591448        70.5169 
 133   0.0000       2.616159        71.1893 
 134   0.0000       2.634474        71.6877 
 135   0.0000       2.650447        72.1223 
 136   0.0000       2.675268        72.7978 
 137   0.0000       2.676389        72.8283 
 138   0.0000       2.700750        73.4911 
 139   0.0000       2.706103        73.6368 
 140   0.0000       2.723703        74.1157 
 141   0.0000       2.750219        74.8373 
 142   0.0000       2.793113        76.0045 
 143   0.0000       2.838078        77.2280 
 144   0.0000       2.878976        78.3409 
 145   0.0000       2.900203        78.9185 
 146   0.0000       2.927108        79.6507 
 147   0.0000       2.949372        80.2565 
 148   0.0000       2.967214        80.7420 
 149   0.0000       2.980759        81.1106 
 150   0.0000       2.989328        81.3438 
 151   0.0000       3.016163        82.0740 
 152   0.0000       3.045641        82.8761 
 153   0.0000       3.049119        82.9708 
 154   0.0000       3.072842        83.6163 
 155   0.0000       3.098267        84.3081 
 156   0.0000       3.129928        85.1697 
 157   0.0000       3.131816        85.2210 
 158   0.0000       3.152296        85.7783 
 159   0.0000       3.174264        86.3761 
 160   0.0000       3.233576        87.9901 
 161   0.0000       3.259318        88.6906 
 162   0.0000       3.270019        88.9817 
 163   0.0000       3.331991        90.6681 
 164   0.0000       3.335223        90.7560 
 165   0.0000       3.411187        92.8231 
 166   0.0000       3.473036        94.5061 
 167   0.0000       3.556744        96.7839 
 168   0.0000       3.965472       107.9060 
 169   0.0000       3.982738       108.3758 
 170   0.0000       4.047375       110.1347 
 171   0.0000       4.108588       111.8004 
 172   0.0000       4.125124       112.2503 
 173   0.0000       4.173040       113.5542 
 174   0.0000       4.264026       116.0300 
 175   0.0000       4.292217       116.7972 
 176   0.0000       4.297227       116.9335 
 177   0.0000       4.349505       118.3561 
 178   0.0000       4.398447       119.6878 
 179   0.0000       4.444708       120.9466 
 180   0.0000       5.493539       149.4868 
 181   0.0000       5.527045       150.3985 
 182   0.0000       5.537570       150.6849 
 183   0.0000       5.569642       151.5577 
 184   0.0000       5.587163       152.0344 
 185   0.0000       5.591009       152.1391 
 186   0.0000       5.606683       152.5656 
 187   0.0000       5.623873       153.0334 
 188   0.0000       5.658326       153.9709 
 189   0.0000       5.695878       154.9927 
 190   0.0000       5.701148       155.1361 
 191   0.0000       5.720979       155.6757 
 192   0.0000       5.756752       156.6492 
 193   0.0000       5.795510       157.7038 
 194   0.0000       5.798397       157.7824 
 195   0.0000       5.803981       157.9344 
 196   0.0000       5.836735       158.8256 
 197   0.0000       5.844237       159.0298 
 198   0.0000       5.860369       159.4688 
 199   0.0000       5.865804       159.6167 
 200   0.0000       5.869079       159.7058 
 201   0.0000       5.875081       159.8691 
 202   0.0000       5.879387       159.9863 
 203   0.0000       5.897363       160.4754 
 204   0.0000       5.901086       160.5767 
 205   0.0000       5.908647       160.7825 
 206   0.0000       5.921667       161.1367 
 207   0.0000       5.941303       161.6711 
 208   0.0000       5.942571       161.7056 
 209   0.0000       5.990329       163.0051 
 210   0.0000       6.375576       173.4882 
 211   0.0000       6.415325       174.5699 
 212   0.0000       6.450195       175.5187 
 213   0.0000       6.498802       176.8414 
 214   0.0000       6.520648       177.4359 
 215   0.0000       6.536006       177.8538 
 216   0.0000       6.653754       181.0578 
 217   0.0000       6.672942       181.5800 
 218   0.0000       6.698879       182.2858 
 219   0.0000       6.731962       183.1860 
 220   0.0000       6.754105       183.7885 
 221   0.0000       6.787834       184.7063 
 222   0.0000       6.834146       185.9666 
 223   0.0000       6.850283       186.4057 
 224   0.0000       6.862566       186.7399 
 225   0.0000       6.865105       186.8090 
 226   0.0000       6.869903       186.9396 
 227   0.0000       6.883616       187.3127 
 228   0.0000       6.902144       187.8169 
 229   0.0000       6.907429       187.9607 
 230   0.0000       6.910654       188.0485 
 231   0.0000       6.926651       188.4838 
 232   0.0000       6.943122       188.9320 
 233   0.0000       6.950713       189.1385 
 234   0.0000       6.975601       189.8157 
 235   0.0000       6.989790       190.2019 
 236   0.0000       7.019130       191.0002 
 237   0.0000       7.028350       191.2511 
 238   0.0000       7.051521       191.8816 
 239   0.0000       7.138746       194.2551 
 240   0.0000       7.337753       199.6704 
 241   0.0000       7.369431       200.5324 
 242   0.0000       7.388362       201.0476 
 243   0.0000       7.448835       202.6931 
 244   0.0000       7.472832       203.3461 
 245   0.0000       7.474120       203.3812 
 246   0.0000       7.491661       203.8585 
 247   0.0000       7.536614       205.0817 
 248   0.0000       7.544709       205.3020 
 249   0.0000       7.605540       206.9573 
 250   0.0000       7.608984       207.0510 
 251   0.0000       7.657021       208.3581 
 252   0.0000      44.855784      1220.5879 
 253   0.0000      44.884385      1221.3662 
 254   0.0000      44.973023      1223.7782 
 255   0.0000      44.999610      1224.5017 
 256   0.0000      45.051819      1225.9223 
 257   0.0000      45.108354      1227.4607 

                    ********************************
                    * MULLIKEN POPULATION ANALYSIS *
                    ********************************

-----------------------
MULLIKEN ATOMIC CHARGES
-----------------------
   0 O :   -0.713440
   1 H :    0.355449
   2 H :    0.366840
   3 O :   -0.750497
   4 H :    0.376743
   5 H :    0.388960
   6 O :   -0.757722
   7 H :    0.407587
   8 H :    0.369680
   9 O :   -0.732100
  10 H :    0.358426
  11 H :    0.395573
  12 O :   -0.774739
  13 H :    0.383598
  14 H :    0.366551
  15 O :   -0.767739
  16 H :    0.326991
  17 H :    0.399840
Sum of atomic charges:   -0.0000000

--------------------------------
MULLIKEN REDUCED ORBITAL CHARGES
--------------------------------
  0 O s       :     3.811287  s :     3.811287
      pz      :     1.715369  p :     4.875730
      px      :     1.357934
      py      :     1.802427
      dz2     :     0.004080  d :     0.024906
      dxz     :     0.004410
      dyz     :     0.005862
      dx2y2   :     0.002495
      dxy     :     0.008060
      f0      :     0.000083  f :     0.001517
      f+1     :     0.000330
      f-1     :     0.000187
      f+2     :     0.000071
      f-2     :     0.000350
      f+3     :     0.000100
      f-3     :     0.000397
  1 H s       :     0.598965  s :     0.598965
      pz      :     0.017036  p :     0.045586
      px      :     0.013532
      py      :     0.015017
  2 H s       :     0.591502  s :     0.591502
      pz      :     0.010764  p :     0.041659
      px      :     0.017778
      py      :     0.013117
  3 O s       :     3.807846  s :     3.807846
      pz      :     1.732128  p :     4.917336
      px      :     1.797487
      py      :     1.387721
      dz2     :     0.003932  d :     0.023845
      dxz     :     0.005433
      dyz     :     0.004420
      dx2y2   :     0.002518
      dxy     :     0.007542
      f0      :     0.000084  f :     0.001471
      f+1     :     0.000178
      f-1     :     0.000334
      f+2     :     0.000062
      f-2     :     0.000347
      f+3     :     0.000373
      f-3     :     0.000093
  4 H s       :     0.578388  s :     0.578388
      pz      :     0.016989  p :     0.044870
      px      :     0.014600
      py      :     0.013280
  5 H s       :     0.570633  s :     0.570633
      pz      :     0.010340  p :     0.040407
      px      :     0.011900
      py      :     0.018167
  6 O s       :     3.792128  s :     3.792128
      pz      :     1.583255  p :     4.940239
      px      :     1.572114
      py      :     1.784870
      dz2     :     0.011453  d :     0.024001
      dxz     :     0.001137
      dyz     :     0.002279
      dx2y2   :     0.002379
      dxy     :     0.006753
      f0      :     0.000225  f :     0.001354
      f+1     :     0.000377
      f-1     :     0.000150
      f+2     :     0.000051
      f-2     :     0.000055
      f+3     :     0.000050
      f-3     :     0.000446
  7 H s       :     0.544639  s :     0.544639
      pz      :     0.025271  p :     0.047773
      px      :     0.010862
      py      :     0.011640
  8 H s       :     0.580587  s :     0.580587
      pz      :     0.010281  p :     0.049734
      px      :     0.023394
      py      :     0.016059
  9 O s       :     3.802353  s :     3.802353
      pz      :     1.598053  p :     4.903235
      px      :     1.845226
      py      :     1.459955
      dz2     :     0.011380  d :     0.025118
      dxz     :     0.002291
      dyz     :     0.002845
      dx2y2   :     0.003540
      dxy     :     0.005061
      f0      :     0.000153  f :     0.001394
      f+1     :     0.000114
      f-1     :     0.000456
      f+2     :     0.000068
      f-2     :     0.000040
      f+3     :     0.000453
      f-3     :     0.000109
 10 H s       :     0.598831  s :     0.598831
      pz      :     0.010008  p :     0.042743
      px      :     0.014146
      py      :     0.018589
 11 H s       :     0.556066  s :     0.556066
      pz      :     0.024708  p :     0.048361
      px      :     0.012687
      py      :     0.010967
 12 O s       :     3.804136  s :     3.804136
      pz      :     1.580262  p :     4.946955
      px      :     1.486237
      py      :     1.880456
      dz2     :     0.009543  d :     0.022237
      dxz     :     0.002389
      dyz     :     0.002316
      dx2y2   :     0.002813
      dxy     :     0.005176
      f0      :     0.000187  f :     0.001412
      f+1     :     0.000421
      f-1     :     0.000120
      f+2     :     0.000079
      f-2     :     0.000036
      f+3     :     0.000119
      f-3     :     0.000451
 13 H s       :     0.567011  s :     0.567011
      pz      :     0.024237  p :     0.049391
      px      :     0.011729
      py      :     0.013424
 14 H s       :     0.579446  s :     0.579446
      pz      :     0.009500  p :     0.054003
      px      :     0.028349
      py      :     0.016153
 15 O s       :     3.807979  s :     3.807979
      pz      :     1.717604  p :     4.934623
      px      :     1.801081
      py      :     1.415938
      dz2     :     0.004134  d :     0.023674
      dxz     :     0.005531
      dyz     :     0.004853
      dx2y2   :     0.002281
      dxy     :     0.006876
      f0      :     0.000088  f :     0.001462
      f+1     :     0.000184
      f-1     :     0.000328
      f+2     :     0.000069
      f-2     :     0.000359
      f+3     :     0.000347
      f-3     :     0.000087
 16 H s       :     0.626878  s :     0.626878
      pz      :     0.017195  p :     0.046131
      px      :     0.015122
      py      :     0.013814
 17 H s       :     0.543173  s :     0.543173
      pz      :     0.010628  p :     0.056987
      px      :     0.013842
      py      :     0.032517


                     *******************************
                     * LOEWDIN POPULATION ANALYSIS *
                     *******************************

----------------------
LOEWDIN ATOMIC CHARGES
----------------------
   0 O :   -0.314116
   1 H :    0.160454
   2 H :    0.186512
   3 O :   -0.297927
   4 H :    0.168976
   5 H :    0.196110
   6 O :   -0.301921
   7 H :    0.164502
   8 H :    0.149396
   9 O :   -0.309955
  10 H :    0.175509
  11 H :    0.158441
  12 O :   -0.353812
  13 H :    0.154216
  14 H :    0.145859
  15 O :   -0.379161
  16 H :    0.144660
  17 H :    0.152258

-------------------------------
LOEWDIN REDUCED ORBITAL CHARGES
-------------------------------
  0 O s       :     3.469127  s :     3.469127
      pz      :     1.681195  p :     4.810333
      px      :     1.354290
      py      :     1.774848
      dz2     :     0.005416  d :     0.032541
      dxz     :     0.006936
      dyz     :     0.005908
      dx2y2   :     0.003849
      dxy     :     0.010431
      f0      :     0.000090  f :     0.002115
      f+1     :     0.000451
      f-1     :     0.000274
      f+2     :     0.000036
      f-2     :     0.000613
      f+3     :     0.000093
      f-3     :     0.000558
  1 H s       :     0.676171  s :     0.676171
      pz      :     0.066405  p :     0.163375
      px      :     0.044076
      py      :     0.052894
  2 H s       :     0.665360  s :     0.665360
      pz      :     0.033388  p :     0.148128
      px      :     0.071191
      py      :     0.043549
  3 O s       :     3.461581  s :     3.461581
      pz      :     1.687014  p :     4.803177
      px      :     1.748545
      py      :     1.367619
      dz2     :     0.005327  d :     0.031120
      dxz     :     0.005289
      dyz     :     0.006583
      dx2y2   :     0.004123
      dxy     :     0.009797
      f0      :     0.000088  f :     0.002049
      f+1     :     0.000270
      f-1     :     0.000444
      f+2     :     0.000033
      f-2     :     0.000595
      f+3     :     0.000531
      f-3     :     0.000089
  4 H s       :     0.666820  s :     0.666820
      pz      :     0.066702  p :     0.164203
      px      :     0.052832
      py      :     0.044670
  5 H s       :     0.654479  s :     0.654479
      pz      :     0.033140  p :     0.149411
      px      :     0.043462
      py      :     0.072810
  6 O s       :     3.447150  s :     3.447150
      pz      :     1.549808  p :     4.822689
      px      :     1.544275
      py      :     1.728605
      dz2     :     0.014454  d :     0.030056
      dxz     :     0.001666
      dyz     :     0.001725
      dx2y2   :     0.003536
      dxy     :     0.008675
      f0      :     0.000398  f :     0.002027
      f+1     :     0.000542
      f-1     :     0.000323
      f+2     :     0.000020
      f-2     :     0.000047
      f+3     :     0.000026
      f-3     :     0.000671
  7 H s       :     0.661731  s :     0.661731
      pz      :     0.096031  p :     0.173767
      px      :     0.036521
      py      :     0.041214
  8 H s       :     0.677281  s :     0.677281
      pz      :     0.031669  p :     0.173324
      px      :     0.083811
      py      :     0.057844
  9 O s       :     3.463843  s :     3.463843
      pz      :     1.574724  p :     4.812487
      px      :     1.785064
      py      :     1.452699
      dz2     :     0.014314  d :     0.031583
      dxz     :     0.001372
      dyz     :     0.003769
      dx2y2   :     0.005433
      dxy     :     0.006696
      f0      :     0.000328  f :     0.002042
      f+1     :     0.000207
      f-1     :     0.000719
      f+2     :     0.000038
      f-2     :     0.000042
      f+3     :     0.000633
      f-3     :     0.000074
 10 H s       :     0.670448  s :     0.670448
      pz      :     0.030431  p :     0.154042
      px      :     0.049283
      py      :     0.074329
 11 H s       :     0.669135  s :     0.669135
      pz      :     0.093707  p :     0.172424
      px      :     0.042819
      py      :     0.035898
 12 O s       :     3.456362  s :     3.456362
      pz      :     1.550046  p :     4.867020
      px      :     1.477629
      py      :     1.839345
      dz2     :     0.013206  d :     0.028483
      dxz     :     0.003701
      dyz     :     0.001551
      dx2y2   :     0.003760
      dxy     :     0.006266
      f0      :     0.000363  f :     0.001948
      f+1     :     0.000687
      f-1     :     0.000184
      f+2     :     0.000042
      f-2     :     0.000042
      f+3     :     0.000067
      f-3     :     0.000564
 13 H s       :     0.673501  s :     0.673501
      pz      :     0.092343  p :     0.172283
      px      :     0.036886
      py      :     0.043053
 14 H s       :     0.668973  s :     0.668973
      pz      :     0.030575  p :     0.185169
      px      :     0.101904
      py      :     0.052689
 15 O s       :     3.468095  s :     3.468095
      pz      :     1.703924  p :     4.879508
      px      :     1.780098
      py      :     1.395486
      dz2     :     0.004291  d :     0.029552
      dxz     :     0.005821
      dyz     :     0.007407
      dx2y2   :     0.003283
      dxy     :     0.008751
      f0      :     0.000074  f :     0.002006
      f+1     :     0.000266
      f-1     :     0.000439
      f+2     :     0.000034
      f-2     :     0.000639
      f+3     :     0.000470
      f-3     :     0.000084
 16 H s       :     0.690993  s :     0.690993
      pz      :     0.065554  p :     0.164347
      px      :     0.053198
      py      :     0.045595
 17 H s       :     0.651575  s :     0.651575
      pz      :     0.033406  p :     0.196167
      px      :     0.047648
      py      :     0.115114


                      *****************************
                      * MAYER POPULATION ANALYSIS *
                      *****************************

  NA   - Mulliken gross atomic population
  ZA   - Total nuclear charge
  QA   - Mulliken gross atomic charge
  VA   - Mayer's total valence
  BVA  - Mayer's bonded valence
  FA   - Mayer's free valence

  ATOM       NA         ZA         QA         VA         BVA        FA
  0 O      8.7134     8.0000    -0.7134     1.7696     1.7696     0.0000
  1 H      0.6446     1.0000     0.3554     0.8885     0.8885     0.0000
  2 H      0.6332     1.0000     0.3668     0.8792     0.8792     0.0000
  3 O      8.7505     8.0000    -0.7505     1.7479     1.7479    -0.0000
  4 H      0.6233     1.0000     0.3767     0.8738     0.8738     0.0000
  5 H      0.6110     1.0000     0.3890     0.8653     0.8653    -0.0000
  6 O      8.7577     8.0000    -0.7577     1.7269     1.7269    -0.0000
  7 H      0.5924     1.0000     0.4076     0.8651     0.8651    -0.0000
  8 H      0.6303     1.0000     0.3697     0.8904     0.8904     0.0000
  9 O      8.7321     8.0000    -0.7321     1.7511     1.7511    -0.0000
 10 H      0.6416     1.0000     0.3584     0.8860     0.8860    -0.0000
 11 H      0.6044     1.0000     0.3956     0.8703     0.8703    -0.0000
 12 O      8.7747     8.0000    -0.7747     1.6879     1.6879     0.0000
 13 H      0.6164     1.0000     0.3836     0.8827     0.8827     0.0000
 14 H      0.6334     1.0000     0.3666     0.9021     0.9021     0.0000
 15 O      8.7677     8.0000    -0.7677     1.6846     1.6846    -0.0000
 16 H      0.6730     1.0000     0.3270     0.9087     0.9087    -0.0000
 17 H      0.6002     1.0000     0.3998     0.8801     0.8801    -0.0000

  Mayer bond orders larger than 0.100000
B(  0-O ,  1-H ) :   0.8810 B(  0-O ,  2-H ) :   0.8703 B(  3-O ,  4-H ) :   0.8651 
B(  3-O ,  5-H ) :   0.8497 B(  6-O ,  7-H ) :   0.8230 B(  6-O ,  8-H ) :   0.8622 
B(  9-O , 10-H ) :   0.8782 B(  9-O , 11-H ) :   0.8393 B( 12-O , 13-H ) :   0.8515 
B( 12-O , 14-H ) :   0.8339 B( 15-O , 16-H ) :   0.9027 B( 15-O , 17-H ) :   0.8011 


-------
TIMINGS
-------

Total SCF time: 0 days 0 hours 0 min 12 sec 

Total time                  ....      12.880 sec
Sum of individual times     ....      12.616 sec  ( 98.0%)

Fock matrix formation       ....      12.233 sec  ( 95.0%)
Diagonalization             ....       0.074 sec  (  0.6%)
Density matrix formation    ....       0.011 sec  (  0.1%)
Population analysis         ....       0.024 sec  (  0.2%)
Initial guess               ....       0.150 sec  (  1.2%)
Orbital Transformation      ....       0.000 sec  (  0.0%)
Orbital Orthonormalization  ....       0.000 sec  (  0.0%)
DIIS solution               ....       0.028 sec  (  0.2%)
SOSCF solution              ....       0.038 sec  (  0.3%)


           ************************************************************
           *        Program running with 6 parallel MPI-processes     *
           *              working on a common directory               *
           ************************************************************

------------------------------------------------------------------------------
                                ORCA  MP2 
------------------------------------------------------------------------------

Freezing NCore=12 chemical core electrons
MP2 will be done in the AO integral direct mode
The Q1-step will be done using symmetric double matrices
Dimension of the basis                    ...  258
Memory devoted for MP2                    ... 8000 MB   
Memory needed for all in one shot         ...  264 MB
Number of MOs that can be treated together...  120      
MP2 density construction                  ... relaxed
The MP2 gradient is requested => amplitudes will be stored on disk
Total number of MOs              ...   24
Number of MOs treated per batch  ...    4 
Number of batches necessary      ...    1 
OPERATORS   0/  0 PASS   0
-----------------------------------------------
 MP2 CORRELATION ENERGY   :     -1.551430221 Eh
-----------------------------------------------


---------------------
MP2 DENSITY FORMATION
---------------------

Completing the external part of the density      ... done
Storing the unrelaxed density                    ... done

Calculating G(D)                                 ... done
Completing the Lagrangian                        ... done
Solving the Z-vector equations                   ... 

------------------------------------------------------------------------------
                           ORCA CP-SCF CALCULATION
------------------------------------------------------------------------------

Input orbitals are from        ... 12h2o.su.etal.mol1,2,3,5,7,10-orca.engrad-mp2.def2tzvp.frozencore.gbw
Input Perturbation             ... 12h2o.su.etal.mol1,2,3,5,7,10-orca.engrad-mp2.def2tzvp.frozencore.pin.tmp
Wavefunction output            ... 12h2o.su.etal.mol1,2,3,5,7,10-orca.engrad-mp2.def2tzvp.frozencore.pout.tmp
Perturbation mode              ... Real perturbation (singlet)
Solver                         ... POPLE
Max. number of iterations      ... 128
Convergence tolerance          ... 1.000e-08
Integral handling              ... Direct
Number of perturbations        ... 1
Number of operators            ... 1
Orbital ranges used for CP-SCF:
 Operator 0:  Orbitals   0... 29  to  30...257
Variables per vector in CP-SCF ... 6840
Number of vectors sought       ... 1
     CP-SCF ITERATION   0: 
     CP-SCF ITERATION   1:      0.000747136880
     CP-SCF ITERATION   2:      0.000019107084
     CP-SCF ITERATION   3:      0.000001040302
     CP-SCF ITERATION   4:      0.000000081893
     CP-SCF ITERATION   5:      0.000000006379
                                                 ... done
Finalizing the relaxed density                   ... done
Transforming P to the AO basis                   ... done
Storing the relaxed density                      ... done

------------------------------------
ENERGY WEIGHTED DENSITY FINALIZATION
------------------------------------

Gathering the parts of the W-matrix              ...                                                      done
Forming the Z-density                            ... done
Transforming Z to the AO basis                   ... done
Calculating G(Z)                                 ... done
Finalizing the W-matrix                          ...                                                      done
Transforming W to the AO basis and storing       ... done

                *********************************************
                * UNRELAXED MP2 DENSITY POPULATION ANALYSIS *
                *********************************************

------------------------------------------------------------------------------
                           ORCA POPULATION ANALYSIS
------------------------------------------------------------------------------
Input electron density              ... 12h2o.su.etal.mol1,2,3,5,7,10-orca.engrad-mp2.def2tzvp.frozencore.pmp2ur
BaseName (.gbw .S,...)              ... 12h2o.su.etal.mol1,2,3,5,7,10-orca.engrad-mp2.def2tzvp.frozencore

                    ********************************
                    * MULLIKEN POPULATION ANALYSIS *
                    ********************************

-----------------------
MULLIKEN ATOMIC CHARGES
-----------------------
   0 O :   -0.708227
   1 H :    0.353251
   2 H :    0.364112
   3 O :   -0.744706
   4 H :    0.374526
   5 H :    0.386010
   6 O :   -0.750681
   7 H :    0.404395
   8 H :    0.366460
   9 O :   -0.725618
  10 H :    0.355790
  11 H :    0.392580
  12 O :   -0.768419
  13 H :    0.380711
  14 H :    0.362162
  15 O :   -0.762217
  16 H :    0.324713
  17 H :    0.395158
Sum of atomic charges:    0.0000000

--------------------------------
MULLIKEN REDUCED ORBITAL CHARGES
--------------------------------
  0 O s       :     3.806458  s :     3.806458
      pz      :     1.704499  p :     4.846021
      px      :     1.350356
      py      :     1.791165
      dz2     :     0.009596  d :     0.051679
      dxz     :     0.009766
      dyz     :     0.011234
      dx2y2   :     0.007835
      dxy     :     0.013248
      f0      :     0.000454  f :     0.004069
      f+1     :     0.000691
      f-1     :     0.000552
      f+2     :     0.000437
      f-2     :     0.000714
      f+3     :     0.000468
      f-3     :     0.000754
  1 H s       :     0.599574  s :     0.599574
      pz      :     0.017518  p :     0.047175
      px      :     0.013922
      py      :     0.015734
  2 H s       :     0.592679  s :     0.592679
      pz      :     0.011600  p :     0.043209
      px      :     0.017719
      py      :     0.013890
  3 O s       :     3.802986  s :     3.802986
      pz      :     1.721060  p :     4.886528
      px      :     1.785664
      py      :     1.379803
      dz2     :     0.009499  d :     0.051153
      dxz     :     0.010944
      dyz     :     0.009823
      dx2y2   :     0.008008
      dxy     :     0.012879
      f0      :     0.000457  f :     0.004040
      f+1     :     0.000546
      f-1     :     0.000696
      f+2     :     0.000432
      f-2     :     0.000712
      f+3     :     0.000733
      f-3     :     0.000465
  4 H s       :     0.579099  s :     0.579099
      pz      :     0.017436  p :     0.046375
      px      :     0.015284
      py      :     0.013655
  5 H s       :     0.572123  s :     0.572123
      pz      :     0.011145  p :     0.041867
      px      :     0.012640
      py      :     0.018083
  6 O s       :     3.786956  s :     3.786956
      pz      :     1.573401  p :     4.908079
      px      :     1.562423
      py      :     1.772255
      dz2     :     0.016753  d :     0.051679
      dxz     :     0.006663
      dyz     :     0.007940
      dx2y2   :     0.008114
      dxy     :     0.012211
      f0      :     0.000611  f :     0.003965
      f+1     :     0.000749
      f-1     :     0.000530
      f+2     :     0.000416
      f-2     :     0.000424
      f+3     :     0.000427
      f-3     :     0.000809
  7 H s       :     0.546407  s :     0.546407
      pz      :     0.025291  p :     0.049197
      px      :     0.011493
      py      :     0.012414
  8 H s       :     0.582185  s :     0.582185
      pz      :     0.011087  p :     0.051355
      px      :     0.023616
      py      :     0.016651
  9 O s       :     3.797271  s :     3.797271
      pz      :     1.588124  p :     4.871998
      px      :     1.832582
      py      :     1.451292
      dz2     :     0.016616  d :     0.052370
      dxz     :     0.007935
      dyz     :     0.008200
      dx2y2   :     0.009089
      dxy     :     0.010530
      f0      :     0.000540  f :     0.003978
      f+1     :     0.000491
      f-1     :     0.000823
      f+2     :     0.000433
      f-2     :     0.000406
      f+3     :     0.000807
      f-3     :     0.000477
 10 H s       :     0.599859  s :     0.599859
      pz      :     0.010842  p :     0.044351
      px      :     0.014885
      py      :     0.018624
 11 H s       :     0.557554  s :     0.557554
      pz      :     0.024819  p :     0.049867
      px      :     0.013511
      py      :     0.011537
 12 O s       :     3.799145  s :     3.799145
      pz      :     1.570230  p :     4.915367
      px      :     1.476772
      py      :     1.868366
      dz2     :     0.015029  d :     0.049905
      dxz     :     0.007899
      dyz     :     0.007988
      dx2y2   :     0.008374
      dxy     :     0.010615
      f0      :     0.000574  f :     0.004001
      f+1     :     0.000793
      f-1     :     0.000494
      f+2     :     0.000443
      f-2     :     0.000404
      f+3     :     0.000485
      f-3     :     0.000807
 13 H s       :     0.568366  s :     0.568366
      pz      :     0.024336  p :     0.050923
      px      :     0.012321
      py      :     0.014266
 14 H s       :     0.582126  s :     0.582126
      pz      :     0.010330  p :     0.055712
      px      :     0.028489
      py      :     0.016892
 15 O s       :     3.803019  s :     3.803019
      pz      :     1.707207  p :     4.904441
      px      :     1.789792
      py      :     1.407442
      dz2     :     0.009606  d :     0.050728
      dxz     :     0.010860
      dyz     :     0.010220
      dx2y2   :     0.007791
      dxy     :     0.012250
      f0      :     0.000456  f :     0.004030
      f+1     :     0.000546
      f-1     :     0.000692
      f+2     :     0.000437
      f-2     :     0.000724
      f+3     :     0.000713
      f-3     :     0.000461
 16 H s       :     0.627402  s :     0.627402
      pz      :     0.017722  p :     0.047885
      px      :     0.015870
      py      :     0.014294
 17 H s       :     0.546197  s :     0.546197
      pz      :     0.011458  p :     0.058645
      px      :     0.014564
      py      :     0.032623


                     *******************************
                     * LOEWDIN POPULATION ANALYSIS *
                     *******************************

----------------------
LOEWDIN ATOMIC CHARGES
----------------------
   0 O :   -0.310547
   1 H :    0.159283
   2 H :    0.184771
   3 O :   -0.293506
   4 H :    0.167833
   5 H :    0.194306
   6 O :   -0.297785
   7 H :    0.162511
   8 H :    0.147185
   9 O :   -0.305656
  10 H :    0.173868
  11 H :    0.156456
  12 O :   -0.350384
  13 H :    0.152241
  14 H :    0.143259
  15 O :   -0.376840
  16 H :    0.143325
  17 H :    0.149681

-------------------------------
LOEWDIN REDUCED ORBITAL CHARGES
-------------------------------
  0 O s       :     3.465346  s :     3.465346
      pz      :     1.669874  p :     4.779942
      px      :     1.346240
      py      :     1.763828
      dz2     :     0.011024  d :     0.060399
      dxz     :     0.012497
      dyz     :     0.011576
      dx2y2   :     0.009312
      dxy     :     0.015990
      f0      :     0.000472  f :     0.004861
      f+1     :     0.000859
      f-1     :     0.000658
      f+2     :     0.000409
      f-2     :     0.001020
      f+3     :     0.000474
      f-3     :     0.000968
  1 H s       :     0.674282  s :     0.674282
      pz      :     0.067634  p :     0.166435
      px      :     0.044907
      py      :     0.053894
  2 H s       :     0.664006  s :     0.664006
      pz      :     0.034232  p :     0.151223
      px      :     0.072452
      py      :     0.044539
  3 O s       :     3.457813  s :     3.457813
      pz      :     1.675505  p :     4.771376
      px      :     1.736484
      py      :     1.359388
      dz2     :     0.011023  d :     0.059504
      dxz     :     0.011081
      dyz     :     0.012199
      dx2y2   :     0.009716
      dxy     :     0.015485
      f0      :     0.000472  f :     0.004812
      f+1     :     0.000657
      f-1     :     0.000854
      f+2     :     0.000409
      f-2     :     0.001003
      f+3     :     0.000944
      f-3     :     0.000474
  4 H s       :     0.665073  s :     0.665073
      pz      :     0.067843  p :     0.167094
      px      :     0.053791
      py      :     0.045460
  5 H s       :     0.653377  s :     0.653377
      pz      :     0.033955  p :     0.152317
      px      :     0.044429
      py      :     0.073932
  6 O s       :     3.443434  s :     3.443434
      pz      :     1.540108  p :     4.790728
      px      :     1.534543
      py      :     1.716077
      dz2     :     0.020417  d :     0.058785
      dxz     :     0.007144
      dyz     :     0.007314
      dx2y2   :     0.009233
      dxy     :     0.014678
      f0      :     0.000824  f :     0.004838
      f+1     :     0.000969
      f-1     :     0.000726
      f+2     :     0.000390
      f-2     :     0.000424
      f+3     :     0.000408
      f-3     :     0.001096
  7 H s       :     0.661058  s :     0.661058
      pz      :     0.097199  p :     0.176431
      px      :     0.037249
      py      :     0.041983
  8 H s       :     0.676434  s :     0.676434
      pz      :     0.032471  p :     0.176381
      px      :     0.085080
      py      :     0.058830
  9 O s       :     3.460035  s :     3.460035
      pz      :     1.564771  p :     4.780899
      px      :     1.772398
      py      :     1.443730
      dz2     :     0.020160  d :     0.059898
      dxz     :     0.006934
      dyz     :     0.009170
      dx2y2   :     0.011165
      dxy     :     0.012469
      f0      :     0.000745  f :     0.004823
      f+1     :     0.000599
      f-1     :     0.001156
      f+2     :     0.000411
      f-2     :     0.000414
      f+3     :     0.001045
      f-3     :     0.000453
 10 H s       :     0.668906  s :     0.668906
      pz      :     0.031254  p :     0.157226
      px      :     0.050242
      py      :     0.075730
 11 H s       :     0.668319  s :     0.668319
      pz      :     0.094996  p :     0.175225
      px      :     0.043598
      py      :     0.036630
 12 O s       :     3.452692  s :     3.452692
      pz      :     1.539498  p :     4.835667
      px      :     1.468332
      py      :     1.827837
      dz2     :     0.019268  d :     0.057290
      dxz     :     0.009260
      dyz     :     0.007159
      dx2y2   :     0.009524
      dxy     :     0.012079
      f0      :     0.000782  f :     0.004736
      f+1     :     0.001129
      f-1     :     0.000575
      f+2     :     0.000415
      f-2     :     0.000416
      f+3     :     0.000444
      f-3     :     0.000975
 13 H s       :     0.672587  s :     0.672587
      pz      :     0.093658  p :     0.175172
      px      :     0.037676
      py      :     0.043838
 14 H s       :     0.668666  s :     0.668666
      pz      :     0.031436  p :     0.188075
      px      :     0.103044
      py      :     0.053596
 15 O s       :     3.464469  s :     3.464469
      pz      :     1.693546  p :     4.849919
      px      :     1.769174
      py      :     1.387199
      dz2     :     0.009843  d :     0.057683
      dxz     :     0.011477
      dyz     :     0.012999
      dx2y2   :     0.008894
      dxy     :     0.014470
      f0      :     0.000452  f :     0.004768
      f+1     :     0.000648
      f-1     :     0.000851
      f+2     :     0.000410
      f-2     :     0.001047
      f+3     :     0.000888
      f-3     :     0.000472
 16 H s       :     0.688939  s :     0.688939
      pz      :     0.066906  p :     0.167736
      px      :     0.054232
      py      :     0.046598
 17 H s       :     0.651748  s :     0.651748
      pz      :     0.034241  p :     0.198572
      px      :     0.048500
      py      :     0.115831


                      *****************************
                      * MAYER POPULATION ANALYSIS *
                      *****************************

  NA   - Mulliken gross atomic population
  ZA   - Total nuclear charge
  QA   - Mulliken gross atomic charge
  VA   - Mayer's total valence
  BVA  - Mayer's bonded valence
  FA   - Mayer's free valence

  ATOM       NA         ZA         QA         VA         BVA        FA
  0 O      8.7082     8.0000    -0.7082     2.0771     1.6881     0.3890
  1 H      0.6467     1.0000     0.3533     0.8942     0.8483     0.0459
  2 H      0.6359     1.0000     0.3641     0.8852     0.8374     0.0478
  3 O      8.7447     8.0000    -0.7447     2.0613     1.6689     0.3924
  4 H      0.6255     1.0000     0.3745     0.8792     0.8349     0.0443
  5 H      0.6140     1.0000     0.3860     0.8714     0.8248     0.0466
  6 O      8.7507     8.0000    -0.7507     2.0398     1.6495     0.3903
  7 H      0.5956     1.0000     0.4044     0.8711     0.8281     0.0430
  8 H      0.6335     1.0000     0.3665     0.8969     0.8506     0.0463
  9 O      8.7256     8.0000    -0.7256     2.0616     1.6712     0.3904
 10 H      0.6442     1.0000     0.3558     0.8921     0.8442     0.0479
 11 H      0.6074     1.0000     0.3926     0.8763     0.8327     0.0437
 12 O      8.7684     8.0000    -0.7684     2.0046     1.6100     0.3946
 13 H      0.6193     1.0000     0.3807     0.8887     0.8441     0.0445
 14 H      0.6378     1.0000     0.3622     0.9099     0.8616     0.0484
 15 O      8.7622     8.0000    -0.7622     1.9991     1.6066     0.3926
 16 H      0.6753     1.0000     0.3247     0.9149     0.8663     0.0485
 17 H      0.6048     1.0000     0.3952     0.8878     0.8422     0.0456

  Mayer bond orders larger than 0.100000
B(  0-O ,  1-H ) :   0.8413 B(  0-O ,  2-H ) :   0.8290 B(  3-O ,  4-H ) :   0.8268 
B(  3-O ,  5-H ) :   0.8100 B(  6-O ,  7-H ) :   0.7875 B(  6-O ,  8-H ) :   0.8232 
B(  9-O , 10-H ) :   0.8369 B(  9-O , 11-H ) :   0.8025 B( 12-O , 13-H ) :   0.8138 
B( 12-O , 14-H ) :   0.7952 B( 15-O , 16-H ) :   0.8609 B( 15-O , 17-H ) :   0.7653 



                *******************************************
                * RELAXED MP2 DENSITY POPULATION ANALYSIS *
                *******************************************

------------------------------------------------------------------------------
                           ORCA POPULATION ANALYSIS
------------------------------------------------------------------------------
Input electron density              ... 12h2o.su.etal.mol1,2,3,5,7,10-orca.engrad-mp2.def2tzvp.frozencore.pmp2re
BaseName (.gbw .S,...)              ... 12h2o.su.etal.mol1,2,3,5,7,10-orca.engrad-mp2.def2tzvp.frozencore

                    ********************************
                    * MULLIKEN POPULATION ANALYSIS *
                    ********************************

-----------------------
MULLIKEN ATOMIC CHARGES
-----------------------
   0 O :   -0.691310
   1 H :    0.346731
   2 H :    0.356991
   3 O :   -0.722215
   4 H :    0.367692
   5 H :    0.378200
   6 O :   -0.718253
   7 H :    0.388990
   8 H :    0.351457
   9 O :   -0.698247
  10 H :    0.349709
  11 H :    0.378065
  12 O :   -0.739951
  13 H :    0.365583
  14 H :    0.340400
  15 O :   -0.743183
  16 H :    0.318855
  17 H :    0.370486
Sum of atomic charges:   -0.0000000

--------------------------------
MULLIKEN REDUCED ORBITAL CHARGES
--------------------------------
  0 O s       :     3.810892  s :     3.810892
      pz      :     1.694735  p :     4.827010
      px      :     1.346444
      py      :     1.785830
      dz2     :     0.009350  d :     0.049412
      dxz     :     0.009168
      dyz     :     0.010947
      dx2y2   :     0.007592
      dxy     :     0.012354
      f0      :     0.000452  f :     0.003997
      f+1     :     0.000671
      f-1     :     0.000544
      f+2     :     0.000437
      f-2     :     0.000693
      f+3     :     0.000466
      f-3     :     0.000734
  1 H s       :     0.605382  s :     0.605382
      pz      :     0.017663  p :     0.047887
      px      :     0.013849
      py      :     0.016375
  2 H s       :     0.599200  s :     0.599200
      pz      :     0.012462  p :     0.043809
      px      :     0.016732
      py      :     0.014615
  3 O s       :     3.806364  s :     3.806364
      pz      :     1.711645  p :     4.862864
      px      :     1.774520
      py      :     1.376699
      dz2     :     0.009272  d :     0.049020
      dxz     :     0.010688
      dyz     :     0.009238
      dx2y2   :     0.007770
      dxy     :     0.012053
      f0      :     0.000455  f :     0.003967
      f+1     :     0.000537
      f-1     :     0.000677
      f+2     :     0.000431
      f-2     :     0.000691
      f+3     :     0.000712
      f-3     :     0.000463
  4 H s       :     0.585271  s :     0.585271
      pz      :     0.017534  p :     0.047037
      px      :     0.015925
      py      :     0.013578
  5 H s       :     0.579438  s :     0.579438
      pz      :     0.011933  p :     0.042362
      px      :     0.013319
      py      :     0.017110
  6 O s       :     3.783632  s :     3.783632
      pz      :     1.569867  p :     4.880793
      px      :     1.557626
      py      :     1.753300
      dz2     :     0.015643  d :     0.049933
      dxz     :     0.006646
      dyz     :     0.007925
      dx2y2   :     0.008104
      dxy     :     0.011615
      f0      :     0.000595  f :     0.003895
      f+1     :     0.000728
      f-1     :     0.000521
      f+2     :     0.000416
      f-2     :     0.000423
      f+3     :     0.000427
      f-3     :     0.000786
  7 H s       :     0.561455  s :     0.561455
      pz      :     0.024491  p :     0.049555
      px      :     0.011900
      py      :     0.013164
  8 H s       :     0.596582  s :     0.596582
      pz      :     0.011799  p :     0.051960
      px      :     0.023053
      py      :     0.017109
  9 O s       :     3.798122  s :     3.798122
      pz      :     1.584069  p :     4.845843
      px      :     1.817001
      py      :     1.444773
      dz2     :     0.015560  d :     0.050377
      dxz     :     0.007993
      dyz     :     0.007970
      dx2y2   :     0.008805
      dxy     :     0.010049
      f0      :     0.000527  f :     0.003905
      f+1     :     0.000485
      f-1     :     0.000795
      f+2     :     0.000433
      f-2     :     0.000405
      f+3     :     0.000785
      f-3     :     0.000475
 10 H s       :     0.605238  s :     0.605238
      pz      :     0.011612  p :     0.045053
      px      :     0.015669
      py      :     0.017773
 11 H s       :     0.571514  s :     0.571514
      pz      :     0.024155  p :     0.050421
      px      :     0.014404
      py      :     0.011862
 12 O s       :     3.797739  s :     3.797739
      pz      :     1.560814  p :     4.890276
      px      :     1.467588
      py      :     1.861873
      dz2     :     0.014041  d :     0.048002
      dxz     :     0.007632
      dyz     :     0.007995
      dx2y2   :     0.008174
      dxy     :     0.010161
      f0      :     0.000564  f :     0.003934
      f+1     :     0.000764
      f-1     :     0.000488
      f+2     :     0.000443
      f-2     :     0.000403
      f+3     :     0.000484
      f-3     :     0.000788
 13 H s       :     0.582912  s :     0.582912
      pz      :     0.023626  p :     0.051505
      px      :     0.012716
      py      :     0.015163
 14 H s       :     0.603362  s :     0.603362
      pz      :     0.011094  p :     0.056237
      px      :     0.027602
      py      :     0.017541
 15 O s       :     3.803295  s :     3.803295
      pz      :     1.702322  p :     4.887080
      px      :     1.783910
      py      :     1.400848
      dz2     :     0.009407  d :     0.048843
      dxz     :     0.010555
      dyz     :     0.009643
      dx2y2   :     0.007662
      dxy     :     0.011575
      f0      :     0.000454  f :     0.003965
      f+1     :     0.000538
      f-1     :     0.000676
      f+2     :     0.000437
      f-2     :     0.000705
      f+3     :     0.000696
      f-3     :     0.000459
 16 H s       :     0.632451  s :     0.632451
      pz      :     0.017909  p :     0.048695
      px      :     0.016480
      py      :     0.014306
 17 H s       :     0.570745  s :     0.570745
      pz      :     0.012214  p :     0.058769
      px      :     0.015068
      py      :     0.031487


                     *******************************
                     * LOEWDIN POPULATION ANALYSIS *
                     *******************************

----------------------
LOEWDIN ATOMIC CHARGES
----------------------
   0 O :   -0.309588
   1 H :    0.160997
   2 H :    0.185937
   3 O :   -0.287739
   4 H :    0.169560
   5 H :    0.194998
   6 O :   -0.290276
   7 H :    0.158311
   8 H :    0.143316
   9 O :   -0.299729
  10 H :    0.175519
  11 H :    0.152446
  12 O :   -0.347194
  13 H :    0.148602
  14 H :    0.137076
  15 O :   -0.379204
  16 H :    0.145198
  17 H :    0.141770

-------------------------------
LOEWDIN REDUCED ORBITAL CHARGES
-------------------------------
  0 O s       :     3.467370  s :     3.467370
      pz      :     1.664795  p :     4.778173
      px      :     1.351160
      py      :     1.762218
      dz2     :     0.010938  d :     0.059164
      dxz     :     0.012112
      dyz     :     0.011540
      dx2y2   :     0.009087
      dxy     :     0.015488
      f0      :     0.000476  f :     0.004880
      f+1     :     0.000866
      f-1     :     0.000658
      f+2     :     0.000410
      f-2     :     0.001019
      f+3     :     0.000477
      f-3     :     0.000974
  1 H s       :     0.672613  s :     0.672613
      pz      :     0.067731  p :     0.166390
      px      :     0.044100
      py      :     0.054559
  2 H s       :     0.662805  s :     0.662805
      pz      :     0.034951  p :     0.151259
      px      :     0.071009
      py      :     0.045299
  3 O s       :     3.459441  s :     3.459441
      pz      :     1.670470  p :     4.764992
      px      :     1.729982
      py      :     1.364539
      dz2     :     0.010971  d :     0.058476
      dxz     :     0.011071
      dyz     :     0.011843
      dx2y2   :     0.009529
      dxy     :     0.015062
      f0      :     0.000475  f :     0.004831
      f+1     :     0.000657
      f-1     :     0.000860
      f+2     :     0.000409
      f-2     :     0.001004
      f+3     :     0.000949
      f-3     :     0.000476
  4 H s       :     0.663661  s :     0.663661
      pz      :     0.067775  p :     0.166780
      px      :     0.054308
      py      :     0.044697
  5 H s       :     0.652868  s :     0.652868
      pz      :     0.034592  p :     0.152134
      px      :     0.045088
      py      :     0.072454
  6 O s       :     3.443763  s :     3.443763
      pz      :     1.541842  p :     4.783446
      px      :     1.535691
      py      :     1.705914
      dz2     :     0.019998  d :     0.058203
      dxz     :     0.007049
      dyz     :     0.007354
      dx2y2   :     0.009325
      dxy     :     0.014476
      f0      :     0.000828  f :     0.004864
      f+1     :     0.000976
      f-1     :     0.000728
      f+2     :     0.000391
      f-2     :     0.000424
      f+3     :     0.000409
      f-3     :     0.001107
  7 H s       :     0.665119  s :     0.665119
      pz      :     0.096422  p :     0.176570
      px      :     0.037625
      py      :     0.042523
  8 H s       :     0.679592  s :     0.679592
      pz      :     0.033068  p :     0.177092
      px      :     0.084710
      py      :     0.059314
  9 O s       :     3.461186  s :     3.461186
      pz      :     1.565806  p :     4.774727
      px      :     1.762263
      py      :     1.446658
      dz2     :     0.019702  d :     0.058975
      dxz     :     0.007009
      dyz     :     0.008972
      dx2y2   :     0.011043
      dxy     :     0.012249
      f0      :     0.000746  f :     0.004842
      f+1     :     0.000600
      f-1     :     0.001163
      f+2     :     0.000413
      f-2     :     0.000413
      f+3     :     0.001051
      f-3     :     0.000456
 10 H s       :     0.667115  s :     0.667115
      pz      :     0.031828  p :     0.157365
      px      :     0.050857
      py      :     0.074680
 11 H s       :     0.672046  s :     0.672046
      pz      :     0.094450  p :     0.175508
      px      :     0.044391
      py      :     0.036667
 12 O s       :     3.453284  s :     3.453284
      pz      :     1.537169  p :     4.832477
      px      :     1.470035
      py      :     1.825274
      dz2     :     0.018969  d :     0.056661
      dxz     :     0.009071
      dyz     :     0.007212
      dx2y2   :     0.009473
      dxy     :     0.011935
      f0      :     0.000787  f :     0.004772
      f+1     :     0.001141
      f-1     :     0.000576
      f+2     :     0.000417
      f-2     :     0.000415
      f+3     :     0.000447
      f-3     :     0.000989
 13 H s       :     0.675819  s :     0.675819
      pz      :     0.093026  p :     0.175578
      px      :     0.037807
      py      :     0.044746
 14 H s       :     0.673989  s :     0.673989
      pz      :     0.031911  p :     0.188935
      px      :     0.102664
      py      :     0.054360
 15 O s       :     3.466113  s :     3.466113
      pz      :     1.693148  p :     4.851381
      px      :     1.767526
      py      :     1.390706
      dz2     :     0.009802  d :     0.056903
      dxz     :     0.011382
      dyz     :     0.012616
      dx2y2   :     0.008882
      dxy     :     0.014221
      f0      :     0.000455  f :     0.004807
      f+1     :     0.000648
      f-1     :     0.000863
      f+2     :     0.000411
      f-2     :     0.001048
      f+3     :     0.000905
      f-3     :     0.000476
 16 H s       :     0.686701  s :     0.686701
      pz      :     0.067097  p :     0.168102
      px      :     0.054766
      py      :     0.046239
 17 H s       :     0.659552  s :     0.659552
      pz      :     0.034948  p :     0.198678
      px      :     0.049020
      py      :     0.114710


                      *****************************
                      * MAYER POPULATION ANALYSIS *
                      *****************************

  NA   - Mulliken gross atomic population
  ZA   - Total nuclear charge
  QA   - Mulliken gross atomic charge
  VA   - Mayer's total valence
  BVA  - Mayer's bonded valence
  FA   - Mayer's free valence

  ATOM       NA         ZA         QA         VA         BVA        FA
  0 O      8.6913     8.0000    -0.6913     2.0973     1.7139     0.3834
  1 H      0.6533     1.0000     0.3467     0.8990     0.8531     0.0459
  2 H      0.6430     1.0000     0.3570     0.8917     0.8438     0.0478
  3 O      8.7222     8.0000    -0.7222     2.0997     1.7135     0.3861
  4 H      0.6323     1.0000     0.3677     0.8845     0.8402     0.0443
  5 H      0.6218     1.0000     0.3782     0.8801     0.8338     0.0463
  6 O      8.7183     8.0000    -0.7183     2.0824     1.6981     0.3843
  7 H      0.6110     1.0000     0.3890     0.8921     0.8496     0.0426
  8 H      0.6485     1.0000     0.3515     0.9177     0.8718     0.0459
  9 O      8.6982     8.0000    -0.6982     2.0988     1.7146     0.3842
 10 H      0.6503     1.0000     0.3497     0.8974     0.8494     0.0479
 11 H      0.6219     1.0000     0.3781     0.8965     0.8532     0.0433
 12 O      8.7400     8.0000    -0.7400     2.0305     1.6415     0.3890
 13 H      0.6344     1.0000     0.3656     0.9078     0.8636     0.0442
 14 H      0.6596     1.0000     0.3404     0.9377     0.8904     0.0473
 15 O      8.7432     8.0000    -0.7432     2.0060     1.6182     0.3878
 16 H      0.6811     1.0000     0.3189     0.9184     0.8697     0.0486
 17 H      0.6295     1.0000     0.3705     0.9186     0.8738     0.0448

  Mayer bond orders larger than 0.100000
B(  0-O ,  1-H ) :   0.8449 B(  0-O ,  2-H ) :   0.8329 B(  3-O ,  4-H ) :   0.8302 
B(  3-O ,  5-H ) :   0.8132 B(  6-O ,  7-H ) :   0.7915 B(  6-O ,  8-H ) :   0.8263 
B(  6-O , 17-H ) :   0.1039 B(  9-O , 10-H ) :   0.8399 B(  9-O , 11-H ) :   0.8071 
B( 12-O , 13-H ) :   0.8187 B( 12-O , 14-H ) :   0.7926 B( 15-O , 16-H ) :   0.8638 
B( 15-O , 17-H ) :   0.7677 


----------------------------------
MP2 DERIVATIVE INTEGRAL GENERATION
----------------------------------


Input Wavefunction Amplitudes       ... 12h2o.su.etal.mol1,2,3,5,7,10-orca.engrad-mp2.def2tzvp.frozencore.mp2tsaa.tmp
Input Correlated Electron Density   ... 12h2o.su.etal.mol1,2,3,5,7,10-orca.engrad-mp2.def2tzvp.frozencore.pmp2re
Input Energy Weighted Density       ... 12h2o.su.etal.mol1,2,3,5,7,10-orca.engrad-mp2.def2tzvp.frozencore.wmp2.tmp
Input SCF Electron Density          ... 12h2o.su.etal.mol1,2,3,5,7,10-orca.engrad-mp2.def2tzvp.frozencore.scfp

One-Electron Terms    ...
                        ... One-Electron Terms done
Prescreening matrices              ... done

Batch handling in the gradient evaluation:
Memory available                      ... 8000.0 MB
Memory per occupied orbital in Q2     ...   12.2 MB
Memory per occupied orbital in Q3     ...    0.1 MB
Total memory requirement per |i>      ...   12.3 MB
Max. Number of orbitals possible      ...    651
Number of orbitals treated per batch  ...     24
Number of batches to be done          ...      1
Batch   0: i=    6 ...    29

---------------------------------------
MP2 TOTAL ENERGY:     -457.924441275 Eh
---------------------------------------

The final MP2 gradient
  0:  -0.02516853   0.00966638  -0.00094819
  1:  -0.00172350   0.00187343  -0.00228255
  2:   0.02750440  -0.00982770   0.00080946
  3:  -0.01037658  -0.02473339  -0.00070723
  4:  -0.00218496  -0.00000154   0.00316037
  5:   0.00984253   0.02380543   0.00078881
  6:  -0.00350664   0.00795886   0.00334604
  7:   0.00044680  -0.00211299  -0.00474946
  8:   0.00735708  -0.00136763  -0.00100722
  9:  -0.01087972  -0.01463131   0.00067328
 10:   0.00688346   0.01634471  -0.00166457
 11:   0.00076777  -0.00195368  -0.00120298
 12:  -0.00356973   0.00854891   0.00107634
 13:  -0.00213610  -0.00429242   0.00457187
 14:   0.00972561  -0.00474848  -0.00210024
 15:  -0.00105779   0.00725467   0.00221010
 16:   0.00046713   0.00214787  -0.00075767
 17:  -0.00239121  -0.01393112  -0.00121614

-----------------------------------
NORM OF THE MP2 GRADIENT:  0.065855
-----------------------------------

-------------------------   --------------------
FINAL SINGLE POINT ENERGY      -457.924441274882
-------------------------   --------------------


                            ***************************************
                            *     ORCA property calculations      *
                            ***************************************

                                    ---------------------
                                    Active property flags
                                    ---------------------
   (+) Dipole Moment


------------------------------------------------------------------------------
                       ORCA ELECTRIC PROPERTIES CALCULATION
------------------------------------------------------------------------------

Dipole Moment Calculation                       ... on
Quadrupole Moment Calculation                   ... off
Polarizability Calculation                      ... off
GBWName                                         ... 12h2o.su.etal.mol1,2,3,5,7,10-orca.engrad-mp2.def2tzvp.frozencore.gbw
Electron density file                           ... 12h2o.su.etal.mol1,2,3,5,7,10-orca.engrad-mp2.def2tzvp.frozencore.scfp
The origin for moment calculation is the CENTER OF MASS  = (-1.350053, -1.376964 -1.782967)

-------------
DIPOLE MOMENT
-------------
                                X             Y             Z
Electronic contribution:     -0.00461      -0.27521       0.20836
Nuclear contribution   :      1.67229      -1.24435       0.05351
                        -----------------------------------------
Total Dipole Moment    :      1.66767      -1.51956       0.26187
                        -----------------------------------------
Magnitude (a.u.)       :      2.27130
Magnitude (Debye)      :      5.77317



--------------------
Rotational spectrum 
--------------------
 
Rotational constants in cm-1:     0.059164     0.029315     0.023028 
Rotational constants in MHz :  1773.692147   878.826901   690.350589 

 Dipole components along the rotational axes: 
x,y,z [a.u.] :     0.264535    -2.252859    -0.115878 
x,y,z [Debye]:     0.672395    -5.726313    -0.294538 

 

                         *** MP2 UNRELAXED DENSITY ***

------------------------------------------------------------------------------
                       ORCA ELECTRIC PROPERTIES CALCULATION
------------------------------------------------------------------------------

Dipole Moment Calculation                       ... on
Quadrupole Moment Calculation                   ... off
Polarizability Calculation                      ... off
GBWName                                         ... 12h2o.su.etal.mol1,2,3,5,7,10-orca.engrad-mp2.def2tzvp.frozencore.gbw
Electron density file                           ... 12h2o.su.etal.mol1,2,3,5,7,10-orca.engrad-mp2.def2tzvp.frozencore.pmp2ur
The origin for moment calculation is the CENTER OF MASS  = (-1.350053, -1.376964 -1.782967)

-------------
DIPOLE MOMENT
-------------
                                X             Y             Z
Electronic contribution:     -0.02027      -0.26693       0.21077
Nuclear contribution   :      1.67229      -1.24435       0.05351
                        -----------------------------------------
Total Dipole Moment    :      1.65202      -1.51129       0.26428
                        -----------------------------------------
Magnitude (a.u.)       :      2.25455
Magnitude (Debye)      :      5.73061



--------------------
Rotational spectrum 
--------------------
 
Rotational constants in cm-1:     0.059164     0.029315     0.023028 
Rotational constants in MHz :  1773.692147   878.826901   690.350589 

 Dipole components along the rotational axes: 
x,y,z [a.u.] :     0.267929    -2.235774    -0.111872 
x,y,z [Debye]:     0.681022    -5.682885    -0.284355 

 

                           *** MP2 RELAXED DENSITY ***

------------------------------------------------------------------------------
                       ORCA ELECTRIC PROPERTIES CALCULATION
------------------------------------------------------------------------------

Dipole Moment Calculation                       ... on
Quadrupole Moment Calculation                   ... off
Polarizability Calculation                      ... off
GBWName                                         ... 12h2o.su.etal.mol1,2,3,5,7,10-orca.engrad-mp2.def2tzvp.frozencore.gbw
Electron density file                           ... 12h2o.su.etal.mol1,2,3,5,7,10-orca.engrad-mp2.def2tzvp.frozencore.pmp2re
The origin for moment calculation is the CENTER OF MASS  = (-1.350053, -1.376964 -1.782967)

-------------
DIPOLE MOMENT
-------------
                                X             Y             Z
Electronic contribution:     -0.02109      -0.25944       0.22424
Nuclear contribution   :      1.67229      -1.24435       0.05351
                        -----------------------------------------
Total Dipole Moment    :      1.65120      -1.50380       0.27776
                        -----------------------------------------
Magnitude (a.u.)       :      2.25056
Magnitude (Debye)      :      5.72047



--------------------
Rotational spectrum 
--------------------
 
Rotational constants in cm-1:     0.059164     0.029315     0.023028 
Rotational constants in MHz :  1773.692147   878.826901   690.350589 

 Dipole components along the rotational axes: 
x,y,z [a.u.] :     0.279608    -2.229892    -0.120074 
x,y,z [Debye]:     0.710708    -5.667935    -0.305203 

 

Timings for individual modules:

Sum of individual times         ...       67.687 sec (=   1.128 min)
GTO integral calculation        ...        0.907 sec (=   0.015 min)   1.3 %
SCF iterations                  ...       13.552 sec (=   0.226 min)  20.0 %
MP2 module                      ...       53.228 sec (=   0.887 min)  78.6 %
                             ****ORCA TERMINATED NORMALLY****
TOTAL RUN TIME: 0 days 0 hours 1 minutes 8 seconds 648 msec
