8
Energy:   -103.26480443
O    2.02489706   0.47550300   0.10580654
H    1.51223396  -0.28748055  -0.16114756
H    1.37132109   1.12510397   0.36482177
S   -1.35681130  -0.35482302  -0.08285420
O   -1.86548899  -0.98258551   1.16904885
O   -1.05471193   1.08226047   0.16938976
O   -0.11580974  -1.05387985  -0.52027241
O   -2.39123454  -0.46508718  -1.14958303
