17
Energy:   -402.24619665
O   -2.09319736   0.59948751   1.71127145
H   -1.59549314  -0.21804580   1.72398549
H   -1.42842473   1.28399984   1.63542906
O   -2.15402494   0.18251904  -1.01605745
H   -1.25216191  -0.13786510  -1.03118817
H   -2.33683449   0.34118548  -0.08997026
O    2.35760092  -1.93780255  -2.07729343
H    1.61991245  -1.33914743  -1.96041909
H    2.60313732  -2.19259674  -1.18789833
O    0.28261901   2.47663502  -0.03498898
H    0.79900191   1.95700288   0.58109786
H    0.00646615   1.85063206  -0.70438552
S    0.91795833  -0.80929527   0.72739264
O    0.48711909  -0.49350389  -0.66356148
O    2.03549822  -1.79407126   0.68969875
O    1.37767606   0.43811960   1.40023421
O   -0.22846005  -1.38772551   1.48319908
