17
Energy:   -402.84518727
O    1.91289361  -1.00854213   2.02142650
H    2.19139012  -1.29706432   1.15227376
H    1.04571452  -0.62817470   1.88159488
O   -0.47551712   1.80788627  -2.90210516
H    0.21544849   1.26975084  -2.51582983
H   -1.21140047   1.72525574  -2.29557425
O   -2.32614133   1.85112654   1.89816276
H   -2.44628654   1.83256606   0.94871424
H   -1.64590771   1.19914228   2.06677652
O    2.16956867  -2.09121782  -0.51914803
H    1.49370860  -2.69575343  -0.21258369
H    1.68968862  -1.30183329  -0.76978534
S   -0.74732084  -0.21850235  -0.23147810
O   -1.27561457  -1.57800603  -0.53603594
O   -0.49081546  -0.10160166   1.23161425
O    0.52398287  -0.00104871  -0.97753494
O   -1.74683620   0.80664702  -0.64395577
