17
Energy:   -401.88704716
O   -2.28117640   1.16030943   0.25050169
H   -1.77060607   1.18252820   1.05985706
H   -1.63858463   0.97213043  -0.43352779
O   -1.38192582  -2.20869279   0.73096032
H   -0.47431506  -2.02202869   0.97102503
H   -1.84588175  -1.38646482   0.88881437
O   -0.63166089  -1.41636536  -1.78143750
H   -0.11355181  -0.68951657  -1.43577052
H   -0.93045780  -1.88891468  -1.00448873
O    2.84914394   1.91040781  -1.18761489
H    3.01562585   1.70620165  -0.26738912
H    1.97429018   1.56067433  -1.35658012
S    0.90658263   0.32090481   1.04927603
O    0.54743881   0.56829834  -0.37547383
O    0.99597121  -1.14658069   1.29134208
O    2.22187856   0.95444384   1.34714334
O   -0.13895808   0.90745777   1.93409256
