
                                 *****************
                                 * O   R   C   A *
                                 *****************

           --- An Ab Initio, DFT and Semiempirical electronic structure package ---

                  #######################################################
                  #                        -***-                        #
                  #          Department of theory and spectroscopy      #
                  #               Directorship: Frank Neese             #
                  #        Max Planck Institute fuer Kohlenforschung    #
                  #                Kaiser Wilhelm Platz 1               #
                  #                 D-45470 Muelheim/Ruhr               #
                  #                      Germany                        #
                  #                                                     #
                  #                  All rights reserved                #
                  #                        -***-                        #
                  #######################################################


                         Program Version 4.2.0 -  RELEASE  -


 With contributions from (in alphabetic order):
   Daniel Aravena         : Magnetic Suceptibility
   Michael Atanasov       : Ab Initio Ligand Field Theory (pilot matlab implementation)
   Alexander A. Auer      : GIAO ZORA, VPT2
   Ute Becker             : Parallelization
   Giovanni Bistoni       : ED, misc. LED, open-shell LED, HFLED
   Martin Brehm           : Molecular dynamics
   Dmytro Bykov           : SCF Hessian
   Vijay G. Chilkuri      : MRCI spin determinant printing, contributions to CSF-ICE
   Dipayan Datta          : RHF DLPNO-CCSD density
   Achintya Kumar Dutta   : EOM-CC, STEOM-CC
   Dmitry Ganyushin       : Spin-Orbit,Spin-Spin,Magnetic field MRCI
   Miquel Garcia          : C-PCM Hessian, Gaussian charge scheme
   Yang Guo               : DLPNO-NEVPT2, CIM, IAO-localization
   Andreas Hansen         : Spin unrestricted coupled pair/coupled cluster methods
   Benjamin Helmich-Paris : CASSCF linear response (MC-RPA)
   Lee Huntington         : MR-EOM, pCC
   Robert Izsak           : Overlap fitted RIJCOSX, COSX-SCS-MP3, EOM
   Christian Kollmar      : KDIIS, OOCD, Brueckner-CCSD(T), CCSD density
   Simone Kossmann        : Meta GGA functionals, TD-DFT gradient, OOMP2, MP2 Hessian
   Martin Krupicka        : AUTO-CI
   Lucas Lang             : DCDCAS
   Dagmar Lenk            : GEPOL surface, SMD
   Dimitrios Liakos       : Extrapolation schemes; Compound Job, initial MDCI parallelization
   Dimitrios Manganas     : Further ROCIS development; embedding schemes
   Dimitrios Pantazis     : SARC Basis sets
   Taras Petrenko         : DFT Hessian,TD-DFT gradient, ASA, ECA, R-Raman, ABS, FL, XAS/XES, NRVS
   Peter Pinski           : DLPNO-MP2, DLPNO-MP2 Gradient
   Christoph Reimann      : Effective Core Potentials
   Marius Retegan         : Local ZFS, SOC
   Christoph Riplinger    : Optimizer, TS searches, QM/MM, DLPNO-CCSD(T), (RO)-DLPNO pert. Triples
   Tobias Risthaus        : Range-separated hybrids, TD-DFT gradient, RPA, STAB
   Michael Roemelt        : Original ROCIS implementation
   Masaaki Saitow         : Open-shell DLPNO-CCSD energy and density
   Barbara Sandhoefer     : DKH picture change effects
   Avijit Sen             : IP-ROCIS
   Kantharuban Sivalingam : CASSCF convergence, NEVPT2, FIC-MRCI
   Bernardo de Souza      : ESD, SOC TD-DFT
   Georgi Stoychev        : AutoAux, RI-MP2 NMR
   Willem Van den Heuvel  : Paramagnetic NMR
   Boris Wezisla          : Elementary symmetry handling
   Frank Wennmohs         : Technical directorship


 We gratefully acknowledge several colleagues who have allowed us to
 interface, adapt or use parts of their codes:
   Stefan Grimme, W. Hujo, H. Kruse,             : VdW corrections, initial TS optimization,
                  C. Bannwarth                     DFT functionals, gCP, sTDA/sTD-DF
   Ed Valeev, F. Pavosevic, A. Kumar             : LibInt (2-el integral package), F12 methods
   Garnet Chan, S. Sharma, J. Yang, R. Olivares  : DMRG
   Ulf Ekstrom                                   : XCFun DFT Library
   Mihaly Kallay                                 : mrcc  (arbitrary order and MRCC methods)
   Andreas Klamt, Michael Diedenhofen            : otool_cosmo (COSMO solvation model)
   Jiri Pittner, Ondrej Demel                    : Mk-CCSD
   Frank Weinhold                                : gennbo (NPA and NBO analysis)
   Christopher J. Cramer and Donald G. Truhlar   : smd solvation model
   Lars Goerigk                                  : TD-DFT with DH, B97 family of functionals
   V. Asgeirsson, H. Jonsson                     : NEB implementation
   FAccTs GmbH                                   : IRC, NEB, NEB-TS, Multilevel, MM, QM/MM, CI optimization
   S Lehtola, MJT Oliveira, MAL Marques          : LibXC Library


 Your calculation uses the libint2 library for the computation of 2-el integrals
 For citations please refer to: http://libint.valeyev.net

 Your ORCA version has been built with support for libXC version: 4.2.3
 For citations please refer to: https://tddft.org/programs/libxc/

 This ORCA versions uses:
   CBLAS   interface :  Fast vector & matrix operations
   LAPACKE interface :  Fast linear algebra routines
   SCALAPACK package :  Parallel linear algebra routines


----- Orbital basis set information -----
Your calculation utilizes the basis: def2-TZVP
   F. Weigend and R. Ahlrichs, Phys. Chem. Chem. Phys. 7, 3297 (2005).

================================================================================
                                        WARNINGS
                       Please study these warnings very carefully!
================================================================================


WARNING: The frozen-core approximation for MP2-gradient calculations is turned on by default.

INFO   : the flag for use of LIBINT has been found!

================================================================================
                                       INPUT FILE
================================================================================
NAME = 12meoh.boyd.etal.mol7,9,10-orca.engrad-mp2.def2tzvp.frozencore.inp
|  1> # 12meoh.boyd.etal.mol7,9,10
|  2> ! MP2 def2-TZVP EnGrad TightSCF
|  3> 
|  4> %pal
|  5>     nprocs 6
|  6> end
|  7> 
|  8> %maxcore 8000
|  9> 
| 10> %scf
| 11>     ConvForced true
| 12> end
| 13> 
| 14> *xyz 0 1
| 15> O   4.310535586  -1.588322800   0.656128299
| 16> H   3.804372199  -1.630404735  -0.196849819
| 17> C   4.312298137  -2.894980854   1.222112691
| 18> H   4.713177833  -2.819907076   2.237066773
| 19> H   4.957796734  -3.574699304   0.648211180
| 20> H   3.302735989  -3.324433205   1.269756773
| 21> O   1.390610024   3.194080770  -1.536658882
| 22> H   2.162932299   2.881562730  -0.993525056
| 23> C   1.202977189   4.580367182  -1.302880219
| 24> H   0.374773115   4.915764831  -1.934164643
| 25> H   2.098649340   5.157710875  -1.570472348
| 26> H   0.950320401   4.800436015  -0.254328827
| 27> O  -5.201143618   0.064582726  -0.172223772
| 28> H  -4.686891530   0.869258890   0.107806143
| 29> C  -6.513192168   0.171391798   0.359883449
| 30> H  -7.049381312  -0.749234190   0.111361174
| 31> H  -7.057741163   1.017801101  -0.081819420
| 32> H  -6.514770575   0.292264928   1.453058834
| 33> *
| 34> 
| 35>                          ****END OF INPUT****
================================================================================

                     *******************************
                     * Energy+Gradient Calculation *
                     *******************************

---------------------------------
CARTESIAN COORDINATES (ANGSTROEM)
---------------------------------
  O      4.310536   -1.588323    0.656128
  H      3.804372   -1.630405   -0.196850
  C      4.312298   -2.894981    1.222113
  H      4.713178   -2.819907    2.237067
  H      4.957797   -3.574699    0.648211
  H      3.302736   -3.324433    1.269757
  O      1.390610    3.194081   -1.536659
  H      2.162932    2.881563   -0.993525
  C      1.202977    4.580367   -1.302880
  H      0.374773    4.915765   -1.934165
  H      2.098649    5.157711   -1.570472
  H      0.950320    4.800436   -0.254329
  O     -5.201144    0.064583   -0.172224
  H     -4.686892    0.869259    0.107806
  C     -6.513192    0.171392    0.359883
  H     -7.049381   -0.749234    0.111361
  H     -7.057741    1.017801   -0.081819
  H     -6.514771    0.292265    1.453059

----------------------------
CARTESIAN COORDINATES (A.U.)
----------------------------
  NO LB      ZA    FRAG     MASS         X           Y           Z
   0 O     8.0000    0    15.999    8.145732   -3.001495    1.239903
   1 H     1.0000    0     1.008    7.189222   -3.081018   -0.371992
   2 C     6.0000    0    12.011    8.149062   -5.470721    2.309458
   3 H     1.0000    0     1.008    8.906615   -5.328852    4.227444
   4 H     1.0000    0     1.008    9.368878   -6.755203    1.224942
   5 H     1.0000    0     1.008    6.241267   -6.282268    2.399493
   6 O     8.0000    0    15.999    2.627872    6.035938   -2.903864
   7 H     1.0000    0     1.008    4.087350    5.445364   -1.877490
   8 C     6.0000    0    12.011    2.273297    8.655640   -2.462087
   9 H     1.0000    0     1.008    0.708219    9.289449   -3.655041
  10 H     1.0000    0     1.008    3.965873    9.746661   -2.967763
  11 H     1.0000    0     1.008    1.795845    9.071509   -0.480612
  12 O     8.0000    0    15.999   -9.828737    0.122044   -0.325456
  13 H     1.0000    0     1.008   -8.856941    1.642661    0.203724
  14 C     6.0000    0    12.011  -12.308149    0.323884    0.680081
  15 H     1.0000    0     1.008  -13.321400   -1.415847    0.210442
  16 H     1.0000    0     1.008  -13.337198    1.923365   -0.154616
  17 H     1.0000    0     1.008  -12.311132    0.552301    2.745883

--------------------------------
INTERNAL COORDINATES (ANGSTROEM)
--------------------------------
 O      0   0   0     0.000000000000     0.00000000     0.00000000
 H      1   0   0     0.992745653921     0.00000000     0.00000000
 C      1   2   0     1.423972158666   107.65251732     0.00000000
 H      3   1   2     1.093833804276   107.83521386   189.70245649
 H      3   1   2     1.099112621312   111.14100782    71.31158364
 H      3   1   2     1.098141617007   112.02184717   309.48604457
 O      2   1   3     5.558506683518   113.06133257   151.98086893
 H      7   2   1     0.994556974101    42.13388217    24.57423535
 C      7   2   1     1.418325971045   150.00366407     8.57386524
 H      9   7   2     1.094044603812   107.73887728   189.21729204
 H      9   7   2     1.098708282224   111.44548874    70.43151911
 H      9   7   2     1.100784159336   112.50562595   308.56245704
 O      7   2   1     7.423385834888    88.58995583   249.48643434
 H     13   7   2     0.995176211641    41.58180927   126.12676468
 C     13   7   2     1.419865370399   149.06069654   140.63046133
 H     15  13   7     1.093990095520   107.72610853   174.04925977
 H     15  13   7     1.099110431505   111.41668057    55.40338209
 H     15  13   7     1.099838727857   112.46269835   293.58287966

---------------------------
INTERNAL COORDINATES (A.U.)
---------------------------
 O      0   0   0     0.000000000000     0.00000000     0.00000000
 H      1   0   0     1.876017406552     0.00000000     0.00000000
 C      1   2   0     2.690917402208   107.65251732     0.00000000
 H      3   1   2     2.067046326107   107.83521386   189.70245649
 H      3   1   2     2.077021844616   111.14100782    71.31158364
 H      3   1   2     2.075186912405   112.02184717   309.48604457
 O      2   1   3    10.504055345420   113.06133257   151.98086893
 H      7   2   1     1.879440305631    42.13388217    24.57423535
 C      7   2   1     2.680247653903   150.00366407     8.57386524
 H      9   7   2     2.067444679499   107.73887728   189.21729204
 H      9   7   2     2.076257754474   111.44548874    70.43151911
 H      9   7   2     2.080180593704   112.50562595   308.56245704
 O      7   2   1    14.028166214369    88.58995583   249.48643434
 H     13   7   2     1.880610494996    41.58180927   126.12676468
 C     13   7   2     2.683156697093   149.06069654   140.63046133
 H     15  13   7     2.067341673755   107.72610853   174.04925977
 H     15  13   7     2.077017706481   111.41668057    55.40338209
 H     15  13   7     2.078393987130   112.46269835   293.58287966

---------------------
BASIS SET INFORMATION
---------------------
There are 3 groups of distinct atoms

 Group   1 Type O   : 11s6p2d1f contracted to 5s3p2d1f pattern {62111/411/11/1}
 Group   2 Type H   : 5s1p contracted to 3s1p pattern {311/1}
 Group   3 Type C   : 11s6p2d1f contracted to 5s3p2d1f pattern {62111/411/11/1}

Atom   0O    basis set group =>   1
Atom   1H    basis set group =>   2
Atom   2C    basis set group =>   3
Atom   3H    basis set group =>   2
Atom   4H    basis set group =>   2
Atom   5H    basis set group =>   2
Atom   6O    basis set group =>   1
Atom   7H    basis set group =>   2
Atom   8C    basis set group =>   3
Atom   9H    basis set group =>   2
Atom  10H    basis set group =>   2
Atom  11H    basis set group =>   2
Atom  12O    basis set group =>   1
Atom  13H    basis set group =>   2
Atom  14C    basis set group =>   3
Atom  15H    basis set group =>   2
Atom  16H    basis set group =>   2
Atom  17H    basis set group =>   2


           ************************************************************
           *        Program running with 6 parallel MPI-processes     *
           *              working on a common directory               *
           ************************************************************
------------------------------------------------------------------------------
                           ORCA GTO INTEGRAL CALCULATION
------------------------------------------------------------------------------

                         BASIS SET STATISTICS AND STARTUP INFO

 # of primitive gaussian shells          ...  192
 # of primitive gaussian functions       ...  372
 # of contracted shells                  ...  114
 # of contracted basis functions         ...  258
 Highest angular momentum                ...    3
 Maximum contraction depth               ...    6
 Integral package used                   ... LIBINT
 Integral threshhold            Thresh   ...  2.500e-11
 Primitive cut-off              TCut     ...  2.500e-12


------------------------------ INTEGRAL EVALUATION ----------------------------


 * One electron integrals 
 Pre-screening matrix                    ... done
 Shell pair data                         ... done (   0.001 sec)



           ************************************************************
           *        Program running with 6 parallel MPI-processes     *
           *              working on a common directory               *
           ************************************************************
-------------------------------------------------------------------------------
                                 ORCA SCF
-------------------------------------------------------------------------------

------------
SCF SETTINGS
------------
Hamiltonian:
 Ab initio Hamiltonian  Method          .... Hartree-Fock(GTOs)


General Settings:
 Integral files         IntName         .... 12meoh.boyd.etal.mol7,9,10-orca.engrad-mp2.def2tzvp.frozencore
 Hartree-Fock type      HFTyp           .... RHF
 Total Charge           Charge          ....    0
 Multiplicity           Mult            ....    1
 Number of Electrons    NEL             ....   54
 Basis Dimension        Dim             ....  258
 Nuclear Repulsion      ENuc            ....    181.2610373688 Eh

Convergence Acceleration:
 DIIS                   CNVDIIS         .... on
   Start iteration      DIISMaxIt       ....    12
   Startup error        DIISStart       ....  0.200000
   # of expansion vecs  DIISMaxEq       ....     5
   Bias factor          DIISBfac        ....   1.050
   Max. coefficient     DIISMaxC        ....  10.000
 Newton-Raphson         CNVNR           .... off
 SOSCF                  CNVSOSCF        .... on
   Start iteration      SOSCFMaxIt      ....   150
   Startup grad/error   SOSCFStart      ....  0.003300
 Level Shifting         CNVShift        .... on
   Level shift para.    LevelShift      ....    0.2500
   Turn off err/grad.   ShiftErr        ....    0.0010
 Zerner damping         CNVZerner       .... off
 Static damping         CNVDamp         .... on
   Fraction old density DampFac         ....    0.7000
   Max. Damping (<1)    DampMax         ....    0.9800
   Min. Damping (>=0)   DampMin         ....    0.0000
   Turn off err/grad.   DampErr         ....    0.1000
 Fernandez-Rico         CNVRico         .... off

SCF Procedure:
 Maximum # iterations   MaxIter         ....   125
 SCF integral mode      SCFMode         .... Direct
   Integral package                     .... LIBINT
 Reset frequency        DirectResetFreq ....    20
 Integral Threshold     Thresh          ....  2.500e-11 Eh
 Primitive CutOff       TCut            ....  2.500e-12 Eh

Convergence Tolerance:
 Convergence Check Mode ConvCheckMode   .... Total+1el-Energy
 Convergence forced     ConvForced      .... 1
 Energy Change          TolE            ....  1.000e-08 Eh
 1-El. energy change                    ....  1.000e-05 Eh
 Orbital Gradient       TolG            ....  1.000e-05
 Orbital Rotation angle TolX            ....  1.000e-05
 DIIS Error             TolErr          ....  5.000e-07


Diagonalization of the overlap matrix:
Smallest eigenvalue                        ... 1.675e-03
Time for diagonalization                   ...    0.010 sec
Threshold for overlap eigenvalues          ... 1.000e-08
Number of eigenvalues below threshold      ... 0
Time for construction of square roots      ...    0.005 sec
Total time needed                          ...    0.015 sec

-------------------
DFT GRID GENERATION
-------------------

General Integration Accuracy     IntAcc      ...  4.340
Radial Grid Type                 RadialGrid  ... Gauss-Chebyshev
Angular Grid (max. acc.)         AngularGrid ... Lebedev-110
Angular grid pruning method      GridPruning ... 3 (G Style)
Weight generation scheme         WeightScheme... Becke
Basis function cutoff            BFCut       ...    1.0000e-11
Integration weight cutoff        WCut        ...    1.0000e-14
Grids for H and He will be reduced by one unit

# of grid points (after initial pruning)     ...  19644 (   0.0 sec)
# of grid points (after weights+screening)   ...  19010 (   0.0 sec)
nearest neighbour list constructed           ...    0.0 sec
Grid point re-assignment to atoms done       ...    0.0 sec
Grid point division into batches done        ...    0.0 sec
Reduced shell lists constructed in    0.0 sec

Total number of grid points                  ...    19010
Total number of batches                      ...      304
Average number of points per batch           ...       62
Average number of grid points per atom       ...     1056
Average number of shells per batch           ...    41.79 (36.66%)
Average number of basis functions per batch  ...    90.60 (35.11%)
Average number of large shells per batch     ...    32.31 (77.31%)
Average number of large basis fcns per batch ...    74.27 (81.98%)
Maximum spatial batch extension              ...  15.77, 20.95, 15.13 au
Average spatial batch extension              ...   0.61,  0.61,  0.59 au

Time for grid setup =    0.052 sec

------------------------------
INITIAL GUESS: MODEL POTENTIAL
------------------------------
Loading Hartree-Fock densities                     ... done
Calculating cut-offs                               ... done
Setting up the integral package                    ... done
Initializing the effective Hamiltonian             ... done
Starting the Coulomb interaction                   ... done (   0.0 sec)
Reading the grid                                   ... done
Mapping shells                                     ... done
Starting the XC term evaluation                    ... done (   0.0 sec)
Transforming the Hamiltonian                       ... done (   0.0 sec)
Diagonalizing the Hamiltonian                      ... done (   0.0 sec)
Back transforming the eigenvectors                 ... done (   0.0 sec)
Now organizing SCF variables                       ... done
                      ------------------
                      INITIAL GUESS DONE (   0.2 sec)
                      ------------------
--------------
SCF ITERATIONS
--------------
ITER       Energy         Delta-E        Max-DP      RMS-DP      [F,P]     Damp
               ***  Starting incremental Fock matrix formation  ***
  0   -344.9078516594   0.000000000000 0.03677322  0.00076930  0.2885852 0.7000
  1   -345.0393436738  -0.131492014483 0.02517821  0.00056915  0.2177773 0.7000
                               ***Turning on DIIS***
  2   -345.1151468016  -0.075803127731 0.01472247  0.00035042  0.1628090 0.7000
  3   -345.9900266338  -0.874879832227 0.00767697  0.00019445  0.1199531 0.7000
  4   -345.8379447198   0.152081913971 0.01641088  0.00046303  0.0845609 0.0000
  5   -345.2994767389   0.538467980917 0.00199925  0.00006125  0.0057827 0.0000
                      *** Initiating the SOSCF procedure ***
                           *** Shutting down DIIS ***
                      *** Re-Reading the Fockian *** 
                      *** Removing any level shift *** 
ITER      Energy       Delta-E        Grad      Rot      Max-DP    RMS-DP
  6   -345.27431799   0.0251587499  0.000801  0.000801  0.000813  0.000031
               *** Restarting incremental Fock matrix formation ***
  7   -345.26906312   0.0052548641  0.000363  0.000383  0.000461  0.000017
  8   -345.26907000  -0.0000068711  0.000198  0.000215  0.000345  0.000012
  9   -345.26907168  -0.0000016845  0.000031  0.000028  0.000053  0.000002
 10   -345.26907173  -0.0000000489  0.000007  0.000014  0.000016  0.000001
                 **** Energy Check signals convergence ****
              ***Rediagonalizing the Fockian in SOSCF/NRSCF***

               *****************************************************
               *                     SUCCESS                       *
               *           SCF CONVERGED AFTER  11 CYCLES          *
               *****************************************************


----------------
TOTAL SCF ENERGY
----------------

Total Energy       :         -345.26907173 Eh           -9395.24909 eV

Components:
Nuclear Repulsion  :          181.26103737 Eh            4932.36358 eV
Electronic Energy  :         -526.53010910 Eh          -14327.61267 eV
One Electron Energy:         -831.48334620 Eh          -22625.81212 eV
Two Electron Energy:          304.95323710 Eh            8298.19945 eV

Virial components:
Potential Energy   :         -689.89343705 Eh          -18772.95482 eV
Kinetic Energy     :          344.62436531 Eh            9377.70573 eV
Virial Ratio       :            2.00187075


---------------
SCF CONVERGENCE
---------------

  Last Energy change         ...   -4.0742e-09  Tolerance :   1.0000e-08
  Last MAX-Density change    ...    4.4097e-06  Tolerance :   1.0000e-07
  Last RMS-Density change    ...    1.2990e-07  Tolerance :   5.0000e-09
  Last Orbital Gradient      ...    2.1613e-06  Tolerance :   1.0000e-05
  Last Orbital Rotation      ...    5.2923e-06  Tolerance :   1.0000e-05

             **** THE GBW FILE WAS UPDATED (12meoh.boyd.etal.mol7,9,10-orca.engrad-mp2.def2tzvp.frozencore.gbw) ****
             **** DENSITY FILE WAS UPDATED (12meoh.boyd.etal.mol7,9,10-orca.engrad-mp2.def2tzvp.frozencore.scfp) ****
             **** ENERGY FILE WAS UPDATED (12meoh.boyd.etal.mol7,9,10-orca.engrad-mp2.def2tzvp.frozencore.en.tmp) ****
             **** THE GBW FILE WAS UPDATED (12meoh.boyd.etal.mol7,9,10-orca.engrad-mp2.def2tzvp.frozencore.gbw) ****
             **** DENSITY FILE WAS UPDATED (12meoh.boyd.etal.mol7,9,10-orca.engrad-mp2.def2tzvp.frozencore.scfp) ****
----------------
ORBITAL ENERGIES
----------------

  NO   OCC          E(Eh)            E(eV) 
   0   2.0000     -20.557619      -559.4013 
   1   2.0000     -20.556587      -559.3732 
   2   2.0000     -20.555936      -559.3555 
   3   2.0000     -11.271575      -306.7151 
   4   2.0000     -11.270941      -306.6979 
   5   2.0000     -11.270158      -306.6766 
   6   2.0000      -1.347320       -36.6624 
   7   2.0000      -1.347315       -36.6623 
   8   2.0000      -1.346046       -36.6278 
   9   2.0000      -0.919557       -25.0224 
  10   2.0000      -0.918858       -25.0034 
  11   2.0000      -0.917889       -24.9770 
  12   2.0000      -0.682010       -18.5584 
  13   2.0000      -0.681974       -18.5574 
  14   2.0000      -0.680774       -18.5248 
  15   2.0000      -0.616979       -16.7889 
  16   2.0000      -0.616364       -16.7721 
  17   2.0000      -0.615454       -16.7474 
  18   2.0000      -0.591662       -16.1000 
  19   2.0000      -0.591065       -16.0837 
  20   2.0000      -0.590034       -16.0556 
  21   2.0000      -0.501127       -13.6364 
  22   2.0000      -0.498601       -13.5676 
  23   2.0000      -0.498429       -13.5629 
  24   2.0000      -0.449260       -12.2250 
  25   2.0000      -0.447818       -12.1857 
  26   2.0000      -0.447081       -12.1657 
  27   0.0000       0.128166         3.4876 
  28   0.0000       0.136884         3.7248 
  29   0.0000       0.142516         3.8781 
  30   0.0000       0.172657         4.6982 
  31   0.0000       0.177245         4.8231 
  32   0.0000       0.181098         4.9279 
  33   0.0000       0.228500         6.2178 
  34   0.0000       0.230005         6.2588 
  35   0.0000       0.230205         6.2642 
  36   0.0000       0.231352         6.2954 
  37   0.0000       0.231995         6.3129 
  38   0.0000       0.232215         6.3189 
  39   0.0000       0.252054         6.8587 
  40   0.0000       0.256493         6.9795 
  41   0.0000       0.259781         7.0690 
  42   0.0000       0.328908         8.9500 
  43   0.0000       0.333857         9.0847 
  44   0.0000       0.337485         9.1834 
  45   0.0000       0.339465         9.2373 
  46   0.0000       0.339931         9.2500 
  47   0.0000       0.340711         9.2712 
  48   0.0000       0.458533        12.4773 
  49   0.0000       0.462885        12.5957 
  50   0.0000       0.464896        12.6505 
  51   0.0000       0.519887        14.1468 
  52   0.0000       0.524096        14.2614 
  53   0.0000       0.524140        14.2626 
  54   0.0000       0.566947        15.4274 
  55   0.0000       0.572850        15.5881 
  56   0.0000       0.576568        15.6892 
  57   0.0000       0.609260        16.5788 
  58   0.0000       0.611062        16.6278 
  59   0.0000       0.611359        16.6359 
  60   0.0000       0.620070        16.8730 
  61   0.0000       0.620719        16.8906 
  62   0.0000       0.621275        16.9058 
  63   0.0000       0.656411        17.8619 
  64   0.0000       0.659148        17.9363 
  65   0.0000       0.659201        17.9378 
  66   0.0000       0.683504        18.5991 
  67   0.0000       0.684112        18.6156 
  68   0.0000       0.685235        18.6462 
  69   0.0000       0.704866        19.1804 
  70   0.0000       0.706783        19.2325 
  71   0.0000       0.707515        19.2525 
  72   0.0000       0.760182        20.6856 
  73   0.0000       0.766319        20.8526 
  74   0.0000       0.775236        21.0952 
  75   0.0000       0.880417        23.9574 
  76   0.0000       0.883072        24.0296 
  77   0.0000       0.883460        24.0402 
  78   0.0000       0.920667        25.0526 
  79   0.0000       0.925127        25.1740 
  80   0.0000       0.925654        25.1883 
  81   0.0000       0.951082        25.8803 
  82   0.0000       0.953808        25.9544 
  83   0.0000       0.954447        25.9718 
  84   0.0000       1.089401        29.6441 
  85   0.0000       1.092162        29.7192 
  86   0.0000       1.092515        29.7288 
  87   0.0000       1.115268        30.3480 
  88   0.0000       1.117396        30.4059 
  89   0.0000       1.121114        30.5071 
  90   0.0000       1.245627        33.8952 
  91   0.0000       1.248242        33.9664 
  92   0.0000       1.248324        33.9686 
  93   0.0000       1.533238        41.7215 
  94   0.0000       1.537325        41.8327 
  95   0.0000       1.537721        41.8435 
  96   0.0000       1.655946        45.0606 
  97   0.0000       1.660651        45.1886 
  98   0.0000       1.661694        45.2170 
  99   0.0000       1.704883        46.3922 
 100   0.0000       1.708068        46.4789 
 101   0.0000       1.708553        46.4921 
 102   0.0000       1.772110        48.2216 
 103   0.0000       1.776442        48.3395 
 104   0.0000       1.777400        48.3655 
 105   0.0000       1.791600        48.7519 
 106   0.0000       1.791878        48.7595 
 107   0.0000       1.793954        48.8160 
 108   0.0000       1.794155        48.8214 
 109   0.0000       1.795792        48.8660 
 110   0.0000       1.800466        48.9932 
 111   0.0000       1.834903        49.9302 
 112   0.0000       1.842102        50.1261 
 113   0.0000       1.848455        50.2990 
 114   0.0000       1.862340        50.6768 
 115   0.0000       1.862647        50.6852 
 116   0.0000       1.863168        50.6994 
 117   0.0000       1.961253        53.3684 
 118   0.0000       1.963304        53.4242 
 119   0.0000       1.964222        53.4492 
 120   0.0000       2.137005        58.1509 
 121   0.0000       2.139198        58.2105 
 122   0.0000       2.139578        58.2209 
 123   0.0000       2.206472        60.0412 
 124   0.0000       2.207103        60.0583 
 125   0.0000       2.208973        60.1092 
 126   0.0000       2.245490        61.1029 
 127   0.0000       2.245744        61.1098 
 128   0.0000       2.246093        61.1193 
 129   0.0000       2.288483        62.2728 
 130   0.0000       2.289502        62.3005 
 131   0.0000       2.289727        62.3066 
 132   0.0000       2.299202        62.5645 
 133   0.0000       2.305261        62.7293 
 134   0.0000       2.310127        62.8617 
 135   0.0000       2.445345        66.5412 
 136   0.0000       2.445663        66.5499 
 137   0.0000       2.447338        66.5954 
 138   0.0000       2.535426        68.9925 
 139   0.0000       2.551873        69.4400 
 140   0.0000       2.555415        69.5364 
 141   0.0000       2.557831        69.6021 
 142   0.0000       2.557895        69.6039 
 143   0.0000       2.559022        69.6345 
 144   0.0000       2.594801        70.6081 
 145   0.0000       2.596501        70.6544 
 146   0.0000       2.604207        70.8641 
 147   0.0000       2.631539        71.6078 
 148   0.0000       2.635314        71.7105 
 149   0.0000       2.636156        71.7334 
 150   0.0000       2.695231        73.3410 
 151   0.0000       2.695896        73.3591 
 152   0.0000       2.696941        73.3875 
 153   0.0000       2.778896        75.6176 
 154   0.0000       2.779907        75.6451 
 155   0.0000       2.780769        75.6686 
 156   0.0000       2.839551        77.2681 
 157   0.0000       2.839986        77.2800 
 158   0.0000       2.840107        77.2833 
 159   0.0000       2.899962        78.9120 
 160   0.0000       2.902060        78.9691 
 161   0.0000       2.903024        78.9953 
 162   0.0000       3.043227        82.8104 
 163   0.0000       3.048767        82.9612 
 164   0.0000       3.051647        83.0395 
 165   0.0000       3.103528        84.4513 
 166   0.0000       3.113019        84.7096 
 167   0.0000       3.114844        84.7592 
 168   0.0000       3.137606        85.3786 
 169   0.0000       3.139989        85.4435 
 170   0.0000       3.148358        85.6712 
 171   0.0000       3.242417        88.2306 
 172   0.0000       3.247538        88.3700 
 173   0.0000       3.247720        88.3749 
 174   0.0000       3.356656        91.3393 
 175   0.0000       3.356938        91.3469 
 176   0.0000       3.357672        91.3669 
 177   0.0000       3.420232        93.0693 
 178   0.0000       3.421624        93.1071 
 179   0.0000       3.422256        93.1243 
 180   0.0000       3.535974        96.2187 
 181   0.0000       3.537845        96.2696 
 182   0.0000       3.539180        96.3060 
 183   0.0000       3.635402        98.9243 
 184   0.0000       3.636564        98.9559 
 185   0.0000       3.639636        99.0395 
 186   0.0000       3.666929        99.7822 
 187   0.0000       3.673495        99.9609 
 188   0.0000       3.678767       100.1043 
 189   0.0000       3.726220       101.3956 
 190   0.0000       3.728577       101.4597 
 191   0.0000       3.730382       101.5089 
 192   0.0000       3.861365       105.0731 
 193   0.0000       3.865521       105.1862 
 194   0.0000       3.866017       105.1997 
 195   0.0000       3.888150       105.8019 
 196   0.0000       3.892667       105.9248 
 197   0.0000       3.892805       105.9286 
 198   0.0000       3.902045       106.1800 
 199   0.0000       3.905619       106.2773 
 200   0.0000       3.906129       106.2912 
 201   0.0000       4.249902       115.6457 
 202   0.0000       4.253218       115.7360 
 203   0.0000       4.255694       115.8033 
 204   0.0000       4.496236       122.3488 
 205   0.0000       4.498499       122.4104 
 206   0.0000       4.502246       122.5123 
 207   0.0000       4.533812       123.3713 
 208   0.0000       4.535199       123.4090 
 209   0.0000       4.535431       123.4154 
 210   0.0000       4.705109       128.0325 
 211   0.0000       4.706492       128.0702 
 212   0.0000       4.707519       128.0981 
 213   0.0000       4.866732       132.4305 
 214   0.0000       4.868910       132.4898 
 215   0.0000       4.869486       132.5055 
 216   0.0000       5.693844       154.9374 
 217   0.0000       5.694005       154.9418 
 218   0.0000       5.695748       154.9892 
 219   0.0000       5.767755       156.9486 
 220   0.0000       5.770364       157.0196 
 221   0.0000       5.771360       157.0467 
 222   0.0000       5.879835       159.9984 
 223   0.0000       5.881275       160.0376 
 224   0.0000       5.882607       160.0739 
 225   0.0000       6.159428       167.6066 
 226   0.0000       6.171119       167.9247 
 227   0.0000       6.171321       167.9302 
 228   0.0000       6.178035       168.1129 
 229   0.0000       6.179514       168.1531 
 230   0.0000       6.181208       168.1992 
 231   0.0000       6.324038       172.0858 
 232   0.0000       6.326412       172.1504 
 233   0.0000       6.328216       172.1995 
 234   0.0000       6.662763       181.3030 
 235   0.0000       6.663204       181.3150 
 236   0.0000       6.666189       181.3962 
 237   0.0000       6.948262       189.0718 
 238   0.0000       6.949168       189.0965 
 239   0.0000       6.950076       189.1212 
 240   0.0000       7.149299       194.5423 
 241   0.0000       7.152992       194.6428 
 242   0.0000       7.154990       194.6972 
 243   0.0000       7.218022       196.4124 
 244   0.0000       7.220858       196.4895 
 245   0.0000       7.221021       196.4940 
 246   0.0000       7.455776       202.8820 
 247   0.0000       7.459897       202.9941 
 248   0.0000       7.461165       203.0286 
 249   0.0000       7.589177       206.5120 
 250   0.0000       7.592888       206.6130 
 251   0.0000       7.594697       206.6622 
 252   0.0000      23.359004       635.6308 
 253   0.0000      23.368629       635.8927 
 254   0.0000      23.371017       635.9577 
 255   0.0000      45.144657      1228.4486 
 256   0.0000      45.150085      1228.5963 
 257   0.0000      45.152465      1228.6610 

                    ********************************
                    * MULLIKEN POPULATION ANALYSIS *
                    ********************************

-----------------------
MULLIKEN ATOMIC CHARGES
-----------------------
   0 O :   -0.548086
   1 H :    0.331122
   2 C :   -0.075992
   3 H :    0.107675
   4 H :    0.091211
   5 H :    0.094082
   6 O :   -0.547448
   7 H :    0.332483
   8 C :   -0.072709
   9 H :    0.107242
  10 H :    0.090913
  11 H :    0.089507
  12 O :   -0.544017
  13 H :    0.330668
  14 C :   -0.074378
  15 H :    0.107824
  16 H :    0.089862
  17 H :    0.090040
Sum of atomic charges:   -0.0000000

--------------------------------
MULLIKEN REDUCED ORBITAL CHARGES
--------------------------------
  0 O s       :     3.804848  s :     3.804848
      pz      :     1.447150  p :     4.708941
      px      :     1.789968
      py      :     1.471822
      dz2     :     0.007259  d :     0.032566
      dxz     :     0.006970
      dyz     :     0.005353
      dx2y2   :     0.009240
      dxy     :     0.003744
      f0      :     0.000167  f :     0.001731
      f+1     :     0.000576
      f-1     :     0.000121
      f+2     :     0.000389
      f-2     :     0.000091
      f+3     :     0.000135
      f-3     :     0.000252
  1 H s       :     0.625955  s :     0.625955
      pz      :     0.018126  p :     0.042922
      px      :     0.015549
      py      :     0.009247
  2 C s       :     3.194670  s :     3.194670
      pz      :     1.001778  p :     2.757714
      px      :     1.035611
      py      :     0.720324
      dz2     :     0.027624  d :     0.114696
      dxz     :     0.011950
      dyz     :     0.022789
      dx2y2   :     0.017679
      dxy     :     0.034654
      f0      :     0.000805  f :     0.008912
      f+1     :     0.000674
      f-1     :     0.001687
      f+2     :     0.001186
      f-2     :     0.001201
      f+3     :     0.001700
      f-3     :     0.001660
  3 H s       :     0.871181  s :     0.871181
      pz      :     0.013603  p :     0.021144
      px      :     0.005188
      py      :     0.002353
  4 H s       :     0.888559  s :     0.888559
      pz      :     0.005876  p :     0.020231
      px      :     0.007479
      py      :     0.006876
  5 H s       :     0.885912  s :     0.885912
      pz      :     0.003172  p :     0.020006
      px      :     0.012696
      py      :     0.004139
  6 O s       :     3.803631  s :     3.803631
      pz      :     1.747451  p :     4.709471
      px      :     1.595270
      py      :     1.366750
      dz2     :     0.003171  d :     0.032593
      dxz     :     0.007704
      dyz     :     0.005863
      dx2y2   :     0.011824
      dxy     :     0.004031
      f0      :     0.000243  f :     0.001752
      f+1     :     0.000122
      f-1     :     0.000229
      f+2     :     0.000347
      f-2     :     0.000204
      f+3     :     0.000236
      f-3     :     0.000372
  7 H s       :     0.624756  s :     0.624756
      pz      :     0.014901  p :     0.042760
      px      :     0.017202
      py      :     0.010657
  8 C s       :     3.192425  s :     3.192425
      pz      :     1.030991  p :     2.755665
      px      :     1.046344
      py      :     0.678331
      dz2     :     0.018759  d :     0.115619
      dxz     :     0.010206
      dyz     :     0.030359
      dx2y2   :     0.019672
      dxy     :     0.036623
      f0      :     0.001547  f :     0.009000
      f+1     :     0.000547
      f-1     :     0.001084
      f+2     :     0.001546
      f-2     :     0.000382
      f+3     :     0.001840
      f-3     :     0.002055
  9 H s       :     0.871629  s :     0.871629
      pz      :     0.007344  p :     0.021130
      px      :     0.010262
      py      :     0.003523
 10 H s       :     0.889000  s :     0.889000
      pz      :     0.004108  p :     0.020087
      px      :     0.010459
      py      :     0.005520
 11 H s       :     0.890464  s :     0.890464
      pz      :     0.013386  p :     0.020029
      px      :     0.004077
      py      :     0.002566
 12 O s       :     3.805028  s :     3.805028
      pz      :     1.805498  p :     4.704555
      px      :     1.330927
      py      :     1.568130
      dz2     :     0.003727  d :     0.032692
      dxz     :     0.007718
      dyz     :     0.004016
      dx2y2   :     0.008609
      dxy     :     0.008622
      f0      :     0.000287  f :     0.001741
      f+1     :     0.000241
      f-1     :     0.000108
      f+2     :     0.000289
      f-2     :     0.000206
      f+3     :     0.000475
      f-3     :     0.000135
 13 H s       :     0.626617  s :     0.626617
      pz      :     0.013270  p :     0.042715
      px      :     0.012850
      py      :     0.016595
 14 C s       :     3.192720  s :     3.192720
      pz      :     0.977685  p :     2.757133
      px      :     0.722521
      py      :     1.056928
      dz2     :     0.028774  d :     0.115554
      dxz     :     0.023979
      dyz     :     0.005967
      dx2y2   :     0.016341
      dxy     :     0.040492
      f0      :     0.001623  f :     0.008971
      f+1     :     0.001816
      f-1     :     0.000172
      f+2     :     0.001273
      f-2     :     0.000813
      f+3     :     0.001780
      f-3     :     0.001495
 15 H s       :     0.871025  s :     0.871025
      pz      :     0.003941  p :     0.021150
      px      :     0.005503
      py      :     0.011706
 16 H s       :     0.890008  s :     0.890008
      pz      :     0.005015  p :     0.020130
      px      :     0.005327
      py      :     0.009788
 17 H s       :     0.889986  s :     0.889986
      pz      :     0.014411  p :     0.019974
      px      :     0.002062
      py      :     0.003501


                     *******************************
                     * LOEWDIN POPULATION ANALYSIS *
                     *******************************

----------------------
LOEWDIN ATOMIC CHARGES
----------------------
   0 O :   -0.131461
   1 H :    0.189226
   2 C :   -0.335448
   3 H :    0.100848
   4 H :    0.088201
   5 H :    0.088640
   6 O :   -0.126781
   7 H :    0.190916
   8 C :   -0.340601
   9 H :    0.101058
  10 H :    0.087858
  11 H :    0.087543
  12 O :   -0.127125
  13 H :    0.190774
  14 C :   -0.339904
  15 H :    0.101214
  16 H :    0.087537
  17 H :    0.087504

-------------------------------
LOEWDIN REDUCED ORBITAL CHARGES
-------------------------------
  0 O s       :     3.394827  s :     3.394827
      pz      :     1.426782  p :     4.664107
      px      :     1.710830
      py      :     1.526494
      dz2     :     0.015933  d :     0.068405
      dxz     :     0.012411
      dyz     :     0.013461
      dx2y2   :     0.015921
      dxy     :     0.010679
      f0      :     0.000276  f :     0.004123
      f+1     :     0.000839
      f-1     :     0.000731
      f+2     :     0.000800
      f-2     :     0.000292
      f+3     :     0.000644
      f-3     :     0.000541
  1 H s       :     0.665834  s :     0.665834
      pz      :     0.066283  p :     0.144940
      px      :     0.050701
      py      :     0.027956
  2 C s       :     2.862514  s :     2.862514
      pz      :     1.046625  p :     2.992623
      px      :     1.084027
      py      :     0.861970
      dz2     :     0.088188  d :     0.422946
      dxz     :     0.037127
      dyz     :     0.086076
      dx2y2   :     0.085753
      dxy     :     0.125803
      f0      :     0.004557  f :     0.057366
      f+1     :     0.002511
      f-1     :     0.011783
      f+2     :     0.009241
      f-2     :     0.008675
      f+3     :     0.010625
      f-3     :     0.009975
  3 H s       :     0.840412  s :     0.840412
      pz      :     0.034901  p :     0.058740
      px      :     0.015797
      py      :     0.008042
  4 H s       :     0.853359  s :     0.853359
      pz      :     0.018122  p :     0.058440
      px      :     0.021554
      py      :     0.018764
  5 H s       :     0.852680  s :     0.852680
      pz      :     0.011750  p :     0.058680
      px      :     0.034282
      py      :     0.012648
  6 O s       :     3.391098  s :     3.391098
      pz      :     1.686432  p :     4.662348
      px      :     1.550510
      py      :     1.425406
      dz2     :     0.005725  d :     0.069180
      dxz     :     0.010302
      dyz     :     0.015960
      dx2y2   :     0.021052
      dxy     :     0.016142
      f0      :     0.000399  f :     0.004154
      f+1     :     0.000149
      f-1     :     0.000544
      f+2     :     0.001044
      f-2     :     0.000357
      f+3     :     0.000945
      f-3     :     0.000716
  7 H s       :     0.664958  s :     0.664958
      pz      :     0.052025  p :     0.144126
      px      :     0.063670
      py      :     0.028431
  8 C s       :     2.861243  s :     2.861243
      pz      :     1.081700  p :     2.993219
      px      :     1.084297
      py      :     0.827222
      dz2     :     0.071979  d :     0.427880
      dxz     :     0.034941
      dyz     :     0.106807
      dx2y2   :     0.091726
      dxy     :     0.122427
      f0      :     0.007609  f :     0.058258
      f+1     :     0.001631
      f-1     :     0.007452
      f+2     :     0.011799
      f-2     :     0.004404
      f+3     :     0.011570
      f-3     :     0.013792
  9 H s       :     0.840333  s :     0.840333
      pz      :     0.021125  p :     0.058610
      px      :     0.027594
      py      :     0.009891
 10 H s       :     0.853697  s :     0.853697
      pz      :     0.013767  p :     0.058445
      px      :     0.028995
      py      :     0.015683
 11 H s       :     0.854301  s :     0.854301
      pz      :     0.035746  p :     0.058156
      px      :     0.013750
      py      :     0.008661
 12 O s       :     3.393275  s :     3.393275
      pz      :     1.741796  p :     4.660627
      px      :     1.376224
      py      :     1.542606
      dz2     :     0.008985  d :     0.069071
      dxz     :     0.016806
      dyz     :     0.004211
      dx2y2   :     0.015689
      dxy     :     0.023379
      f0      :     0.000348  f :     0.004152
      f+1     :     0.000733
      f-1     :     0.000113
      f+2     :     0.000712
      f-2     :     0.000608
      f+3     :     0.000996
      f-3     :     0.000643
 13 H s       :     0.665475  s :     0.665475
      pz      :     0.041336  p :     0.143752
      px      :     0.036028
      py      :     0.066388
 14 C s       :     2.861538  s :     2.861538
      pz      :     1.047934  p :     2.993450
      px      :     0.851881
      py      :     1.093635
      dz2     :     0.107604  d :     0.426923
      dxz     :     0.098960
      dyz     :     0.018511
      dx2y2   :     0.070634
      dxy     :     0.131213
      f0      :     0.006215  f :     0.057993
      f+1     :     0.011289
      f-1     :     0.000859
      f+2     :     0.012238
      f-2     :     0.007571
      f+3     :     0.010020
      f-3     :     0.009801
 15 H s       :     0.840130  s :     0.840130
      pz      :     0.012864  p :     0.058655
      px      :     0.014385
      py      :     0.031407
 16 H s       :     0.854085  s :     0.854085
      pz      :     0.015628  p :     0.058378
      px      :     0.015349
      py      :     0.027401
 17 H s       :     0.854182  s :     0.854182
      pz      :     0.037953  p :     0.058314
      px      :     0.007866
      py      :     0.012495


                      *****************************
                      * MAYER POPULATION ANALYSIS *
                      *****************************

  NA   - Mulliken gross atomic population
  ZA   - Total nuclear charge
  QA   - Mulliken gross atomic charge
  VA   - Mayer's total valence
  BVA  - Mayer's bonded valence
  FA   - Mayer's free valence

  ATOM       NA         ZA         QA         VA         BVA        FA
  0 O      8.5481     8.0000    -0.5481     1.7918     1.7918    -0.0000
  1 H      0.6689     1.0000     0.3311     0.8975     0.8975    -0.0000
  2 C      6.0760     6.0000    -0.0760     3.8991     3.8991     0.0000
  3 H      0.8923     1.0000     0.1077     0.9620     0.9620    -0.0000
  4 H      0.9088     1.0000     0.0912     0.9606     0.9606    -0.0000
  5 H      0.9059     1.0000     0.0941     0.9619     0.9619    -0.0000
  6 O      8.5474     8.0000    -0.5474     1.7924     1.7924    -0.0000
  7 H      0.6675     1.0000     0.3325     0.8966     0.8966    -0.0000
  8 C      6.0727     6.0000    -0.0727     3.9018     3.9018    -0.0000
  9 H      0.8928     1.0000     0.1072     0.9616     0.9616    -0.0000
 10 H      0.9091     1.0000     0.0909     0.9618     0.9618    -0.0000
 11 H      0.9105     1.0000     0.0895     0.9603     0.9603    -0.0000
 12 O      8.5440     8.0000    -0.5440     1.7951     1.7951     0.0000
 13 H      0.6693     1.0000     0.3307     0.8976     0.8976     0.0000
 14 C      6.0744     6.0000    -0.0744     3.9024     3.9024     0.0000
 15 H      0.8922     1.0000     0.1078     0.9621     0.9621    -0.0000
 16 H      0.9101     1.0000     0.0899     0.9608     0.9608    -0.0000
 17 H      0.9100     1.0000     0.0900     0.9608     0.9608     0.0000

  Mayer bond orders larger than 0.100000
B(  0-O ,  1-H ) :   0.8872 B(  0-O ,  2-C ) :   0.9323 B(  2-C ,  3-H ) :   0.9833 
B(  2-C ,  4-H ) :   0.9876 B(  2-C ,  5-H ) :   0.9882 B(  6-O ,  7-H ) :   0.8851 
B(  6-O ,  8-C ) :   0.9346 B(  8-C ,  9-H ) :   0.9831 B(  8-C , 10-H ) :   0.9889 
B(  8-C , 11-H ) :   0.9867 B( 12-O , 13-H ) :   0.8865 B( 12-O , 14-C ) :   0.9356 
B( 14-C , 15-H ) :   0.9832 B( 14-C , 16-H ) :   0.9880 B( 14-C , 17-H ) :   0.9873 


-------
TIMINGS
-------

Total SCF time: 0 days 0 hours 0 min 7 sec 

Total time                  ....       7.768 sec
Sum of individual times     ....       7.517 sec  ( 96.8%)

Fock matrix formation       ....       7.175 sec  ( 92.4%)
Diagonalization             ....       0.072 sec  (  0.9%)
Density matrix formation    ....       0.008 sec  (  0.1%)
Population analysis         ....       0.024 sec  (  0.3%)
Initial guess               ....       0.128 sec  (  1.7%)
Orbital Transformation      ....       0.000 sec  (  0.0%)
Orbital Orthonormalization  ....       0.000 sec  (  0.0%)
DIIS solution               ....       0.026 sec  (  0.3%)
SOSCF solution              ....       0.031 sec  (  0.4%)


           ************************************************************
           *        Program running with 6 parallel MPI-processes     *
           *              working on a common directory               *
           ************************************************************

------------------------------------------------------------------------------
                                ORCA  MP2 
------------------------------------------------------------------------------

Freezing NCore=12 chemical core electrons
MP2 will be done in the AO integral direct mode
The Q1-step will be done using symmetric double matrices
Dimension of the basis                    ...  258
Memory devoted for MP2                    ... 8000 MB   
Memory needed for all in one shot         ...  264 MB
Number of MOs that can be treated together...  120      
MP2 density construction                  ... relaxed
The MP2 gradient is requested => amplitudes will be stored on disk
Total number of MOs              ...   21
Number of MOs treated per batch  ...    4 
Number of batches necessary      ...    1 
OPERATORS   0/  0 PASS   0
-----------------------------------------------
 MP2 CORRELATION ENERGY   :     -1.251285648 Eh
-----------------------------------------------


---------------------
MP2 DENSITY FORMATION
---------------------

Completing the external part of the density      ... done
Storing the unrelaxed density                    ... done

Calculating G(D)                                 ... done
Completing the Lagrangian                        ... done
Solving the Z-vector equations                   ... 

------------------------------------------------------------------------------
                           ORCA CP-SCF CALCULATION
------------------------------------------------------------------------------

Input orbitals are from        ... 12meoh.boyd.etal.mol7,9,10-orca.engrad-mp2.def2tzvp.frozencore.gbw
Input Perturbation             ... 12meoh.boyd.etal.mol7,9,10-orca.engrad-mp2.def2tzvp.frozencore.pin.tmp
Wavefunction output            ... 12meoh.boyd.etal.mol7,9,10-orca.engrad-mp2.def2tzvp.frozencore.pout.tmp
Perturbation mode              ... Real perturbation (singlet)
Solver                         ... POPLE
Max. number of iterations      ... 128
Convergence tolerance          ... 1.000e-08
Integral handling              ... Direct
Number of perturbations        ... 1
Number of operators            ... 1
Orbital ranges used for CP-SCF:
 Operator 0:  Orbitals   0... 26  to  27...257
Variables per vector in CP-SCF ... 6237
Number of vectors sought       ... 1
     CP-SCF ITERATION   0: 
     CP-SCF ITERATION   1:      0.000355476296
     CP-SCF ITERATION   2:      0.000016402704
     CP-SCF ITERATION   3:      0.000002220569
     CP-SCF ITERATION   4:      0.000000151322
     CP-SCF ITERATION   5:      0.000000004601
                                                 ... done
Finalizing the relaxed density                   ... done
Transforming P to the AO basis                   ... done
Storing the relaxed density                      ... done

------------------------------------
ENERGY WEIGHTED DENSITY FINALIZATION
------------------------------------

Gathering the parts of the W-matrix              ...                                                      done
Forming the Z-density                            ... done
Transforming Z to the AO basis                   ... done
Calculating G(Z)                                 ... done
Finalizing the W-matrix                          ...                                                      done
Transforming W to the AO basis and storing       ... done

                *********************************************
                * UNRELAXED MP2 DENSITY POPULATION ANALYSIS *
                *********************************************

------------------------------------------------------------------------------
                           ORCA POPULATION ANALYSIS
------------------------------------------------------------------------------
Input electron density              ... 12meoh.boyd.etal.mol7,9,10-orca.engrad-mp2.def2tzvp.frozencore.pmp2ur
BaseName (.gbw .S,...)              ... 12meoh.boyd.etal.mol7,9,10-orca.engrad-mp2.def2tzvp.frozencore

                    ********************************
                    * MULLIKEN POPULATION ANALYSIS *
                    ********************************

-----------------------
MULLIKEN ATOMIC CHARGES
-----------------------
   0 O :   -0.537053
   1 H :    0.328456
   2 C :   -0.091968
   3 H :    0.110445
   4 H :    0.093652
   5 H :    0.096481
   6 O :   -0.536500
   7 H :    0.329822
   8 C :   -0.088614
   9 H :    0.110025
  10 H :    0.093334
  11 H :    0.091920
  12 O :   -0.533023
  13 H :    0.327988
  14 C :   -0.090316
  15 H :    0.110607
  16 H :    0.092295
  17 H :    0.092449
Sum of atomic charges:   -0.0000000

--------------------------------
MULLIKEN REDUCED ORBITAL CHARGES
--------------------------------
  0 O s       :     3.799600  s :     3.799600
      pz      :     1.437209  p :     4.673241
      px      :     1.777041
      py      :     1.458991
      dz2     :     0.012714  d :     0.059825
      dxz     :     0.012406
      dyz     :     0.010799
      dx2y2   :     0.014563
      dxy     :     0.009342
      f0      :     0.000546  f :     0.004388
      f+1     :     0.000933
      f-1     :     0.000513
      f+2     :     0.000766
      f-2     :     0.000471
      f+3     :     0.000526
      f-3     :     0.000633
  1 H s       :     0.626907  s :     0.626907
      pz      :     0.018264  p :     0.044637
      px      :     0.016242
      py      :     0.010132
  2 C s       :     3.192770  s :     3.192770
      pz      :     0.998462  p :     2.751628
      px      :     1.031175
      py      :     0.721991
      dz2     :     0.031985  d :     0.135328
      dxz     :     0.016991
      dyz     :     0.026434
      dx2y2   :     0.021340
      dxy     :     0.038578
      f0      :     0.001271  f :     0.012243
      f+1     :     0.001145
      f-1     :     0.002223
      f+2     :     0.001615
      f-2     :     0.001692
      f+3     :     0.002226
      f-3     :     0.002069
  3 H s       :     0.865326  s :     0.865326
      pz      :     0.014466  p :     0.024229
      px      :     0.006268
      py      :     0.003494
  4 H s       :     0.882921  s :     0.882921
      pz      :     0.006954  p :     0.023427
      px      :     0.008520
      py      :     0.007954
  5 H s       :     0.880339  s :     0.880339
      pz      :     0.004322  p :     0.023180
      px      :     0.013596
      py      :     0.005262
  6 O s       :     3.798411  s :     3.798411
      pz      :     1.734516  p :     4.673799
      px      :     1.584005
      py      :     1.355279
      dz2     :     0.008798  d :     0.059879
      dxz     :     0.013050
      dyz     :     0.011382
      dx2y2   :     0.017047
      dxy     :     0.009602
      f0      :     0.000615  f :     0.004411
      f+1     :     0.000496
      f-1     :     0.000608
      f+2     :     0.000733
      f-2     :     0.000577
      f+3     :     0.000629
      f-3     :     0.000752
  7 H s       :     0.625720  s :     0.625720
      pz      :     0.015569  p :     0.044458
      px      :     0.017530
      py      :     0.011358
  8 C s       :     3.190547  s :     3.190547
      pz      :     1.026643  p :     2.749539
      px      :     1.041908
      py      :     0.680988
      dz2     :     0.022601  d :     0.136196
      dxz     :     0.015086
      dyz     :     0.034872
      dx2y2   :     0.023149
      dxy     :     0.040489
      f0      :     0.002006  f :     0.012332
      f+1     :     0.001066
      f-1     :     0.001554
      f+2     :     0.002015
      f-2     :     0.000900
      f+3     :     0.002361
      f-3     :     0.002430
  9 H s       :     0.865758  s :     0.865758
      pz      :     0.008355  p :     0.024217
      px      :     0.011208
      py      :     0.004654
 10 H s       :     0.883386  s :     0.883386
      pz      :     0.005242  p :     0.023280
      px      :     0.011426
      py      :     0.006612
 11 H s       :     0.884856  s :     0.884856
      pz      :     0.014276  p :     0.023224
      px      :     0.005210
      py      :     0.003738
 12 O s       :     3.799790  s :     3.799790
      pz      :     1.791803  p :     4.668887
      px      :     1.320379
      py      :     1.556705
      dz2     :     0.009344  d :     0.059947
      dxz     :     0.013179
      dyz     :     0.009517
      dx2y2   :     0.013932
      dxy     :     0.013976
      f0      :     0.000655  f :     0.004399
      f+1     :     0.000628
      f-1     :     0.000479
      f+2     :     0.000670
      f-2     :     0.000587
      f+3     :     0.000851
      f-3     :     0.000530
 13 H s       :     0.627588  s :     0.627588
      pz      :     0.014152  p :     0.044424
      px      :     0.013361
      py      :     0.016911
 14 C s       :     3.190837  s :     3.190837
      pz      :     0.974258  p :     2.751023
      px      :     0.724537
      py      :     1.052228
      dz2     :     0.032376  d :     0.136152
      dxz     :     0.028118
      dyz     :     0.011133
      dx2y2   :     0.020078
      dxy     :     0.044447
      f0      :     0.002034  f :     0.012304
      f+1     :     0.002356
      f-1     :     0.000714
      f+2     :     0.001690
      f-2     :     0.001293
      f+3     :     0.002153
      f-3     :     0.002063
 15 H s       :     0.865159  s :     0.865159
      pz      :     0.005047  p :     0.024234
      px      :     0.006591
      py      :     0.012597
 16 H s       :     0.884375  s :     0.884375
      pz      :     0.006121  p :     0.023330
      px      :     0.006429
      py      :     0.010780
 17 H s       :     0.884387  s :     0.884387
      pz      :     0.015271  p :     0.023164
      px      :     0.003240
      py      :     0.004653


                     *******************************
                     * LOEWDIN POPULATION ANALYSIS *
                     *******************************

----------------------
LOEWDIN ATOMIC CHARGES
----------------------
   0 O :   -0.123700
   1 H :    0.187404
   2 C :   -0.346083
   3 H :    0.102603
   4 H :    0.089655
   5 H :    0.090126
   6 O :   -0.119112
   7 H :    0.189088
   8 C :   -0.351108
   9 H :    0.102814
  10 H :    0.089316
  11 H :    0.088995
  12 O :   -0.119386
  13 H :    0.188922
  14 C :   -0.350461
  15 H :    0.102973
  16 H :    0.088987
  17 H :    0.088965

-------------------------------
LOEWDIN REDUCED ORBITAL CHARGES
-------------------------------
  0 O s       :     3.391367  s :     3.391367
      pz      :     1.416704  p :     4.628240
      px      :     1.698460
      py      :     1.513076
      dz2     :     0.021542  d :     0.097062
      dxz     :     0.018335
      dyz     :     0.019102
      dx2y2   :     0.021942
      dxy     :     0.016140
      f0      :     0.000689  f :     0.007031
      f+1     :     0.001268
      f-1     :     0.001136
      f+2     :     0.001243
      f-2     :     0.000683
      f+3     :     0.001043
      f-3     :     0.000970
  1 H s       :     0.664096  s :     0.664096
      pz      :     0.067838  p :     0.148500
      px      :     0.051840
      py      :     0.028822
  2 C s       :     2.861368  s :     2.861368
      pz      :     1.041037  p :     2.978808
      px      :     1.077683
      py      :     0.860088
      dz2     :     0.092509  d :     0.443667
      dxz     :     0.042197
      dyz     :     0.089771
      dx2y2   :     0.089877
      dxy     :     0.129312
      f0      :     0.005370  f :     0.062241
      f+1     :     0.003256
      f-1     :     0.012313
      f+2     :     0.009961
      f-2     :     0.009279
      f+3     :     0.011196
      f-3     :     0.010866
  3 H s       :     0.833647  s :     0.833647
      pz      :     0.037217  p :     0.063750
      px      :     0.017177
      py      :     0.009355
  4 H s       :     0.846671  s :     0.846671
      pz      :     0.019719  p :     0.063674
      px      :     0.023228
      py      :     0.020727
  5 H s       :     0.845973  s :     0.845973
      pz      :     0.013022  p :     0.063900
      px      :     0.036611
      py      :     0.014267
  6 O s       :     3.387670  s :     3.387670
      pz      :     1.673987  p :     4.626535
      px      :     1.539501
      py      :     1.413047
      dz2     :     0.011490  d :     0.097837
      dxz     :     0.016237
      dyz     :     0.021445
      dx2y2   :     0.027109
      dxy     :     0.021557
      f0      :     0.000804  f :     0.007069
      f+1     :     0.000533
      f-1     :     0.000960
      f+2     :     0.001471
      f-2     :     0.000762
      f+3     :     0.001360
      f-3     :     0.001178
  7 H s       :     0.663250  s :     0.663250
      pz      :     0.053231  p :     0.147662
      px      :     0.065137
      py      :     0.029294
  8 C s       :     2.860105  s :     2.860105
      pz      :     1.075410  p :     2.979348
      px      :     1.077922
      py      :     0.826016
      dz2     :     0.076422  d :     0.448514
      dxz     :     0.040194
      dyz     :     0.110447
      dx2y2   :     0.095807
      dxy     :     0.125643
      f0      :     0.008338  f :     0.063141
      f+1     :     0.002327
      f-1     :     0.008222
      f+2     :     0.012341
      f-2     :     0.005072
      f+3     :     0.012144
      f-3     :     0.014698
  9 H s       :     0.833563  s :     0.833563
      pz      :     0.022732  p :     0.063623
      px      :     0.029519
      py      :     0.011372
 10 H s       :     0.846991  s :     0.846991
      pz      :     0.015079  p :     0.063693
      px      :     0.031104
      py      :     0.017510
 11 H s       :     0.847614  s :     0.847614
      pz      :     0.038199  p :     0.063392
      px      :     0.015062
      py      :     0.010131
 12 O s       :     3.389823  s :     3.389823
      pz      :     1.728577  p :     4.624785
      px      :     1.364797
      py      :     1.531411
      dz2     :     0.014745  d :     0.097714
      dxz     :     0.022656
      dyz     :     0.009906
      dx2y2   :     0.021553
      dxy     :     0.028854
      f0      :     0.000759  f :     0.007064
      f+1     :     0.001137
      f-1     :     0.000495
      f+2     :     0.001143
      f-2     :     0.001014
      f+3     :     0.001461
      f-3     :     0.001055
 13 H s       :     0.663765  s :     0.663765
      pz      :     0.042320  p :     0.147313
      px      :     0.037022
      py      :     0.067972
 14 C s       :     2.860402  s :     2.860402
      pz      :     1.042323  p :     2.979591
      px      :     0.850215
      py      :     1.087054
      dz2     :     0.111548  d :     0.447591
      dxz     :     0.102851
      dyz     :     0.023730
      dx2y2   :     0.074863
      dxy     :     0.134599
      f0      :     0.007166  f :     0.062877
      f+1     :     0.011838
      f-1     :     0.001519
      f+2     :     0.012857
      f-2     :     0.008174
      f+3     :     0.010941
      f-3     :     0.010383
 15 H s       :     0.833361  s :     0.833361
      pz      :     0.014149  p :     0.063666
      px      :     0.016051
      py      :     0.033466
 16 H s       :     0.847386  s :     0.847386
      pz      :     0.017070  p :     0.063628
      px      :     0.017111
      py      :     0.029446
 17 H s       :     0.847482  s :     0.847482
      pz      :     0.040549  p :     0.063553
      px      :     0.009243
      py      :     0.013760


                      *****************************
                      * MAYER POPULATION ANALYSIS *
                      *****************************

  NA   - Mulliken gross atomic population
  ZA   - Total nuclear charge
  QA   - Mulliken gross atomic charge
  VA   - Mayer's total valence
  BVA  - Mayer's bonded valence
  FA   - Mayer's free valence

  ATOM       NA         ZA         QA         VA         BVA        FA
  0 O      8.5371     8.0000    -0.5371     2.0907     1.6862     0.4045
  1 H      0.6715     1.0000     0.3285     0.9039     0.8513     0.0526
  2 C      6.0920     6.0000    -0.0920     4.0041     3.7258     0.2783
  3 H      0.8896     1.0000     0.1104     0.9710     0.9240     0.0470
  4 H      0.9063     1.0000     0.0937     0.9705     0.9214     0.0491
  5 H      0.9035     1.0000     0.0965     0.9717     0.9228     0.0490
  6 O      8.5365     8.0000    -0.5365     2.0910     1.6872     0.4038
  7 H      0.6702     1.0000     0.3298     0.9030     0.8504     0.0525
  8 C      6.0886     6.0000    -0.0886     4.0064     3.7286     0.2778
  9 H      0.8900     1.0000     0.1100     0.9706     0.9236     0.0470
 10 H      0.9067     1.0000     0.0933     0.9717     0.9225     0.0492
 11 H      0.9081     1.0000     0.0919     0.9703     0.9210     0.0494
 12 O      8.5330     8.0000    -0.5330     2.0932     1.6893     0.4039
 13 H      0.6720     1.0000     0.3280     0.9041     0.8513     0.0528
 14 C      6.0903     6.0000    -0.0903     4.0070     3.7289     0.2782
 15 H      0.8894     1.0000     0.1106     0.9710     0.9241     0.0470
 16 H      0.9077     1.0000     0.0923     0.9708     0.9215     0.0493
 17 H      0.9076     1.0000     0.0924     0.9709     0.9216     0.0493

  Mayer bond orders larger than 0.100000
B(  0-O ,  1-H ) :   0.8419 B(  0-O ,  2-C ) :   0.8735 B(  2-C ,  3-H ) :   0.9459 
B(  2-C ,  4-H ) :   0.9493 B(  2-C ,  5-H ) :   0.9501 B(  6-O ,  7-H ) :   0.8400 
B(  6-O ,  8-C ) :   0.8762 B(  8-C ,  9-H ) :   0.9457 B(  8-C , 10-H ) :   0.9507 
B(  8-C , 11-H ) :   0.9484 B( 12-O , 13-H ) :   0.8411 B( 12-O , 14-C ) :   0.8768 
B( 14-C , 15-H ) :   0.9458 B( 14-C , 16-H ) :   0.9497 B( 14-C , 17-H ) :   0.9490 



                *******************************************
                * RELAXED MP2 DENSITY POPULATION ANALYSIS *
                *******************************************

------------------------------------------------------------------------------
                           ORCA POPULATION ANALYSIS
------------------------------------------------------------------------------
Input electron density              ... 12meoh.boyd.etal.mol7,9,10-orca.engrad-mp2.def2tzvp.frozencore.pmp2re
BaseName (.gbw .S,...)              ... 12meoh.boyd.etal.mol7,9,10-orca.engrad-mp2.def2tzvp.frozencore

                    ********************************
                    * MULLIKEN POPULATION ANALYSIS *
                    ********************************

-----------------------
MULLIKEN ATOMIC CHARGES
-----------------------
   0 O :   -0.499620
   1 H :    0.322955
   2 C :   -0.174040
   3 H :    0.128510
   4 H :    0.109823
   5 H :    0.112390
   6 O :   -0.499160
   7 H :    0.324294
   8 C :   -0.170726
   9 H :    0.128190
  10 H :    0.109546
  11 H :    0.107837
  12 O :   -0.495715
  13 H :    0.322665
  14 C :   -0.172455
  15 H :    0.128691
  16 H :    0.108440
  17 H :    0.108374
Sum of atomic charges:   -0.0000000

--------------------------------
MULLIKEN REDUCED ORBITAL CHARGES
--------------------------------
  0 O s       :     3.801168  s :     3.801168
      pz      :     1.425285  p :     4.636422
      px      :     1.763197
      py      :     1.447939
      dz2     :     0.012195  d :     0.057699
      dxz     :     0.011694
      dyz     :     0.010447
      dx2y2   :     0.013649
      dxy     :     0.009713
      f0      :     0.000535  f :     0.004332
      f+1     :     0.000907
      f-1     :     0.000519
      f+2     :     0.000746
      f-2     :     0.000476
      f+3     :     0.000533
      f-3     :     0.000616
  1 H s       :     0.631816  s :     0.631816
      pz      :     0.017650  p :     0.045229
      px      :     0.016815
      py      :     0.010764
  2 C s       :     3.214821  s :     3.214821
      pz      :     1.022755  p :     2.821609
      px      :     1.058815
      py      :     0.740039
      dz2     :     0.030402  d :     0.125919
      dxz     :     0.015690
      dyz     :     0.023808
      dx2y2   :     0.019606
      dxy     :     0.036413
      f0      :     0.001192  f :     0.011690
      f+1     :     0.001074
      f-1     :     0.002169
      f+2     :     0.001532
      f-2     :     0.001593
      f+3     :     0.002147
      f-3     :     0.001984
  3 H s       :     0.848413  s :     0.848413
      pz      :     0.013130  p :     0.023077
      px      :     0.006262
      py      :     0.003686
  4 H s       :     0.867842  s :     0.867842
      pz      :     0.006718  p :     0.022335
      px      :     0.008103
      py      :     0.007514
  5 H s       :     0.865552  s :     0.865552
      pz      :     0.004536  p :     0.022058
      px      :     0.012320
      py      :     0.005201
  6 O s       :     3.799611  s :     3.799611
      pz      :     1.719256  p :     4.637431
      px      :     1.569785
      py      :     1.348390
      dz2     :     0.008669  d :     0.057763
      dxz     :     0.012282
      dyz     :     0.011423
      dx2y2   :     0.015493
      dxy     :     0.009897
      f0      :     0.000608  f :     0.004355
      f+1     :     0.000495
      f-1     :     0.000600
      f+2     :     0.000721
      f-2     :     0.000571
      f+3     :     0.000634
      f-3     :     0.000726
  7 H s       :     0.630685  s :     0.630685
      pz      :     0.016070  p :     0.045021
      px      :     0.017301
      py      :     0.011650
  8 C s       :     3.212573  s :     3.212573
      pz      :     1.054539  p :     2.819760
      px      :     1.068793
      py      :     0.696428
      dz2     :     0.017953  d :     0.126619
      dxz     :     0.012785
      dyz     :     0.036120
      dx2y2   :     0.021468
      dxy     :     0.038293
      f0      :     0.001894  f :     0.011773
      f+1     :     0.001023
      f-1     :     0.001492
      f+2     :     0.001954
      f-2     :     0.000846
      f+3     :     0.002274
      f-3     :     0.002291
  9 H s       :     0.848749  s :     0.848749
      pz      :     0.007993  p :     0.023061
      px      :     0.010409
      py      :     0.004659
 10 H s       :     0.868278  s :     0.868278
      pz      :     0.005371  p :     0.022175
      px      :     0.010490
      py      :     0.006315
 11 H s       :     0.870040  s :     0.870040
      pz      :     0.012887  p :     0.022123
      px      :     0.005332
      py      :     0.003904
 12 O s       :     3.801297  s :     3.801297
      pz      :     1.777814  p :     4.632265
      px      :     1.314001
      py      :     1.540450
      dz2     :     0.009416  d :     0.057810
      dxz     :     0.012570
      dyz     :     0.009359
      dx2y2   :     0.012809
      dxy     :     0.013656
      f0      :     0.000642  f :     0.004343
      f+1     :     0.000634
      f-1     :     0.000477
      f+2     :     0.000650
      f-2     :     0.000582
      f+3     :     0.000821
      f-3     :     0.000535
 13 H s       :     0.632337  s :     0.632337
      pz      :     0.015077  p :     0.044999
      px      :     0.013316
      py      :     0.016606
 14 C s       :     3.212829  s :     3.212829
      pz      :     1.000854  p :     2.821260
      px      :     0.740795
      py      :     1.079611
      dz2     :     0.026981  d :     0.126620
      dxz     :     0.028795
      dyz     :     0.010383
      dx2y2   :     0.017913
      dxy     :     0.042548
      f0      :     0.001892  f :     0.011747
      f+1     :     0.002291
      f-1     :     0.000697
      f+2     :     0.001628
      f-2     :     0.001221
      f+3     :     0.001976
      f-3     :     0.002042
 15 H s       :     0.848232  s :     0.848232
      pz      :     0.005187  p :     0.023077
      px      :     0.006335
      py      :     0.011555
 16 H s       :     0.869327  s :     0.869327
      pz      :     0.006080  p :     0.022232
      px      :     0.006185
      py      :     0.009967
 17 H s       :     0.869572  s :     0.869572
      pz      :     0.013691  p :     0.022054
      px      :     0.003492
      py      :     0.004870


                     *******************************
                     * LOEWDIN POPULATION ANALYSIS *
                     *******************************

----------------------
LOEWDIN ATOMIC CHARGES
----------------------
   0 O :   -0.110736
   1 H :    0.189965
   2 C :   -0.380967
   3 H :    0.109818
   4 H :    0.095602
   5 H :    0.096328
   6 O :   -0.106337
   7 H :    0.191601
   8 C :   -0.385878
   9 H :    0.110108
  10 H :    0.095464
  11 H :    0.095033
  12 O :   -0.106534
  13 H :    0.191531
  14 C :   -0.385321
  15 H :    0.110229
  16 H :    0.095004
  17 H :    0.095091

-------------------------------
LOEWDIN REDUCED ORBITAL CHARGES
-------------------------------
  0 O s       :     3.394291  s :     3.394291
      pz      :     1.416800  p :     4.612759
      px      :     1.691344
      py      :     1.504616
      dz2     :     0.021324  d :     0.096544
      dxz     :     0.018046
      dyz     :     0.019019
      dx2y2   :     0.021511
      dxy     :     0.016644
      f0      :     0.000700  f :     0.007142
      f+1     :     0.001279
      f-1     :     0.001153
      f+2     :     0.001270
      f-2     :     0.000693
      f+3     :     0.001061
      f-3     :     0.000985
  1 H s       :     0.660919  s :     0.660919
      pz      :     0.067281  p :     0.149116
      px      :     0.052462
      py      :     0.029373
  2 C s       :     2.867296  s :     2.867296
      pz      :     1.055143  p :     3.018747
      px      :     1.093640
      py      :     0.869965
      dz2     :     0.090468  d :     0.434211
      dxz     :     0.040266
      dyz     :     0.086691
      dx2y2   :     0.087101
      dxy     :     0.129684
      f0      :     0.005243  f :     0.060713
      f+1     :     0.003175
      f-1     :     0.011997
      f+2     :     0.009784
      f-2     :     0.009076
      f+3     :     0.010733
      f-3     :     0.010705
  3 H s       :     0.826073  s :     0.826073
      pz      :     0.036794  p :     0.064109
      px      :     0.017512
      py      :     0.009803
  4 H s       :     0.839984  s :     0.839984
      pz      :     0.019946  p :     0.064414
      px      :     0.023347
      py      :     0.021121
  5 H s       :     0.839043  s :     0.839043
      pz      :     0.013535  p :     0.064628
      px      :     0.036274
      py      :     0.014819
  6 O s       :     3.390546  s :     3.390546
      pz      :     1.666148  p :     4.611280
      px      :     1.536255
      py      :     1.408876
      dz2     :     0.011409  d :     0.097329
      dxz     :     0.015926
      dyz     :     0.021787
      dx2y2   :     0.026288
      dxy     :     0.021919
      f0      :     0.000820  f :     0.007182
      f+1     :     0.000535
      f-1     :     0.000975
      f+2     :     0.001488
      f-2     :     0.000772
      f+3     :     0.001386
      f-3     :     0.001207
  7 H s       :     0.660141  s :     0.660141
      pz      :     0.053893  p :     0.148258
      px      :     0.065092
      py      :     0.029274
  8 C s       :     2.865996  s :     2.865996
      pz      :     1.091151  p :     3.019232
      px      :     1.093342
      py      :     0.834739
      dz2     :     0.072485  d :     0.439068
      dxz     :     0.037715
      dyz     :     0.111895
      dx2y2   :     0.092756
      dxy     :     0.124218
      f0      :     0.008130  f :     0.061582
      f+1     :     0.002251
      f-1     :     0.007958
      f+2     :     0.012100
      f-2     :     0.004957
      f+3     :     0.011682
      f-3     :     0.014504
  9 H s       :     0.825910  s :     0.825910
      pz      :     0.022844  p :     0.063982
      px      :     0.029391
      py      :     0.011747
 10 H s       :     0.840083  s :     0.840083
      pz      :     0.015475  p :     0.064453
      px      :     0.030957
      py      :     0.018021
 11 H s       :     0.840833  s :     0.840833
      pz      :     0.037886  p :     0.064134
      px      :     0.015481
      py      :     0.010768
 12 O s       :     3.392756  s :     3.392756
      pz      :     1.718957  p :     4.609421
      px      :     1.363376
      py      :     1.527087
      dz2     :     0.014846  d :     0.097181
      dxz     :     0.022556
      dyz     :     0.009993
      dx2y2   :     0.020992
      dxy     :     0.028794
      f0      :     0.000772  f :     0.007176
      f+1     :     0.001159
      f-1     :     0.000497
      f+2     :     0.001160
      f-2     :     0.001027
      f+3     :     0.001492
      f-3     :     0.001069
 13 H s       :     0.660528  s :     0.660528
      pz      :     0.043262  p :     0.147941
      px      :     0.036627
      py      :     0.068052
 14 C s       :     2.866295  s :     2.866295
      pz      :     1.057454  p :     3.019484
      px      :     0.859662
      py      :     1.102368
      dz2     :     0.108194  d :     0.438212
      dxz     :     0.103023
      dyz     :     0.022124
      dx2y2   :     0.071551
      dxy     :     0.133319
      f0      :     0.007013  f :     0.061330
      f+1     :     0.011315
      f-1     :     0.001481
      f+2     :     0.012705
      f-2     :     0.008079
      f+3     :     0.010708
      f-3     :     0.010029
 15 H s       :     0.825753  s :     0.825753
      pz      :     0.014568  p :     0.064018
      px      :     0.016283
      py      :     0.033167
 16 H s       :     0.840610  s :     0.840610
      pz      :     0.017358  p :     0.064386
      px      :     0.017615
      py      :     0.029414
 17 H s       :     0.840611  s :     0.840611
      pz      :     0.040201  p :     0.064298
      px      :     0.009881
      py      :     0.014215


                      *****************************
                      * MAYER POPULATION ANALYSIS *
                      *****************************

  NA   - Mulliken gross atomic population
  ZA   - Total nuclear charge
  QA   - Mulliken gross atomic charge
  VA   - Mayer's total valence
  BVA  - Mayer's bonded valence
  FA   - Mayer's free valence

  ATOM       NA         ZA         QA         VA         BVA        FA
  0 O      8.4996     8.0000    -0.4996     2.1449     1.7469     0.3980
  1 H      0.6770     1.0000     0.3230     0.9065     0.8537     0.0527
  2 C      6.1740     6.0000    -0.1740     4.0262     3.7501     0.2760
  3 H      0.8715     1.0000     0.1285     0.9624     0.9160     0.0464
  4 H      0.8902     1.0000     0.1098     0.9623     0.9138     0.0485
  5 H      0.8876     1.0000     0.1124     0.9654     0.9170     0.0484
  6 O      8.4992     8.0000    -0.4992     2.1458     1.7485     0.3973
  7 H      0.6757     1.0000     0.3243     0.9056     0.8529     0.0526
  8 C      6.1707     6.0000    -0.1707     4.0279     3.7523     0.2756
  9 H      0.8718     1.0000     0.1282     0.9621     0.9157     0.0464
 10 H      0.8905     1.0000     0.1095     0.9647     0.9161     0.0486
 11 H      0.8922     1.0000     0.1078     0.9628     0.9141     0.0487
 12 O      8.4957     8.0000    -0.4957     2.1477     1.7503     0.3974
 13 H      0.6773     1.0000     0.3227     0.9065     0.8536     0.0529
 14 C      6.1725     6.0000    -0.1725     4.0286     3.7526     0.2759
 15 H      0.8713     1.0000     0.1287     0.9625     0.9161     0.0464
 16 H      0.8916     1.0000     0.1084     0.9632     0.9145     0.0487
 17 H      0.8916     1.0000     0.1084     0.9639     0.9152     0.0487

  Mayer bond orders larger than 0.100000
B(  0-O ,  1-H ) :   0.8423 B(  0-O ,  2-C ) :   0.9253 B(  2-C ,  3-H ) :   0.9378 
B(  2-C ,  4-H ) :   0.9384 B(  2-C ,  5-H ) :   0.9402 B(  6-O ,  7-H ) :   0.8404 
B(  6-O ,  8-C ) :   0.9280 B(  8-C ,  9-H ) :   0.9375 B(  8-C , 10-H ) :   0.9403 
B(  8-C , 11-H ) :   0.9375 B( 12-O , 13-H ) :   0.8414 B( 12-O , 14-C ) :   0.9286 
B( 14-C , 15-H ) :   0.9377 B( 14-C , 16-H ) :   0.9389 B( 14-C , 17-H ) :   0.9385 



----------------------------------
MP2 DERIVATIVE INTEGRAL GENERATION
----------------------------------


Input Wavefunction Amplitudes       ... 12meoh.boyd.etal.mol7,9,10-orca.engrad-mp2.def2tzvp.frozencore.mp2tsaa.tmp
Input Correlated Electron Density   ... 12meoh.boyd.etal.mol7,9,10-orca.engrad-mp2.def2tzvp.frozencore.pmp2re
Input Energy Weighted Density       ... 12meoh.boyd.etal.mol7,9,10-orca.engrad-mp2.def2tzvp.frozencore.wmp2.tmp
Input SCF Electron Density          ... 12meoh.boyd.etal.mol7,9,10-orca.engrad-mp2.def2tzvp.frozencore.scfp

One-Electron Terms    ...
                        ... One-Electron Terms done
Prescreening matrices              ... done

Batch handling in the gradient evaluation:
Memory available                      ... 8000.0 MB
Memory per occupied orbital in Q2     ...   10.7 MB
Memory per occupied orbital in Q3     ...    0.1 MB
Total memory requirement per |i>      ...   10.8 MB
Max. Number of orbitals possible      ...    743
Number of orbitals treated per batch  ...     21
Number of batches to be done          ...      1
Batch   0: i=    6 ...    26

---------------------------------------
MP2 TOTAL ENERGY:     -346.520357381 Eh
---------------------------------------

The final MP2 gradient
  0:   0.01389572   0.00076716   0.01931368
  1:  -0.01420387   0.00014112  -0.02301303
  2:  -0.00074122   0.00325141   0.00316163
  3:   0.00197437  -0.00172330   0.00394083
  4:   0.00235863  -0.00115481  -0.00222379
  5:  -0.00317386  -0.00140973  -0.00108591
  6:  -0.01824737   0.01082238  -0.01324005
  7:   0.02200600  -0.01123768   0.01452385
  8:  -0.00353173  -0.00488317  -0.00319039
  9:  -0.00305431   0.00324490  -0.00179591
 10:   0.00323631   0.00053822  -0.00044516
 11:  -0.00049163   0.00160640   0.00403083
 12:  -0.01488005  -0.01953151  -0.00801150
 13:   0.01633697   0.02280831   0.00777415
 14:   0.00338932  -0.00461997  -0.00170391
 15:  -0.00376705  -0.00287331  -0.00032968
 16:  -0.00066891   0.00282553  -0.00147746
 17:  -0.00043730   0.00142804   0.00377183

-----------------------------------
NORM OF THE MP2 GRADIENT:  0.067180
-----------------------------------

-------------------------   --------------------
FINAL SINGLE POINT ENERGY      -346.520357381417
-------------------------   --------------------


                            ***************************************
                            *     ORCA property calculations      *
                            ***************************************

                                    ---------------------
                                    Active property flags
                                    ---------------------
   (+) Dipole Moment


------------------------------------------------------------------------------
                       ORCA ELECTRIC PROPERTIES CALCULATION
------------------------------------------------------------------------------

Dipole Moment Calculation                       ... on
Quadrupole Moment Calculation                   ... off
Polarizability Calculation                      ... off
GBWName                                         ... 12meoh.boyd.etal.mol7,9,10-orca.engrad-mp2.def2tzvp.frozencore.gbw
Electron density file                           ... 12meoh.boyd.etal.mol7,9,10-orca.engrad-mp2.def2tzvp.frozencore.scfp
The origin for moment calculation is the CENTER OF MASS  = (-0.136708,  1.119067 -0.249433)

-------------
DIPOLE MOMENT
-------------
                                X             Y             Z
Electronic contribution:      1.79333      -0.32964      -1.66501
Nuclear contribution   :     -1.93697       0.68321       2.22318
                        -----------------------------------------
Total Dipole Moment    :     -0.14364       0.35357       0.55817
                        -----------------------------------------
Magnitude (a.u.)       :      0.67617
Magnitude (Debye)      :      1.71868



--------------------
Rotational spectrum 
--------------------
 
Rotational constants in cm-1:     0.023606     0.009368     0.006770 
Rotational constants in MHz :   707.697609   280.838981   202.965995 

 Dipole components along the rotational axes: 
x,y,z [a.u.] :    -0.171165     0.107895     0.645183 
x,y,z [Debye]:    -0.435067     0.274246     1.639925 

 

                         *** MP2 UNRELAXED DENSITY ***

------------------------------------------------------------------------------
                       ORCA ELECTRIC PROPERTIES CALCULATION
------------------------------------------------------------------------------

Dipole Moment Calculation                       ... on
Quadrupole Moment Calculation                   ... off
Polarizability Calculation                      ... off
GBWName                                         ... 12meoh.boyd.etal.mol7,9,10-orca.engrad-mp2.def2tzvp.frozencore.gbw
Electron density file                           ... 12meoh.boyd.etal.mol7,9,10-orca.engrad-mp2.def2tzvp.frozencore.pmp2ur
The origin for moment calculation is the CENTER OF MASS  = (-0.136708,  1.119067 -0.249433)

-------------
DIPOLE MOMENT
-------------
                                X             Y             Z
Electronic contribution:      1.80096      -0.33628      -1.67897
Nuclear contribution   :     -1.93697       0.68321       2.22318
                        -----------------------------------------
Total Dipole Moment    :     -0.13601       0.34692       0.54421
                        -----------------------------------------
Magnitude (a.u.)       :      0.65956
Magnitude (Debye)      :      1.67647



--------------------
Rotational spectrum 
--------------------
 
Rotational constants in cm-1:     0.023606     0.009368     0.006770 
Rotational constants in MHz :   707.697609   280.838981   202.965995 

 Dipole components along the rotational axes: 
x,y,z [a.u.] :    -0.163249     0.107877     0.629867 
x,y,z [Debye]:    -0.414946     0.274201     1.600994 

 

                           *** MP2 RELAXED DENSITY ***

------------------------------------------------------------------------------
                       ORCA ELECTRIC PROPERTIES CALCULATION
------------------------------------------------------------------------------

Dipole Moment Calculation                       ... on
Quadrupole Moment Calculation                   ... off
Polarizability Calculation                      ... off
GBWName                                         ... 12meoh.boyd.etal.mol7,9,10-orca.engrad-mp2.def2tzvp.frozencore.gbw
Electron density file                           ... 12meoh.boyd.etal.mol7,9,10-orca.engrad-mp2.def2tzvp.frozencore.pmp2re
The origin for moment calculation is the CENTER OF MASS  = (-0.136708,  1.119067 -0.249433)

-------------
DIPOLE MOMENT
-------------
                                X             Y             Z
Electronic contribution:      1.81590      -0.34317      -1.70020
Nuclear contribution   :     -1.93697       0.68321       2.22318
                        -----------------------------------------
Total Dipole Moment    :     -0.12107       0.34004       0.52298
                        -----------------------------------------
Magnitude (a.u.)       :      0.63544
Magnitude (Debye)      :      1.61517



--------------------
Rotational spectrum 
--------------------
 
Rotational constants in cm-1:     0.023606     0.009368     0.006770 
Rotational constants in MHz :   707.697609   280.838981   202.965995 

 Dipole components along the rotational axes: 
x,y,z [a.u.] :    -0.148403     0.111363     0.607751 
x,y,z [Debye]:    -0.377210     0.283062     1.544781 

 

Timings for individual modules:

Sum of individual times         ...       36.093 sec (=   0.602 min)
GTO integral calculation        ...        0.935 sec (=   0.016 min)   2.6 %
SCF iterations                  ...        8.424 sec (=   0.140 min)  23.3 %
MP2 module                      ...       26.735 sec (=   0.446 min)  74.1 %
                             ****ORCA TERMINATED NORMALLY****
TOTAL RUN TIME: 0 days 0 hours 0 minutes 37 seconds 34 msec
