
                                 *****************
                                 * O   R   C   A *
                                 *****************

           --- An Ab Initio, DFT and Semiempirical electronic structure package ---

                  #######################################################
                  #                        -***-                        #
                  #  Department of molecular theory and spectroscopy    #
                  #              Directorship: Frank Neese              #
                  # Max Planck Institute for Chemical Energy Conversion #
                  #                  D-45470 Muelheim/Ruhr              #
                  #                       Germany                       #
                  #                                                     #
                  #                  All rights reserved                #
                  #                        -***-                        #
                  #######################################################


                         Program Version 3.0.3 - RELEASE   -


 With contributions from (in alphabetic order):
   Ute Becker             : Parallelization
   Dmytro Bykov           : SCF Hessian
   Dmitry Ganyushin       : Spin-Orbit,Spin-Spin,Magnetic field MRCI
   Andreas Hansen         : Spin unrestricted coupled pair/coupled cluster methods
   Dimitrios Liakos       : Extrapolation schemes; parallel MDCI
   Robert Izsak           : Overlap fitted RIJCOSX, COSX-SCS-MP3
   Christian Kollmar      : KDIIS, OOCD, Brueckner-CCSD(T), CCSD density
   Simone Kossmann        : Meta GGA functionals, TD-DFT gradient, OOMP2, MP2 Hessian
   Taras Petrenko         : DFT Hessian,TD-DFT gradient, ASA and ECA modules, normal mode analysis, Resonance Raman, ABS, FL, XAS/XES, NRVS
   Christoph Reimann      : Effective Core Potentials
   Michael Roemelt        : Restricted open shell CIS
   Christoph Riplinger    : Improved optimizer, TS searches, QM/MM, DLPNO-CCSD
   Barbara Sandhoefer     : DKH picture change effects
   Igor Schapiro          : Molecular dynamics
   Kantharuban Sivalingam : CASSCF convergence, NEVPT2
   Boris Wezisla          : Elementary symmetry handling
   Frank Wennmohs         : Technical directorship


 We gratefully acknowledge several colleagues who have allowed us to
 interface, adapt or use parts of their codes:
   Stefan Grimme, W. Hujo, H. Kruse, T. Risthaus : VdW corrections, initial TS optimization,
                                                   DFT functionals, gCP
   Ed Valeev                                     : LibInt (2-el integral package), F12 methods
   Garnet Chan, S. Sharma, R. Olivares           : DMRG
   Ulf Ekstrom                                   : XCFun DFT Library
   Mihaly Kallay                                 : mrcc  (arbitrary order and MRCC methods)
   Andreas Klamt, Michael Diedenhofen            : otool_cosmo (COSMO solvation model)
   Frank Weinhold                                : gennbo (NPA and NBO analysis)
   Christopher J. Cramer and Donald G. Truhlar   : smd solvation model


 Your calculation uses the libint2 library for the computation of 2-el integrals
 For citations please refer to: http://libint.valeyev.net

 This ORCA versions uses:
   CBLAS   interface :  Fast vector & matrix operations
   LAPACKE interface :  Fast linear algebra routines
   SCALAPACK package :  Parallel linear algebra routines


Your calculation utilizes the basis: Ahlrichs-TZV
Cite in your paper:
H - Kr: A. Schaefer, H. Horn and R. Ahlrichs, J. Chem. Phys. 97, 2571 (1992).

The def2-TZV basis will be loaded
Cite in your paper:
 	F. Weigend, R. Ahlrichs, Phys. Chem. Chem. Phys. 2005, 7, 3297.

Your calculation utilizes the atom-pairwise dispersion correction
with the zero-damping scheme (D30)
Cite in your paper:
S.Grimme, J.Antony, S.Ehrlich and H.Krieg, J.Chem.Phys., 132, (2010), 154104 
   

XCFun DFT library Copyright 2009-2010 Ulf Ekstrom and contributors.
See http://admol.org/xcfun for more information. This is free soft-
ware; see the source code for copying conditions. There is ABSOLUTELY
NO WARRANTY; not even for MERCHANTABILITY or FITNESS FOR A PARTICULAR
PURPOSE. For details see the documentation. Scientific users of this 
library should cite U. Ekstrom, L. Visscher, R. Bast, A. J. Thorvald-
sen and K. Ruud; J.Chem.Theor.Comp. 2010, DOI: 10.1021/ct100117s
XCFun Version 0.99 
================================================================================
                                        WARNINGS
                       Please study these warnings very carefully!
================================================================================
Now building the actual basis set


INFO   : the flag for use of LIBINT has been found!

================================================================================
                                       INPUT FILE
================================================================================
NAME = 4_wB97X_GasPhase_onB3LYP_4_waters.inp
|  1> ! wB97X-D3 Def2-TZVP def2-TZVP/J RIJCOSX TightSCF Grid4 
|  2> 
|  3> %pal nprocs 12 end
|  4> 
|  5> %scf
|  6>         maxiter 400
|  7> end
|  8> 
|  9> * xyz  0  1
| 10> O  -0.133349	0.831269	-1.892466
| 11> H  0.265026	-0.019382	-1.565621
| 12> H  -0.944759	0.547767	-2.337163
| 13> O  -0.717714	1.453271	0.663083
| 14> H  -0.580494	1.221984	-0.293318
| 15> H  -0.102583	2.185629	0.804098
| 16> O  0.740226	-1.384505	-0.674928
| 17> H  1.687322	-1.576105	-0.677432
| 18> H  0.516139	-1.282790	0.288661
| 19> O  0.126707	-0.797403	1.865767
| 20> H  -0.227525	0.079156	1.554568
| 21> H  -0.645552	-1.250484	2.231934
| 22> **                         ****END OF INPUT****
================================================================================

                       ****************************
                       * Single Point Calculation *
                       ****************************

---------------------------------
CARTESIAN COORDINATES (ANGSTROEM)
---------------------------------
  O     -0.133349    0.831269   -1.892466
  H      0.265026   -0.019382   -1.565621
  H     -0.944759    0.547767   -2.337163
  O     -0.717714    1.453271    0.663083
  H     -0.580494    1.221984   -0.293318
  H     -0.102583    2.185629    0.804098
  O      0.740226   -1.384505   -0.674928
  H      1.687322   -1.576105   -0.677432
  H      0.516139   -1.282790    0.288661
  O      0.126707   -0.797403    1.865767
  H     -0.227525    0.079156    1.554568
  H     -0.645552   -1.250484    2.231934

----------------------------
CARTESIAN COORDINATES (A.U.)
----------------------------
  NO LB      ZA    FRAG    MASS        X           Y           Z
   0 O     8.0000    0    15.999         -0.251993090232265          1.570870753618585         -3.576242457757415
   1 H     1.0000    0     1.008          0.500826558368614         -0.036626671927662         -2.958594919515924
   2 H     1.0000    0     1.008         -1.785335772557308          1.035129615199642         -4.416598000333794
   3 O     8.0000    0    15.999         -1.356282902481157          2.746284188369871          1.253045274058905
   4 H     1.0000    0     1.008         -1.096974682384483          2.309215100033627         -0.554290690149514
   5 H     1.0000    0     1.008         -0.193853775996044          4.130240240356171          1.519525004833810
   6 O     8.0000    0    15.999          1.398824417207992         -2.616335281044643         -1.275429080115202
   7 H     1.0000    0     1.008          3.188576479740274         -2.978406808303955         -1.280160954354541
   8 H     1.0000    0     1.008          0.975361357035981         -2.424121787332842          0.545490235543842
   9 O     8.0000    0    15.999          0.239441529250760         -1.506873288367208          3.525788659707852
  10 H     1.0000    0     1.008         -0.429959938620433          0.149583161856671          2.937707776557692
  11 H     1.0000    0     1.008         -1.219916485205132         -2.363072294850382          4.217744008987395

--------------------------------
INTERNAL COORDINATES (ANGSTROEM)
--------------------------------
 O      0   0   0   0.000000     0.000     0.000
 H      1   0   0   0.994554     0.000     0.000
 H      1   2   0   0.967737   103.668     0.000
 O      1   2   3   2.694290    88.431   108.934
 H      4   1   2   0.993492     4.588   244.336
 H      4   1   2   0.966757   100.092   110.828
 O      2   1   3   1.697854   166.459   267.365
 H      7   2   1   0.966285   115.619   228.107
 H      7   2   1   0.994517   111.284   346.583
 O      9   7   2   1.695441   169.207   339.148
 H     10   9   7   0.995329    92.467    20.748
 H     10   9   7   0.967339   113.665   127.516

---------------------------
INTERNAL COORDINATES (A.U.)
---------------------------
 O      0   0   0   0.000000     0.000     0.000
 H      1   0   0   1.879434     0.000     0.000
 H      1   2   0   1.828758   103.668     0.000
 O      1   2   3   5.091471    88.431   108.934
 H      4   1   2   1.877427     4.588   244.336
 H      4   1   2   1.826906   100.092   110.828
 O      2   1   3   3.208480   166.459   267.365
 H      7   2   1   1.826015   115.619   228.107
 H      7   2   1   1.879365   111.284   346.583
 O      9   7   2   3.203920   169.207   339.148
 H     10   9   7   1.880900    92.467    20.748
 H     10   9   7   1.828006   113.665   127.516

---------------------
BASIS SET INFORMATION
---------------------
There are 2 groups of distinct atoms

 Group   1 Type O   : 11s6p2d1f contracted to 5s3p2d1f pattern {62111/411/11/1}
 Group   2 Type H   : 5s1p contracted to 3s1p pattern {311/1}

Atom   0O    basis set group =>   1
Atom   1H    basis set group =>   2
Atom   2H    basis set group =>   2
Atom   3O    basis set group =>   1
Atom   4H    basis set group =>   2
Atom   5H    basis set group =>   2
Atom   6O    basis set group =>   1
Atom   7H    basis set group =>   2
Atom   8H    basis set group =>   2
Atom   9O    basis set group =>   1
Atom  10H    basis set group =>   2
Atom  11H    basis set group =>   2
-------------------------------
AUXILIARY BASIS SET INFORMATION
-------------------------------
There are 2 groups of distinct atoms

 Group   1 Type O   : 12s5p4d2f1g contracted to 6s4p3d1f1g pattern {711111/2111/211/2/1}
 Group   2 Type H   : 5s2p1d contracted to 3s1p1d pattern {311/2/1}

Atom   0O    basis set group =>   1
Atom   1H    basis set group =>   2
Atom   2H    basis set group =>   2
Atom   3O    basis set group =>   1
Atom   4H    basis set group =>   2
Atom   5H    basis set group =>   2
Atom   6O    basis set group =>   1
Atom   7H    basis set group =>   2
Atom   8H    basis set group =>   2
Atom   9O    basis set group =>   1
Atom  10H    basis set group =>   2
Atom  11H    basis set group =>   2
smp-n108.crc.pitt.edu.191025hfi_wait_for_device: The /dev/hfi1_0 device failed to appear after 15.0 seconds: Connection timed out
smp-n108.crc.pitt.edu.191021hfi_wait_for_device: The /dev/hfi1_0 device failed to appear after 15.0 seconds: Connection timed out
smp-n108.crc.pitt.edu.191035hfi_wait_for_device: The /dev/hfi1_0 device failed to appear after 15.0 seconds: Connection timed out
smp-n108.crc.pitt.edu.191038hfi_wait_for_device: The /dev/hfi1_0 device failed to appear after 15.0 seconds: Connection timed out
smp-n108.crc.pitt.edu.191023hfi_wait_for_device: The /dev/hfi1_0 device failed to appear after 15.0 seconds: Connection timed out
smp-n108.crc.pitt.edu.191027hfi_wait_for_device: The /dev/hfi1_0 device failed to appear after 15.0 seconds: Connection timed out
smp-n108.crc.pitt.edu.191033hfi_wait_for_device: The /dev/hfi1_0 device failed to appear after 15.0 seconds: Connection timed out
smp-n108.crc.pitt.edu.191036hfi_wait_for_device: The /dev/hfi1_0 device failed to appear after 15.0 seconds: Connection timed out
smp-n108.crc.pitt.edu.191028hfi_wait_for_device: The /dev/hfi1_0 device failed to appear after 15.0 seconds: Connection timed out
smp-n108.crc.pitt.edu.191031hfi_wait_for_device: The /dev/hfi1_0 device failed to appear after 15.0 seconds: Connection timed out
smp-n108.crc.pitt.edu.191040hfi_wait_for_device: The /dev/hfi1_0 device failed to appear after 15.0 seconds: Connection timed out
smp-n108.crc.pitt.edu.191049hfi_wait_for_device: The /dev/hfi1_0 device failed to appear after 15.0 seconds: Connection timed out


           ************************************************************
           *        Program running with 12 parallel MPI-processes    *
           *              working on a common directory               *
           ************************************************************
------------------------------------------------------------------------------
                           ORCA GTO INTEGRAL CALCULATION
                           -- RI-GTO INTEGRALS CHOSEN --
------------------------------------------------------------------------------

                         BASIS SET STATISTICS AND STARTUP INFO

Gaussian basis set:
 # of primitive gaussian shells          ...  128
 # of primitive gaussian functions       ...  248
 # of contracted shells                  ...   76
 # of contracted basis functions         ...  172
 Highest angular momentum                ...    3
 Maximum contraction depth               ...    6
Auxiliary gaussian basis set:
 # of primitive gaussian shells          ...  160
 # of primitive gaussian functions       ...  408
 # of contracted shells                  ...  100
 # of contracted aux-basis functions     ...  284
 Highest angular momentum                ...    4
 Maximum contraction depth               ...    7
Ratio of auxiliary to basis functions    ...  1.65
Integral package used                  ... LIBINT
 One Electron integrals                  ... done
 Ordering auxiliary basis shells         ... done
 Integral threshhold             Thresh  ...  2.500e-11
 Primitive cut-off               TCut    ...  2.500e-12
 Pre-screening matrix                    ... done
 Shell pair data                         ... 
 Ordering of the shell pairs             ... done (   0.000 sec) 2689 of 2926 pairs
 Determination of significant pairs      ... done (   0.000 sec)
 Creation of shell pair data             ... done (   0.000 sec)
 Storage of shell pair data              ... done (   0.001 sec)
 Shell pair data done in (   0.001 sec)
 Computing two index integrals           ... done
 Cholesky decomposition of the V-matrix  ... done


Timings:
 Total evaluation time                   ...   0.136 sec (  0.002 min)
 One electron matrix time                ...   0.025 sec (  0.000 min) = 18.1%
 Schwartz matrix evaluation time         ...   0.090 sec (  0.002 min) = 66.5%
 Two index repulsion integral time       ...   0.002 sec (  0.000 min) =  1.4%
 Cholesky decomposition of V             ...   0.003 sec (  0.000 min) =  2.5%
 Three index repulsion integral time     ...   0.000 sec (  0.000 min) =  0.0%

           ************************************************************
           *              Shut down parallel processing               *
           ************************************************************
smp-n108.crc.pitt.edu.191077hfi_wait_for_device: The /dev/hfi1_0 device failed to appear after 15.0 seconds: Connection timed out
smp-n108.crc.pitt.edu.191079hfi_wait_for_device: The /dev/hfi1_0 device failed to appear after 15.0 seconds: Connection timed out
smp-n108.crc.pitt.edu.191075hfi_wait_for_device: The /dev/hfi1_0 device failed to appear after 15.0 seconds: Connection timed out
smp-n108.crc.pitt.edu.191073hfi_wait_for_device: The /dev/hfi1_0 device failed to appear after 15.0 seconds: Connection timed out
smp-n108.crc.pitt.edu.191081hfi_wait_for_device: The /dev/hfi1_0 device failed to appear after 15.0 seconds: Connection timed out
smp-n108.crc.pitt.edu.191084hfi_wait_for_device: The /dev/hfi1_0 device failed to appear after 15.0 seconds: Connection timed out
smp-n108.crc.pitt.edu.191088hfi_wait_for_device: The /dev/hfi1_0 device failed to appear after 15.0 seconds: Connection timed out
smp-n108.crc.pitt.edu.191092hfi_wait_for_device: The /dev/hfi1_0 device failed to appear after 15.0 seconds: Connection timed out
smp-n108.crc.pitt.edu.191083hfi_wait_for_device: The /dev/hfi1_0 device failed to appear after 15.0 seconds: Connection timed out
smp-n108.crc.pitt.edu.191086hfi_wait_for_device: The /dev/hfi1_0 device failed to appear after 15.0 seconds: Connection timed out
smp-n108.crc.pitt.edu.191090hfi_wait_for_device: The /dev/hfi1_0 device failed to appear after 15.0 seconds: Connection timed out
smp-n108.crc.pitt.edu.191094hfi_wait_for_device: The /dev/hfi1_0 device failed to appear after 15.0 seconds: Connection timed out


           ************************************************************
           *        Program running with 12 parallel MPI-processes    *
           *              working on a common directory               *
           ************************************************************
-------------------------------------------------------------------------------
                                 ORCA SCF
-------------------------------------------------------------------------------

------------
SCF SETTINGS
------------
Hamiltonian:
 Density Functional     Method          .... DFT(GTOs)
 Exchange Functional    Exchange        .... WB97X-D3
 Correlation Functional Correlation     .... WB97X-D3
 Gradients option       PostSCFGGA      .... off
 Hybrid DFT is turned on
   Fraction HF Exchange ScalHFX         ....  0.195728
   Scaling of DF-GGA-X  ScalDFX         ....  0.000000
   Scaling of DF-GGA-C  ScalDFC         ....  1.000000
   Scaling of DF-LDA-C  ScalLDAC        ....  1.000000
   Perturbative correction              ....  0.000000
 Long-range corrected/Screened/Range-Separated Hybrid DFT is turned on
   Amount of maximum screened exact exchange              ....  0.804272
   Range separation parameter mu (erf(mu*r12)/r12)        ....  0.250000
 RI-approximation to the Coulomb term is turned on
   Number of auxiliary basis functions  .... 284
   RIJ-COSX (HFX calculated with COS-X)).... on


General Settings:
 Integral files         IntName         .... 4_wB97X_GasPhase_onB3LYP_4_waters
 Hartree-Fock type      HFTyp           .... RHF
 Total Charge           Charge          ....    0
 Multiplicity           Mult            ....    1
 Number of Electrons    NEL             ....   40
 Basis Dimension        Dim             ....  172
 Nuclear Repulsion      ENuc            ....    144.3830661827 Eh

Convergence Acceleration:
 DIIS                   CNVDIIS         .... on
   Start iteration      DIISMaxIt       ....    12
   Startup error        DIISStart       ....  0.200000
   # of expansion vecs  DIISMaxEq       ....     5
   Bias factor          DIISBfac        ....   1.050
   Max. coefficient     DIISMaxC        ....  10.000
 Newton-Raphson         CNVNR           .... off
 SOSCF                  CNVSOSCF        .... on
   Start iteration      SOSCFMaxIt      ....   150
   Startup grad/error   SOSCFStart      ....  0.003300
 Level Shifting         CNVShift        .... on
   Level shift para.    LevelShift      ....    0.2500
   Turn off err/grad.   ShiftErr        ....    0.0010
 Zerner damping         CNVZerner       .... off
 Static damping         CNVDamp         .... on
   Fraction old density DampFac         ....    0.7000
   Max. Damping (<1)    DampMax         ....    0.9800
   Min. Damping (>=0)   DampMin         ....    0.0000
   Turn off err/grad.   DampErr         ....    0.1000
 Fernandez-Rico         CNVRico         .... off

SCF Procedure:
 Maximum # iterations   MaxIter         ....   400
 SCF integral mode      SCFMode         .... Direct
   Integral package                     .... LIBINT
 Reset frequeny         DirectResetFreq ....    20
 Integral Threshold     Thresh          ....  2.500e-11 Eh
 Primitive CutOff       TCut            ....  2.500e-12 Eh

Convergence Tolerance:
 Convergence Check Mode ConvCheckMode   .... Total+1el-Energy
 Energy Change          TolE            ....  1.000e-08 Eh
 1-El. energy change                    ....  1.000e-05 Eh
 Orbital Gradient       TolG            ....  1.000e-05
 Orbital Rotation angle TolX            ....  1.000e-05
 DIIS Error             TolErr          ....  5.000e-07


Diagonalization of the overlap matrix:
Smallest eigenvalue                        ... 3.537e-03
Time for diagonalization                   ...    0.005 sec
Threshold for overlap eigenvalues          ... 1.000e-08
Number of eigenvalues below threshold      ... 0
Time for construction of square roots      ...    0.002 sec
Total time needed                          ...    0.007 sec

-------------------
DFT GRID GENERATION
-------------------

General Integration Accuracy     IntAcc      ...  4.670
Radial Grid Type                 RadialGrid  ... Gauss-Chebyshev
Angular Grid (max. acc.)         AngularGrid ... Lebedev-302
Angular grid pruning method      GridPruning ... 3 (G Style)
Weight generation scheme         WeightScheme... Becke
Basis function cutoff            BFCut       ...    1.0000e-11
Integration weight cutoff        WCut        ...    1.0000e-14
Grids for H and He will be reduced by one unit

# of grid points (after initial pruning)     ...  52000 (   0.0 sec)
# of grid points (after weights+screening)   ...  49012 (   0.0 sec)
nearest neighbour list constructed           ...    0.0 sec
Grid point re-assignment to atoms done       ...    0.0 sec
Grid point division into batches done        ...    0.1 sec
Reduced shell lists constructed in    0.2 sec

Total number of grid points                  ...    49012
Total number of batches                      ...      773
Average number of points per batch           ...       63
Average number of grid points per atom       ...     4084
Average number of shells per batch           ...    46.70 (61.44%)
Average number of basis functions per batch  ...    99.24 (57.70%)
Average number of large shells per batch     ...    36.33 (77.81%)
Average number of large basis fcns per batch ...    73.24 (73.80%)
Maximum spatial batch extension              ...  12.12, 11.86, 15.03 au
Average spatial batch extension              ...   0.16,  0.17,  0.17 au

Time for grid setup =    0.177 sec

------------------------------
INITIAL GUESS: MODEL POTENTIAL
------------------------------
Loading Hartree-Fock densities                     ... done
Calculating cut-offs                               ... done
Setting up the integral package                    ... done
Initializing the effective Hamiltonian             ... done
Starting the Coulomb interaction                   ... done (   0.0 sec)
Reading the grid                                   ... done
Mapping shells                                     ... done
Starting the XC term evaluation                    ... done (   0.0 sec)
  promolecular density results
     # of electrons  =     39.996198499
     EX              =    -34.960417758
     EC              =     -1.297124868
     EX+EC           =    -36.257542626
Transforming the Hamiltonian                       ... done (   0.0 sec)
Diagonalizing the Hamiltonian                      ... done (   0.0 sec)
Back transforming the eigenvectors                 ... done (   0.0 sec)
Now organizing SCF variables                       ... done
                      ------------------
                      INITIAL GUESS DONE (   0.3 sec)
                      ------------------
--------------------
COSX GRID GENERATION
--------------------

General Integration Accuracy     IntAcc      ...  3.340
Radial Grid Type                 RadialGrid  ... Gauss-Chebyshev
Angular Grid (max. acc.)         AngularGrid ... Lebedev-50
Angular grid pruning method      GridPruning ... 3 (G Style)
Weight generation scheme         WeightScheme... Becke
Basis function cutoff            BFCut       ...    1.0000e-11
Integration weight cutoff        WCut        ...    1.0000e-14
Grids for H and He will be reduced by one unit

# of grid points (after initial pruning)     ...   4880 (   0.0 sec)
# of grid points (after weights+screening)   ...   4649 (   0.0 sec)
nearest neighbour list constructed           ...    0.0 sec
Grid point re-assignment to atoms done       ...    0.0 sec
Grid point division into batches done        ...    0.0 sec
Reduced shell lists constructed in    0.0 sec

Total number of grid points                  ...     4649
Total number of batches                      ...       79
Average number of points per batch           ...       58
Average number of grid points per atom       ...      387
Average number of shells per batch           ...    47.62 (62.66%)
Average number of basis functions per batch  ...   103.62 (60.25%)
Average number of large shells per batch     ...    36.38 (76.38%)
Average number of large basis fcns per batch ...    74.38 (71.77%)
Maximum spatial batch extension              ...   9.71, 11.53, 11.58 au
Average spatial batch extension              ...   0.37,  0.47,  0.35 au

Overlap Fitting                  UseSFitting ... on
Constructing numerical overlap ... done (      0.0 sec)
Inverting numerical overlap    ... done (      0.0 sec)
Obtaining analytic overlap     ... done (      0.0 sec)
Final contraction and storage  ... done (      0.0 sec)


General Integration Accuracy     IntAcc      ...  3.670
Radial Grid Type                 RadialGrid  ... Gauss-Chebyshev
Angular Grid (max. acc.)         AngularGrid ... Lebedev-50
Angular grid pruning method      GridPruning ... 3 (G Style)
Weight generation scheme         WeightScheme... Becke
Basis function cutoff            BFCut       ...    1.0000e-11
Integration weight cutoff        WCut        ...    1.0000e-14
Grids for H and He will be reduced by one unit

# of grid points (after initial pruning)     ...   6408 (   0.0 sec)
# of grid points (after weights+screening)   ...   6100 (   0.0 sec)
nearest neighbour list constructed           ...    0.0 sec
Grid point re-assignment to atoms done       ...    0.0 sec
Grid point division into batches done        ...    0.0 sec
Reduced shell lists constructed in    0.0 sec

Total number of grid points                  ...     6100
Total number of batches                      ...      100
Average number of points per batch           ...       61
Average number of grid points per atom       ...      508
Average number of shells per batch           ...    48.80 (64.21%)
Average number of basis functions per batch  ...   106.80 (62.09%)
Average number of large shells per batch     ...    37.40 (76.64%)
Average number of large basis fcns per batch ...    76.40 (71.54%)
Maximum spatial batch extension              ...  10.58, 12.51, 11.95 au
Average spatial batch extension              ...   0.32,  0.42,  0.32 au

Overlap Fitting                  UseSFitting ... on
Constructing numerical overlap ... done (      0.0 sec)
Inverting numerical overlap    ... done (      0.0 sec)
Obtaining analytic overlap     ... done (      0.0 sec)
Final contraction and storage  ... done (      0.0 sec)


General Integration Accuracy     IntAcc      ...  4.010
Radial Grid Type                 RadialGrid  ... Gauss-Chebyshev
Angular Grid (max. acc.)         AngularGrid ... Lebedev-110
Angular grid pruning method      GridPruning ... 3 (G Style)
Weight generation scheme         WeightScheme... Becke
Basis function cutoff            BFCut       ...    1.0000e-11
Integration weight cutoff        WCut        ...    1.0000e-14
Grids for H and He will be reduced by one unit

# of grid points (after initial pruning)     ...  11032 (   0.0 sec)
# of grid points (after weights+screening)   ...  10513 (   0.0 sec)
nearest neighbour list constructed           ...    0.0 sec
Grid point re-assignment to atoms done       ...    0.0 sec
Grid point division into batches done        ...    0.0 sec
Reduced shell lists constructed in    0.0 sec

Total number of grid points                  ...    10513
Total number of batches                      ...      170
Average number of points per batch           ...       61
Average number of grid points per atom       ...      876
Average number of shells per batch           ...    49.25 (64.80%)
Average number of basis functions per batch  ...   106.88 (62.14%)
Average number of large shells per batch     ...    37.12 (75.38%)
Average number of large basis fcns per batch ...    75.00 (70.18%)
Maximum spatial batch extension              ...  14.07, 13.09, 13.01 au
Average spatial batch extension              ...   0.31,  0.28,  0.27 au

Overlap Fitting                  UseSFitting ... on
Constructing numerical overlap ... done (      0.0 sec)
Inverting numerical overlap    ... done (      0.0 sec)
Obtaining analytic overlap     ... done (      0.0 sec)
Final contraction and storage  ... done (      0.0 sec)

Time for X-Grid setup             =    0.107 sec
--------------
SCF ITERATIONS
--------------
ITER       Energy         Delta-E        Max-DP      RMS-DP      [F,P]     Damp
               ***  Starting incremental Fock matrix formation  ***
  0   -305.5084395212   0.000000000000 0.04086586  0.00141241  0.2943974 0.7000
  1   -305.6408004130  -0.132360891759 0.02723720  0.00093728  0.1486470 0.7000
                               ***Turning on DIIS***
  2   -305.6966771809  -0.055876767955 0.04209035  0.00150383  0.0597575 0.0000
  3   -305.7836600996  -0.086982918683 0.01767436  0.00060207  0.0737421 0.0000
  4   -305.8008543145  -0.017194214918 0.00271588  0.00010079  0.0096951 0.0000
                      *** Initiating the SOSCF procedure ***
                           *** Shutting down DIIS ***
                      *** Re-Reading the Fockian *** 
                      *** Removing any level shift *** 
ITER      Energy       Delta-E        Grad      Rot      Max-DP    RMS-DP
  5   -305.80117503  -0.0003207170  0.000346  0.000346  0.000464  0.000026
               *** Restarting incremental Fock matrix formation ***
  6   -305.80118705  -0.0000120157  0.000125  0.000226  0.000296  0.000014
  7   -305.80118791  -0.0000008650  0.000072  0.000097  0.000162  0.000007
  8   -305.80118813  -0.0000002178  0.000024  0.000019  0.000034  0.000002
  9   -305.80118815  -0.0000000247  0.000004  0.000005  0.000010  0.000000
 10   -305.80118816  -0.0000000061  0.000004  0.000002  0.000004  0.000000
                 **** Energy Check signals convergence ****
              ***Rediagonalizing the Fockian in SOSCF/NRSCF***

               *****************************************************
               *                     SUCCESS                       *
               *           SCF CONVERGED AFTER  11 CYCLES          *
               *****************************************************

Setting up the final grid:

General Integration Accuracy     IntAcc      ...  5.010
Radial Grid Type                 RadialGrid  ... Gauss-Chebyshev
Angular Grid (max. acc.)         AngularGrid ... Lebedev-434
Angular grid pruning method      GridPruning ... 3 (G Style)
Weight generation scheme         WeightScheme... Becke
Basis function cutoff            BFCut       ...    1.0000e-11
Integration weight cutoff        WCut        ...    1.0000e-14
Grids for H and He will be reduced by one unit

# of grid points (after initial pruning)     ...  96904 (   0.0 sec)
# of grid points (after weights+screening)   ...  91157 (   0.0 sec)
nearest neighbour list constructed           ...    0.0 sec
Grid point re-assignment to atoms done       ...    0.0 sec
Grid point division into batches done        ...    0.5 sec
Reduced shell lists constructed in    0.5 sec

Total number of grid points                  ...    91157
Total number of batches                      ...     1430
Average number of points per batch           ...       63
Average number of grid points per atom       ...     7596
Average number of shells per batch           ...    44.77 (58.91%)
Average number of basis functions per batch  ...    93.83 (54.55%)
Average number of large shells per batch     ...    34.94 (78.05%)
Average number of large basis fcns per batch ...    69.92 (74.52%)
Maximum spatial batch extension              ...  13.18, 15.59, 11.30 au
Average spatial batch extension              ...   0.15,  0.14,  0.15 au

Final grid set up in    0.5 sec
Final integration                            ... done (   0.1 sec)
Change in XC energy                          ...    -0.000377721
Integrated number of electrons               ...    40.000057814
Previous integrated no of electrons          ...    40.000008483
Old exchange energy                            =    -11.325202604 Eh
New exchange energy                            =    -11.324836969 Eh
Exchange energy change after final integration =      0.000365635 Eh
Total energy after final integration           =   -305.801200246 Eh
Final COS-X integration done in                =     0.383 sec

----------------
TOTAL SCF ENERGY
----------------

Total Energy       :         -305.80120025 Eh           -8321.27370 eV

Components:
Nuclear Repulsion  :          144.38306618 Eh            3928.86297 eV
Electronic Energy  :         -450.18426643 Eh          -12250.13667 eV

One Electron Energy:         -707.67775340 Eh          -19256.89067 eV
Two Electron Energy:          257.49348697 Eh            7006.75400 eV

Virial components:
Potential Energy   :         -610.38608127 Eh          -16609.44968 eV
Kinetic Energy     :          304.58488103 Eh            8288.17598 eV
Virial Ratio       :            2.00399337


DFT components:
N(Alpha)           :       20.000028906818 electrons
N(Beta)            :       20.000028906818 electrons
N(Total)           :       40.000057813636 electrons
E(XC)              :      -25.978921051363 Eh       

---------------
SCF CONVERGENCE
---------------

  Last Energy change         ...    5.2052e-10  Tolerance :   1.0000e-08
  Last MAX-Density change    ...    2.2423e-14  Tolerance :   1.0000e-07
  Last RMS-Density change    ...    9.8534e-16  Tolerance :   5.0000e-09
  Last Orbital Gradient      ...    3.6522e-07  Tolerance :   1.0000e-05
  Last Orbital Rotation      ...    7.2756e-07  Tolerance :   1.0000e-05

             **** THE GBW FILE WAS UPDATED (4_wB97X_GasPhase_onB3LYP_4_waters.gbw) ****
             **** DENSITY FILE WAS UPDATED (4_wB97X_GasPhase_onB3LYP_4_waters.scfp.tmp) ****
             **** ENERGY FILE WAS UPDATED (4_wB97X_GasPhase_onB3LYP_4_waters.en.tmp) ****
----------------
ORBITAL ENERGIES
----------------

  NO   OCC          E(Eh)            E(eV) 
   0   2.0000     -19.232862      -523.3528 
   1   2.0000     -19.232579      -523.3451 
   2   2.0000     -19.231455      -523.3145 
   3   2.0000     -19.231367      -523.3121 
   4   2.0000      -1.140915       -31.0459 
   5   2.0000      -1.124006       -30.5858 
   6   2.0000      -1.122366       -30.5411 
   7   2.0000      -1.106533       -30.1103 
   8   2.0000      -0.643405       -17.5080 
   9   2.0000      -0.635023       -17.2799 
  10   2.0000      -0.623723       -16.9724 
  11   2.0000      -0.623144       -16.9566 
  12   2.0000      -0.539055       -14.6684 
  13   2.0000      -0.506338       -13.7782 
  14   2.0000      -0.496741       -13.5170 
  15   2.0000      -0.468115       -12.7381 
  16   2.0000      -0.421128       -11.4595 
  17   2.0000      -0.418652       -11.3921 
  18   2.0000      -0.414834       -11.2882 
  19   2.0000      -0.413074       -11.2403 
  20   0.0000       0.096330         2.6213 
  21   0.0000       0.135859         3.6969 
  22   0.0000       0.139448         3.7946 
  23   0.0000       0.155717         4.2373 
  24   0.0000       0.264510         7.1977 
  25   0.0000       0.276317         7.5190 
  26   0.0000       0.289167         7.8686 
  27   0.0000       0.298070         8.1109 
  28   0.0000       0.381413        10.3788 
  29   0.0000       0.419000        11.4016 
  30   0.0000       0.433770        11.8035 
  31   0.0000       0.435066        11.8387 
  32   0.0000       0.441535        12.0148 
  33   0.0000       0.491100        13.3635 
  34   0.0000       0.496086        13.4992 
  35   0.0000       0.510905        13.9024 
  36   0.0000       0.533246        14.5104 
  37   0.0000       0.543876        14.7996 
  38   0.0000       0.556515        15.1435 
  39   0.0000       0.576812        15.6959 
  40   0.0000       0.639775        17.4092 
  41   0.0000       0.643735        17.5169 
  42   0.0000       0.666301        18.1310 
  43   0.0000       0.679572        18.4921 
  44   0.0000       0.719406        19.5760 
  45   0.0000       0.729413        19.8483 
  46   0.0000       0.755733        20.5645 
  47   0.0000       0.787335        21.4245 
  48   0.0000       0.874755        23.8033 
  49   0.0000       0.896311        24.3899 
  50   0.0000       0.946196        25.7473 
  51   0.0000       0.994018        27.0486 
  52   0.0000       1.193749        32.4836 
  53   0.0000       1.240785        33.7635 
  54   0.0000       1.263343        34.3773 
  55   0.0000       1.277191        34.7541 
  56   0.0000       1.284353        34.9490 
  57   0.0000       1.316509        35.8240 
  58   0.0000       1.320945        35.9448 
  59   0.0000       1.415984        38.5309 
  60   0.0000       1.418291        38.5937 
  61   0.0000       1.446561        39.3629 
  62   0.0000       1.456441        39.6318 
  63   0.0000       1.477838        40.2140 
  64   0.0000       1.662174        45.2301 
  65   0.0000       1.680953        45.7410 
  66   0.0000       1.701366        46.2965 
  67   0.0000       1.728835        47.0440 
  68   0.0000       1.749773        47.6138 
  69   0.0000       1.842509        50.1372 
  70   0.0000       1.855691        50.4959 
  71   0.0000       1.867574        50.8193 
  72   0.0000       1.878553        51.1180 
  73   0.0000       1.894281        51.5460 
  74   0.0000       1.971654        53.6514 
  75   0.0000       2.001469        54.4627 
  76   0.0000       2.060895        56.0798 
  77   0.0000       2.091026        56.8997 
  78   0.0000       2.107004        57.3345 
  79   0.0000       2.145497        58.3819 
  80   0.0000       2.163221        58.8642 
  81   0.0000       2.221744        60.4567 
  82   0.0000       2.243274        61.0426 
  83   0.0000       2.258931        61.4686 
  84   0.0000       2.271831        61.8197 
  85   0.0000       2.326319        63.3024 
  86   0.0000       2.345600        63.8270 
  87   0.0000       2.381383        64.8007 
  88   0.0000       2.411829        65.6292 
  89   0.0000       2.422195        65.9113 
  90   0.0000       2.433294        66.2133 
  91   0.0000       2.468261        67.1648 
  92   0.0000       2.496040        67.9207 
  93   0.0000       2.506217        68.1976 
  94   0.0000       2.533661        68.9444 
  95   0.0000       2.552726        69.4632 
  96   0.0000       2.619390        71.2772 
  97   0.0000       2.639441        71.8228 
  98   0.0000       2.657446        72.3128 
  99   0.0000       2.679151        72.9034 
 100   0.0000       2.708056        73.6899 
 101   0.0000       2.734146        74.3999 
 102   0.0000       2.765948        75.2653 
 103   0.0000       2.805121        76.3312 
 104   0.0000       2.872139        78.1549 
 105   0.0000       2.918008        79.4030 
 106   0.0000       2.980384        81.1004 
 107   0.0000       3.060516        83.2809 
 108   0.0000       3.091234        84.1168 
 109   0.0000       3.167209        86.1841 
 110   0.0000       3.209793        87.3429 
 111   0.0000       3.226578        87.7997 
 112   0.0000       3.749158       102.0198 
 113   0.0000       3.776564       102.7655 
 114   0.0000       3.845425       104.6393 
 115   0.0000       3.893924       105.9590 
 116   0.0000       3.994162       108.6867 
 117   0.0000       4.023645       109.4890 
 118   0.0000       4.090532       111.3090 
 119   0.0000       4.124540       112.2344 
 120   0.0000       5.190344       141.2364 
 121   0.0000       5.194537       141.3505 
 122   0.0000       5.200585       141.5151 
 123   0.0000       5.216872       141.9583 
 124   0.0000       5.303996       144.3291 
 125   0.0000       5.316870       144.6794 
 126   0.0000       5.323753       144.8667 
 127   0.0000       5.339898       145.3060 
 128   0.0000       5.444500       148.1524 
 129   0.0000       5.450611       148.3187 
 130   0.0000       5.464135       148.6867 
 131   0.0000       5.471789       148.8949 
 132   0.0000       5.483982       149.2267 
 133   0.0000       5.503858       149.7676 
 134   0.0000       5.513608       150.0329 
 135   0.0000       5.527166       150.4018 
 136   0.0000       5.536714       150.6616 
 137   0.0000       5.541178       150.7831 
 138   0.0000       5.542853       150.8287 
 139   0.0000       5.549045       150.9972 
 140   0.0000       6.071049       165.2016 
 141   0.0000       6.083326       165.5357 
 142   0.0000       6.085465       165.5939 
 143   0.0000       6.100350       165.9990 
 144   0.0000       6.251415       170.1096 
 145   0.0000       6.300343       171.4411 
 146   0.0000       6.330936       172.2735 
 147   0.0000       6.370344       173.3459 
 148   0.0000       6.422645       174.7690 
 149   0.0000       6.445391       175.3880 
 150   0.0000       6.466429       175.9605 
 151   0.0000       6.489814       176.5968 
 152   0.0000       6.499620       176.8636 
 153   0.0000       6.530230       177.6966 
 154   0.0000       6.542941       178.0425 
 155   0.0000       6.570049       178.7801 
 156   0.0000       6.599155       179.5721 
 157   0.0000       6.665686       181.3825 
 158   0.0000       6.678906       181.7423 
 159   0.0000       6.788368       184.7209 
 160   0.0000       6.956454       189.2947 
 161   0.0000       7.051714       191.8869 
 162   0.0000       7.066663       192.2937 
 163   0.0000       7.098517       193.1605 
 164   0.0000       7.131956       194.0704 
 165   0.0000       7.156787       194.7461 
 166   0.0000       7.192100       195.7070 
 167   0.0000       7.205383       196.0684 
 168   0.0000      43.463455      1182.7007 
 169   0.0000      43.517072      1184.1597 
 170   0.0000      43.534409      1184.6315 
 171   0.0000      43.544239      1184.8990 

                    ********************************
                    * MULLIKEN POPULATION ANALYSIS *
                    ********************************

-----------------------
MULLIKEN ATOMIC CHARGES
-----------------------
   0 O :   -0.690397
   1 H :    0.367486
   2 H :    0.340312
   3 O :   -0.703459
   4 H :    0.346189
   5 H :    0.343465
   6 O :   -0.712581
   7 H :    0.342218
   8 H :    0.357379
   9 O :   -0.696232
  10 H :    0.365511
  11 H :    0.340109
Sum of atomic charges:   -0.0000000

--------------------------------
MULLIKEN REDUCED ORBITAL CHARGES
--------------------------------
  0 O s       :     3.794521  s :     3.794521
      pz      :     1.759834  p :     4.872988
      px      :     1.503237
      py      :     1.609916
      dz2     :     0.002738  d :     0.021765
      dxz     :     0.003122
      dyz     :     0.003838
      dx2y2   :     0.006391
      dxy     :     0.005676
      f0      :     0.000282  f :     0.001124
      f+1     :     0.000085
      f-1     :     0.000048
      f+2     :     0.000259
      f-2     :     0.000248
      f+3     :     0.000148
      f-3     :     0.000053
  1 H s       :     0.575302  s :     0.575302
      pz      :     0.016375  p :     0.057212
      px      :     0.013374
      py      :     0.027463
  2 H s       :     0.614274  s :     0.614274
      pz      :     0.015419  p :     0.045414
      px      :     0.017376
      py      :     0.012619
  3 O s       :     3.790645  s :     3.790645
      pz      :     1.517788  p :     4.891216
      px      :     1.767479
      py      :     1.605949
      dz2     :     0.008532  d :     0.020438
      dxz     :     0.002379
      dyz     :     0.000807
      dx2y2   :     0.001192
      dxy     :     0.007528
      f0      :     0.000268  f :     0.001159
      f+1     :     0.000079
      f-1     :     0.000201
      f+2     :     0.000026
      f-2     :     0.000070
      f+3     :     0.000357
      f-3     :     0.000159
  4 H s       :     0.596932  s :     0.596932
      pz      :     0.032272  p :     0.056879
      px      :     0.012325
      py      :     0.012282
  5 H s       :     0.611349  s :     0.611349
      pz      :     0.011798  p :     0.045186
      px      :     0.017051
      py      :     0.016337
  6 O s       :     3.791344  s :     3.791344
      pz      :     1.543466  p :     4.900363
      px      :     1.440395
      py      :     1.916502
      dz2     :     0.009782  d :     0.019683
      dxz     :     0.001002
      dyz     :     0.001357
      dx2y2   :     0.006215
      dxy     :     0.001327
      f0      :     0.000263  f :     0.001190
      f+1     :     0.000198
      f-1     :     0.000050
      f+2     :     0.000053
      f-2     :     0.000031
      f+3     :     0.000369
      f-3     :     0.000225
  7 H s       :     0.612301  s :     0.612301
      pz      :     0.011559  p :     0.045481
      px      :     0.018262
      py      :     0.015660
  8 H s       :     0.585475  s :     0.585475
      pz      :     0.032640  p :     0.057146
      px      :     0.010887
      py      :     0.013619
  9 O s       :     3.793771  s :     3.793771
      pz      :     1.811996  p :     4.880438
      px      :     1.601617
      py      :     1.466825
      dz2     :     0.003207  d :     0.020878
      dxz     :     0.003932
      dyz     :     0.001626
      dx2y2   :     0.004526
      dxy     :     0.007587
      f0      :     0.000283  f :     0.001146
      f+1     :     0.000075
      f-1     :     0.000110
      f+2     :     0.000177
      f-2     :     0.000265
      f+3     :     0.000083
      f-3     :     0.000151
 10 H s       :     0.577812  s :     0.577812
      pz      :     0.016129  p :     0.056677
      px      :     0.012348
      py      :     0.028200
 11 H s       :     0.614404  s :     0.614404
      pz      :     0.015281  p :     0.045487
      px      :     0.016607
      py      :     0.013599


                     *******************************
                     * LOEWDIN POPULATION ANALYSIS *
                     *******************************

----------------------
LOEWDIN ATOMIC CHARGES
----------------------
   0 O :   -0.297624
   1 H :    0.140652
   2 H :    0.158814
   3 O :   -0.299382
   4 H :    0.138119
   5 H :    0.159994
   6 O :   -0.302044
   7 H :    0.159393
   8 H :    0.140402
   9 O :   -0.299673
  10 H :    0.142377
  11 H :    0.158972

-------------------------------
LOEWDIN REDUCED ORBITAL CHARGES
-------------------------------
  0 O s       :     3.462362  s :     3.462362
      pz      :     1.697522  p :     4.802370
      px      :     1.499872
      py      :     1.604976
      dz2     :     0.003587  d :     0.030781
      dxz     :     0.005657
      dyz     :     0.004953
      dx2y2   :     0.008644
      dxy     :     0.007940
      f0      :     0.000506  f :     0.002112
      f+1     :     0.000026
      f-1     :     0.000070
      f+2     :     0.000423
      f-2     :     0.000366
      f+3     :     0.000413
      f-3     :     0.000308
  1 H s       :     0.666136  s :     0.666136
      pz      :     0.050371  p :     0.193212
      px      :     0.042480
      py      :     0.100361
  2 H s       :     0.680698  s :     0.680698
      pz      :     0.051972  p :     0.160488
      px      :     0.068560
      py      :     0.039956
  3 O s       :     3.455744  s :     3.455744
      pz      :     1.505337  p :     4.811599
      px      :     1.734458
      py      :     1.571804
      dz2     :     0.013741  d :     0.029873
      dxz     :     0.001982
      dyz     :     0.002372
      dx2y2   :     0.001070
      dxy     :     0.010708
      f0      :     0.000603  f :     0.002166
      f+1     :     0.000264
      f-1     :     0.000387
      f+2     :     0.000032
      f-2     :     0.000094
      f+3     :     0.000593
      f-3     :     0.000192
  4 H s       :     0.667315  s :     0.667315
      pz      :     0.121252  p :     0.194566
      px      :     0.037314
      py      :     0.035999
  5 H s       :     0.679365  s :     0.679365
      pz      :     0.032676  p :     0.160642
      px      :     0.061830
      py      :     0.066136
  6 O s       :     3.452699  s :     3.452699
      pz      :     1.529048  p :     4.817774
      px      :     1.448901
      py      :     1.839826
      dz2     :     0.014892  d :     0.029389
      dxz     :     0.001277
      dyz     :     0.001911
      dx2y2   :     0.009327
      dxy     :     0.001983
      f0      :     0.000658  f :     0.002182
      f+1     :     0.000550
      f-1     :     0.000059
      f+2     :     0.000035
      f-2     :     0.000026
      f+3     :     0.000575
      f-3     :     0.000280
  7 H s       :     0.679683  s :     0.679683
      pz      :     0.032604  p :     0.160923
      px      :     0.080868
      py      :     0.047451
  8 H s       :     0.664607  s :     0.664607
      pz      :     0.122316  p :     0.194991
      px      :     0.031083
      py      :     0.041593
  9 O s       :     3.459099  s :     3.459099
      pz      :     1.740470  p :     4.808094
      px      :     1.608647
      py      :     1.458977
      dz2     :     0.004106  d :     0.030348
      dxz     :     0.005312
      dyz     :     0.003447
      dx2y2   :     0.006355
      dxy     :     0.011129
      f0      :     0.000483  f :     0.002131
      f+1     :     0.000055
      f-1     :     0.000103
      f+2     :     0.000238
      f-2     :     0.000443
      f+3     :     0.000341
      f-3     :     0.000469
 10 H s       :     0.665166  s :     0.665166
      pz      :     0.050162  p :     0.192456
      px      :     0.040445
      py      :     0.101850
 11 H s       :     0.680558  s :     0.680558
      pz      :     0.049694  p :     0.160470
      px      :     0.069635
      py      :     0.041141


                      *****************************
                      * MAYER POPULATION ANALYSIS *
                      *****************************

  NA   - Mulliken gross atomic population
  ZA   - Total nuclear charge
  QA   - Mulliken gross atomic charge
  VA   - Mayer's total valence
  BVA  - Mayer's bonded valence
  FA   - Mayer's free valence

  ATOM       NA         ZA         QA         VA         BVA        FA
  0 O      8.6904     8.0000    -0.6904     1.8229     1.8229     0.0000
  1 H      0.6325     1.0000     0.3675     0.9219     0.9219     0.0000
  2 H      0.6597     1.0000     0.3403     0.9009     0.9009     0.0000
  3 O      8.7035     8.0000    -0.7035     1.7738     1.7738    -0.0000
  4 H      0.6538     1.0000     0.3462     0.9554     0.9554     0.0000
  5 H      0.6565     1.0000     0.3435     0.8980     0.8980    -0.0000
  6 O      8.7126     8.0000    -0.7126     1.7730     1.7730    -0.0000
  7 H      0.6578     1.0000     0.3422     0.9005     0.9005    -0.0000
  8 H      0.6426     1.0000     0.3574     0.9397     0.9397    -0.0000
  9 O      8.6962     8.0000    -0.6962     1.8062     1.8062     0.0000
 10 H      0.6345     1.0000     0.3655     0.9214     0.9214     0.0000
 11 H      0.6599     1.0000     0.3401     0.9019     0.9019     0.0000

  Mayer bond orders larger than 0.1
B(  0-O ,  1-H ) :   0.8003 B(  0-O ,  2-H ) :   0.8933 B(  0-O ,  4-H ) :   0.1583 
B(  1-H ,  6-O ) :   0.1157 B(  3-O ,  4-H ) :   0.7868 B(  3-O ,  5-H ) :   0.8918 
B(  3-O , 10-H ) :   0.1193 B(  6-O ,  7-H ) :   0.8915 B(  6-O ,  8-H ) :   0.7869 
B(  8-H ,  9-O ) :   0.1416 B(  9-O , 10-H ) :   0.7977 B(  9-O , 11-H ) :   0.8921 


-------
TIMINGS
-------

Total SCF time: 0 days 0 hours 0 min 5 sec 

Total time                  ....       5.325 sec
Sum of individual times     ....       5.290 sec  ( 99.4%)

Fock matrix formation       ....       3.991 sec  ( 75.0%)
  Coulomb formation         ....       3.179 sec  ( 79.7% of F)
  Split-RI-J                ....       0.862 sec  ( 21.6% of F)
  Chain of spheres X        ....       2.683 sec  ( 67.2% of F)
  COS-X 1 center corr.      ....       0.000 sec  (  0.0% of F)
  XC integration            ....       0.783 sec  ( 19.6% of F)
    Basis function eval.    ....       0.180 sec  ( 23.0% of XC)
    Density eval.           ....       0.107 sec  ( 13.6% of XC)
    XC-Functional eval.     ....       0.153 sec  ( 19.5% of XC)
    XC-Potential eval.      ....       0.200 sec  ( 25.5% of XC)
Diagonalization             ....       0.042 sec  (  0.8%)
Density matrix formation    ....       0.005 sec  (  0.1%)
Population analysis         ....       0.016 sec  (  0.3%)
Initial guess               ....       0.303 sec  (  5.7%)
Orbital Transformation      ....       0.000 sec  (  0.0%)
Orbital Orthonormalization  ....       0.000 sec  (  0.0%)
DIIS solution               ....       0.009 sec  (  0.2%)
SOSCF solution              ....       0.098 sec  (  1.8%)
Grid generation             ....       0.827 sec  ( 15.5%)
           ************************************************************
           *              Shut down parallel processing               *
           ************************************************************

Entering the calculation of the dispersion correction...

Checking the input atom types...

Done


-------------------------------------------------------------------------------
                          DFT DISPERSION CORRECTION                            
                                                                               
                                DFTD3 V2.1  Rev 6                               
                              USING zero damping                               
-------------------------------------------------------------------------------
The omegaB97X-D3 functional is recognized. Fit by Chai et al.
Active option DFTDOPT                   ...         3   

molecular C6(AA) [au] = 712.102239 


            DFT-D V3
 parameters
 s6 scaling factor         :     1.0000 
 rs6 scaling factor        :     1.2810 
 s8 scaling factor         :     1.0000 
 rs8 scaling factor        :     1.0940 
 Damping factor alpha6     :    14.0000 
 Damping factor alpha8     :    16.0000 
 ad hoc parameters k1-k3   :    16.0000     1.3333    -4.0000 

 Edisp/kcal,au: -1.894742961103  -0.003019464785 
 E6   /kcal   :  -0.913005680 
 E8   /kcal   :  -0.981737281 
 % E8         :  51.813744716 

-------------------------   ----------------
Dispersion correction           -0.003019465
-------------------------   ----------------


-------------------------   --------------------
FINAL SINGLE POINT ENERGY      -305.804219710614
-------------------------   --------------------


                            ***************************************
                            *     ORCA property calculations      *
                            ***************************************

                                    ---------------------
                                    Active property flags
                                    ---------------------
   (+) Dipole Moment


------------------------------------------------------------------------------
                       ORCA ELECTRIC PROPERTIES CALCULATION
------------------------------------------------------------------------------

Dipole Moment Calculation                       ... on
Quadrupole Moment Calculation                   ... off
Polarizability Calculation                      ... off
GBWName                                         ... 4_wB97X_GasPhase_onB3LYP_4_waters.gbw
Electron density file                           ... 4_wB97X_GasPhase_onB3LYP_4_waters.scfp.tmp

-------------
DIPOLE MOMENT
-------------
                                X             Y             Z
Electronic contribution:      0.01931       0.04501      -0.00996
Nuclear contribution   :     -0.05341      -0.24928       0.06893
                        -----------------------------------------
Total Dipole Moment    :     -0.03410      -0.20428       0.05897
                        -----------------------------------------
Magnitude (a.u.)       :      0.21534
Magnitude (Debye)      :      0.54734

smp-n108.crc.pitt.edu.191148hfi_wait_for_device: The /dev/hfi1_0 device failed to appear after 15.0 seconds: Connection timed out
smp-n108.crc.pitt.edu.191149hfi_wait_for_device: The /dev/hfi1_0 device failed to appear after 15.0 seconds: Connection timed out
smp-n108.crc.pitt.edu.191150hfi_wait_for_device: The /dev/hfi1_0 device failed to appear after 15.0 seconds: Connection timed out
smp-n108.crc.pitt.edu.191151hfi_wait_for_device: The /dev/hfi1_0 device failed to appear after 15.0 seconds: Connection timed out
smp-n108.crc.pitt.edu.191152hfi_wait_for_device: The /dev/hfi1_0 device failed to appear after 15.0 seconds: Connection timed out
smp-n108.crc.pitt.edu.191154hfi_wait_for_device: The /dev/hfi1_0 device failed to appear after 15.0 seconds: Connection timed out
smp-n108.crc.pitt.edu.191153hfi_wait_for_device: The /dev/hfi1_0 device failed to appear after 15.0 seconds: Connection timed out
smp-n108.crc.pitt.edu.191155hfi_wait_for_device: The /dev/hfi1_0 device failed to appear after 15.0 seconds: Connection timed out
smp-n108.crc.pitt.edu.191156hfi_wait_for_device: The /dev/hfi1_0 device failed to appear after 15.0 seconds: Connection timed out
smp-n108.crc.pitt.edu.191159hfi_wait_for_device: The /dev/hfi1_0 device failed to appear after 15.0 seconds: Connection timed out
smp-n108.crc.pitt.edu.191157hfi_wait_for_device: The /dev/hfi1_0 device failed to appear after 15.0 seconds: Connection timed out
smp-n108.crc.pitt.edu.191158hfi_wait_for_device: The /dev/hfi1_0 device failed to appear after 15.0 seconds: Connection timed out

Timings for individual modules:

Sum of individual times         ...       36.642 sec (=   0.611 min)
GTO integral calculation        ...       15.580 sec (=   0.260 min)  42.5 %
SCF iterations                  ...       21.062 sec (=   0.351 min)  57.5 %
                             ****ORCA TERMINATED NORMALLY****
TOTAL RUN TIME: 0 days 0 hours 0 minutes 52 seconds 91 msec
cp: cannot stat /scratch/slurm-1321701/*.{prop}: No such file or directory
