24
Energy:   -293.58027090
O    1.99907843   1.39247271   0.28558866
H    1.29308994   1.36249242   0.93127688
H    2.64887978   1.98237468   0.66769559
O   -0.03915610   1.17189644   2.04767658
H   -0.78460093   1.29155805   1.45926775
H   -0.02928853   0.23319254   2.23467785
O    0.12603004  -1.57167352   2.12090053
H    0.73781809  -1.52707322   1.38608215
H    0.61642557  -2.01196579   2.81508119
O   -1.97248646   1.29430718   0.09601052
H   -2.16917151   0.39497732  -0.16619672
H   -2.81991225   1.73917076   0.08194776
O    1.78759291  -1.35114939   0.00598071
H    1.27114247  -1.44894359  -0.79398622
H    2.02974645  -0.42525389   0.02361673
O    0.09874648   1.47627085  -1.72881437
H    0.83394190   1.60062758  -1.12860195
H   -0.67861744   1.55848176  -1.17638469
O    0.11879556  -1.15707584  -2.19468551
H    0.12406226  -0.20320562  -2.11508829
H    0.36137393  -1.32322672  -3.10560892
O   -2.17281585  -1.28670277  -0.63254731
H   -1.43855549  -1.36703215  -1.24135003
H   -1.91251453  -1.80723458   0.12740117
