24
Energy:   -294.76920235
O    2.10251998   1.14701854   0.15953646
H    1.71022418   0.86778812   0.98680076
H    2.10477669   0.35856529  -0.38320494
O    0.62951567   0.31177319   2.37317791
H    0.67901559   0.42060335   3.32288187
H   -0.26445881   0.56963098   2.14834279
O   -1.79341681   1.08903084   1.42233073
H   -2.04976545   0.31162643   0.92618599
H   -1.33448806   1.63862236   0.78706274
O   -2.16183554  -1.17004296  -0.16283007
H   -2.92399388  -1.66126317  -0.46950451
H   -1.71254253  -0.89958127  -0.96359103
O    1.73111607  -1.19563993  -1.31402118
H    1.23289774  -1.54362330  -0.57448219
H    2.38877852  -1.86655688  -1.49727617
O   -0.14305536   2.19577781  -1.02986846
H    0.66847528   1.91125666  -0.60951433
H    0.13510663   2.85085813  -1.66996808
O   -0.71469544  -0.25893551  -2.27355618
H    0.15308154  -0.65064406  -2.17476662
H   -0.61854259   0.62800583  -1.92668222
O    0.32002185  -1.97013964   0.82804315
H    0.49066987  -1.27470864   1.46324928
H   -0.61311637  -1.89069922   0.63011858
