90
Energy:   -536.87931154
O   -2.74732751   2.80158440  -1.72023839
H   -1.88726435   3.19744206  -1.51527169
C   -3.38140435   2.48905562  -0.49027656
H   -4.34857708   2.04418072  -0.73957242
H   -3.56519046   3.37913974   0.13161592
H   -2.81362688   1.75881498   0.10734764
O    2.30571855   3.34256138   0.02153708
H    2.88866094   2.60416367   0.25255715
C    2.77731642   4.49318080   0.70432854
H    2.10950411   5.31528231   0.43292289
H    3.80073166   4.77309219   0.40928925
H    2.75036933   4.37875060   1.79929745
O    1.75049035   0.22378632   2.45495252
H    0.93484323  -0.06813276   2.02144785
C    1.48782384   0.32078914   3.84568274
H    2.41681240   0.65067237   4.31859130
H    1.20112697  -0.64401402   4.29260233
H    0.70468036   1.05870788   4.08007461
O   -2.73398233  -2.11794920  -2.85024441
H   -2.68533545  -1.19004561  -3.12420005
C   -3.77394943  -2.73242355  -3.59416879
H   -3.81498382  -3.77683317  -3.27321722
H   -3.58750539  -2.71586020  -4.67940683
H   -4.75878542  -2.27784611  -3.40381447
O   -0.10308564   3.75280206  -1.35915205
H    0.72322855   3.62826680  -0.86913256
C    0.23090146   3.94465262  -2.72450173
H   -0.71116071   4.08333510  -3.26187612
H    0.74868739   3.07656848  -3.16165731
H    0.85239344   4.83884243  -2.88866518
O   -2.05661571  -0.47716487   3.86962256
H   -1.90502553   0.43888081   3.59339078
C   -3.24409787  -0.92664120   3.23685807
H   -3.39992068  -1.95984360   3.55887865
H   -3.16952446  -0.91906123   2.13815033
H   -4.12959922  -0.34075097   3.52908629
O   -2.59123418   0.59458867  -3.47088439
H   -2.74958708   1.38496717  -2.93362331
C   -1.36078295   0.77718331  -4.15292745
H   -1.19787236  -0.12204593  -4.75320413
H   -0.50672400   0.88892579  -3.46672466
H   -1.37591006   1.64338442  -4.83281284
O   -1.40086737   1.94007930   2.49868517
H   -1.12032993   1.28996868   1.83756627
C   -0.69779389   3.14532281   2.24254163
H   -1.02565683   3.86651234   2.99611761
H   -0.92063738   3.56468280   1.24893440
H    0.39346975   3.02863853   2.33367775
O   -2.31573304  -2.25091762  -0.08540527
H   -2.49300027  -2.22715176  -1.03747396
C   -1.96995731  -3.58402372   0.25489025
H   -1.77354217  -3.59283766   1.33044992
H   -1.06152674  -3.93258451  -0.26089713
H   -2.78185804  -4.29937001   0.05025835
O   -0.61874700  -0.17649707   0.83555860
H   -1.14213020  -0.95039188   0.57947242
C   -0.10417975   0.40685915  -0.35080131
H    0.48263162   1.27695803  -0.04410023
H   -0.89656446   0.75271509  -1.03292115
H    0.55965257  -0.27405679  -0.90619078
O   -0.27782623  -2.57733462   3.20056035
H   -0.89792585  -1.86379954   3.41214349
C   -0.33059918  -3.52121164   4.25831502
H    0.37366850  -4.31791944   4.00385691
H   -1.32827397  -3.97231762   4.37632237
H   -0.02627673  -3.09279931   5.22611048
O    3.80017319   1.08800686   0.79704061
H    3.15448836   0.75827296   1.43952790
C    4.47673473  -0.03364396   0.25234097
H    5.20010087   0.35573492  -0.46919262
H    3.80045985  -0.72118323  -0.27937265
H    5.02851971  -0.60799071   1.01289109
O    1.42422570  -2.94794285   0.95699495
H    0.79875812  -2.78870007   1.67939049
C    2.71144878  -3.11164939   1.53039766
H    3.40356280  -3.29009332   0.70297929
H    2.76624511  -3.97387083   2.21329509
H    3.05212704  -2.21615168   2.07335208
O    1.99378019   0.07382333  -3.39126609
H    2.01775728  -0.73744168  -2.86240178
C    2.90970780   0.99085518  -2.81449666
H    2.87003368   1.89881036  -3.42238527
H    3.94626383   0.61903769  -2.82347803
H    2.64638817   1.26095858  -1.77985457
O    1.90164193  -2.29458082  -1.75681689
H    1.75534278  -2.51716053  -0.82543184
C    0.86334012  -2.89822939  -2.51184770
H    1.04346383  -2.63747749  -3.55829364
H   -0.13548849  -2.52651116  -2.23445936
H    0.86071243  -3.99638571  -2.42924551
