90
Energy:   -538.75484732
O   -3.22157155   2.86428873  -1.15912172
H   -2.42156242   3.16909309  -0.70579737
C   -4.08614480   2.30999228  -0.18044797
H   -4.98204356   1.97171577  -0.70810280
H   -4.39461521   3.04478434   0.57962042
H   -3.64491733   1.44209701   0.33419117
O    1.65308007   2.57699609   0.59132855
H    1.93794445   1.80679274   1.10519853
C    2.19997788   2.45133221  -0.71160857
H    1.86933204   3.32689615  -1.27689286
H    1.84416374   1.55134915  -1.23715982
H    3.30119134   2.44102658  -0.71139011
O    2.26850981   0.15526265   1.92994048
H    2.19407581  -0.76297904   1.63041577
C    1.51257175   0.28120752   3.12377017
H    1.60731473   1.32130632   3.44734929
H    1.88680044  -0.36384654   3.93410065
H    0.44286963   0.06624085   2.97442477
O   -2.01881915  -1.11430440  -3.12767578
H   -1.38158949  -0.42787637  -3.37501801
C   -3.28595605  -0.49314061  -2.98257788
H   -3.99168851  -1.28040143  -2.70392521
H   -3.64204903  -0.03027419  -3.91624259
H   -3.29659808   0.27113789  -2.18977118
O   -0.85461067   3.75857817   0.11461021
H    0.02738918   3.40311529   0.29939574
C   -0.72518567   5.15999149  -0.06378167
H   -1.72764225   5.54421038  -0.27100582
H   -0.07651215   5.42229887  -0.91419029
H   -0.34326642   5.66955736   0.83469350
O   -1.21392279  -1.05039062   4.94331220
H   -1.61270382  -0.34083912   4.41801835
C   -1.97279233  -1.18259693   6.13460238
H   -1.51001359  -1.98583593   6.71436798
H   -3.02095378  -1.46047713   5.94246306
H   -1.96261574  -0.26864703   6.74890634
O   -0.10316182   0.90434744  -3.60880461
H    0.85317280   1.01519211  -3.71632585
C   -0.66596848   2.19129611  -3.40994399
H   -1.74333869   2.04801281  -3.29066062
H   -0.50380601   2.86341650  -4.26711075
H   -0.28497665   2.68653868  -2.50310478
O   -2.24990533   0.85963357   3.17600211
H   -2.14993885   0.45120537   2.30329576
C   -1.87826590   2.22363251   3.05799872
H   -1.99674517   2.66845389   4.04975564
H   -2.51886410   2.77968900   2.35570786
H   -0.82930031   2.35335014   2.74877085
O   -2.02909968  -2.82418061  -0.90237650
H   -2.04446828  -2.29770339  -1.71540099
C   -2.13681696  -4.18965694  -1.27170719
H   -2.11791358  -4.76839361  -0.34424197
H   -1.29903674  -4.52711453  -1.90180559
H   -3.07869225  -4.41539146  -1.79581806
O   -1.81735860  -0.52675715   0.76046039
H   -1.94178990  -1.36480668   0.29076570
C   -0.80180624   0.19826630   0.08553211
H   -0.67445638   1.13922469   0.62762483
H   -1.07037670   0.43757900  -0.95532171
H    0.16574605  -0.32767220   0.08259942
O   -0.12079712  -2.99876999   3.22297345
H   -0.47021583  -2.39044062   3.89100430
C   -1.22616926  -3.61220883   2.57925068
H   -0.81467812  -4.29405184   1.83008424
H   -1.87319930  -2.88670409   2.06178347
H   -1.84837135  -4.20083926   3.27146171
O    4.27381297  -0.14473673  -1.91723998
H    3.69315893  -0.90954830  -1.78946116
C    5.04991026   0.00797789  -0.73957916
H    5.69813895   0.87363433  -0.90058755
H    5.69004717  -0.86469945  -0.53601997
H    4.43477298   0.20338902   0.15272009
O    1.81631421  -2.58135974   1.25406510
H    1.09735084  -2.77307755   1.87435474
C    2.96555359  -3.28586357   1.69617026
H    3.76562417  -3.05875365   0.98638625
H    2.81767197  -4.37710506   1.70618865
H    3.29816849  -2.97107233   2.69769467
O    2.68814537   1.14557458  -3.84487919
H    3.33319030   0.79503282  -3.21285008
C    3.06094360   0.69235045  -5.13644536
H    2.32401649   1.09623680  -5.83594479
H    3.04720985  -0.40547771  -5.22224764
H    4.05557188   1.05241759  -5.44278435
O    2.42600604  -2.18865933  -1.47323784
H    2.11647202  -2.39911704  -0.57975057
C    1.28726114  -2.10817120  -2.31544655
H    1.65395450  -1.87048709  -3.31770772
H    0.58808357  -1.31386872  -2.01046847
H    0.73177295  -3.05742452  -2.37137795
