90
Energy:   -538.08507544
O   -3.09554573   2.86276213  -0.54226695
H   -2.18833413   3.18341909  -0.43015313
C   -3.52659331   2.34539187   0.70635620
H   -4.55002368   1.98862667   0.56215477
H   -3.53961144   3.10781235   1.50091449
H   -2.91431669   1.49665140   1.04918894
O    2.22997611   2.92399256  -0.52080672
H    2.56734155   2.07364085  -0.83941276
C    2.75432034   3.13482808   0.78040244
H    2.36441521   4.09674486   1.12416878
H    3.85421395   3.18844057   0.79211104
H    2.43645890   2.36172108   1.49737315
O    2.16968656  -0.19439277   2.12381406
H    1.36587677  -0.40855863   1.62738069
C    2.02186740  -0.72401112   3.43155550
H    2.93586198  -0.47381328   3.97699124
H    1.91041170  -1.81960683   3.43655553
H    1.16969841  -0.28556559   3.97409662
O   -2.66222250  -1.12102525  -2.58481431
H   -2.10822681  -0.47674833  -3.05002319
C   -3.89560920  -0.48893303  -2.28191094
H   -4.50736602  -1.22851906  -1.75822086
H   -4.44250591  -0.16989911  -3.18296514
H   -3.77516257   0.38390334  -1.62128501
O   -0.42929698   3.83467504  -0.33232983
H    0.49295498   3.54793554  -0.40752994
C   -0.51191539   5.15645923  -0.84085172
H   -1.55715403   5.46379049  -0.74860808
H   -0.22935882   5.22179357  -1.90324079
H    0.10514136   5.87002501  -0.27265968
O   -1.78764103  -1.56628358   3.92709400
H   -1.61048593  -0.61860146   3.83255340
C   -3.01522384  -1.84216208   3.27175799
H   -3.19950599  -2.91362191   3.38794373
H   -2.98227460  -1.61628868   2.19441270
H   -3.86504571  -1.29960278   3.71471343
O   -0.95025232   0.80622883  -3.73398590
H   -0.00078201   0.93258450  -3.87877419
C   -1.52790664   2.08515195  -3.52612801
H   -2.59728663   1.92437953  -3.36468491
H   -1.41020571   2.75125104  -4.39517106
H   -1.12177833   2.59612601  -2.63914287
O   -1.12858583   1.04806008   3.04719735
H   -0.83633784   0.58463617   2.24829018
C   -0.46209556   2.29975995   3.08684480
H   -0.80274691   2.80850701   3.99272464
H   -0.70621221   2.93902902   2.22398940
H    0.63284144   2.19687390   3.14433184
O   -2.16867910  -2.47810291  -0.18500232
H   -2.38788296  -2.09701417  -1.04821974
C   -1.82166001  -3.83820057  -0.39054034
H   -1.57768157  -4.25205642   0.59164247
H   -0.94066591  -3.95878423  -1.04022204
H   -2.64908436  -4.42887336  -0.81392189
O   -0.37749195  -0.54762256   0.85065733
H   -0.89504763  -1.31426340   0.56287059
C   -0.29625374   0.35203841  -0.24320933
H    0.28984564   1.20960065   0.09819911
H   -1.28301215   0.71957227  -0.56570590
H    0.21413709  -0.08460355  -1.11591909
O   -0.07080925  -3.50288246   2.78941464
H   -0.66932539  -2.83848342   3.16194063
C   -0.25190873  -4.70426123   3.52182561
H    0.42961803  -5.44171466   3.08919540
H   -1.27683022  -5.09950378   3.44374494
H   -0.00251874  -4.59355464   4.58874923
O    3.13418744   0.40476896  -1.52768023
H    2.69050045  -0.45354704  -1.59738510
C    4.32859387   0.21295773  -0.78664345
H    4.81572798   1.18939261  -0.71764727
H    5.02667814  -0.48286718  -1.27784949
H    4.14079413  -0.14792939   0.23671821
O    1.48629885  -3.69830886   0.44805330
H    0.91841590  -3.60265044   1.22701524
C    2.83359571  -3.66734539   0.89118558
H    3.45955778  -3.77629855   0.00136206
H    3.07359688  -4.49200704   1.58046778
H    3.09851947  -2.71708458   1.38067218
O    1.81906049   1.32905046  -3.86793044
H    2.37492552   1.01501235  -3.13935826
C    2.16321232   2.68210641  -4.11959069
H    1.52785647   3.01998420  -4.94278370
H    3.21367704   2.80358050  -4.42707280
H    1.97672897   3.33644807  -3.25365866
O    1.88427766  -2.06020937  -1.81791607
H    1.68264481  -2.67066618  -1.09327136
C    0.93875208  -2.29024171  -2.85019524
H    1.18039285  -1.59450115  -3.65830414
H   -0.09660545  -2.09495547  -2.52976521
H    0.99040520  -3.31354712  -3.25387250
