90
Energy:   -542.16045998
O   -3.65642006   2.65886874  -0.15435040
H   -2.80524135   2.95662619  -0.50826927
C   -3.38961500   1.79846342   0.94157457
H   -4.35897314   1.47234983   1.32820088
H   -2.84924833   2.30386237   1.75726636
H   -2.81950194   0.90255408   0.64986428
O    3.34540423   1.90686032   0.26335027
H    3.15918620   1.05880527   0.69294166
C    4.19255935   2.64932802   1.12567485
H    4.39230357   3.60140091   0.62653093
H    5.15722708   2.15014287   1.30735502
H    3.72454235   2.86564317   2.09878594
O    2.55714260  -0.48828007   1.47751286
H    1.62754792  -0.63621909   1.24862195
C    2.67400651  -0.58632626   2.88792541
H    3.72710976  -0.41714353   3.12841646
H    2.39195814  -1.57995039   3.26994260
H    2.07671222   0.17208564   3.41785771
O   -2.78964913  -1.10852775  -2.27378017
H   -2.11976344  -0.81577313  -2.90936744
C   -3.87987935  -0.20404404  -2.35020717
H   -4.62507107  -0.54851045  -1.62804556
H   -4.35072295  -0.18872347  -3.34562111
H   -3.59703655   0.82637062  -2.08370592
O   -1.19517647   3.59116478  -1.23278620
H   -0.22830360   3.53752278  -1.25929403
C   -1.55986639   4.93202559  -1.51849116
H   -2.65189038   4.97463065  -1.48452619
H   -1.23655295   5.25647434  -2.51997943
H   -1.16716098   5.64648892  -0.77815208
O   -0.91081892  -0.47972810   4.16462973
H   -0.61316797   0.37548635   3.82048526
C   -2.30471046  -0.58029371   3.92073077
H   -2.62343984  -1.54922896   4.31450897
H   -2.55201213  -0.54966672   2.84803268
H   -2.88376137   0.20373712   4.43334470
O   -0.67697388  -0.14189905  -3.91063245
H    0.27182533  -0.27672351  -3.76912031
C   -0.89017083   1.24720215  -4.10422657
H   -1.96375149   1.38125796  -4.26214683
H   -0.36349702   1.63908875  -4.98843069
H   -0.59604471   1.84849884  -3.22974990
O   -0.05836315   1.75559093   2.63606385
H   -0.06471658   1.12372826   1.90180744
C    0.16781555   3.04591213   2.09159330
H    0.17194458   3.74523967   2.93207479
H   -0.62400549   3.35719361   1.39237903
H    1.13770809   3.12592961   1.57614884
O   -2.62338595  -1.78956762   0.45200543
H   -2.77740253  -1.61948237  -0.48914980
C   -2.48092059  -3.19118905   0.61842289
H   -2.30811697  -3.36508040   1.68396778
H   -1.62305849  -3.60043557   0.06221498
H   -3.38392763  -3.74837663   0.32363887
O   -0.20758789  -0.35393620   0.78751104
H   -0.97857231  -0.94045236   0.78525553
C   -0.06248808   0.17127769  -0.52230964
H    0.81027560   0.82957315  -0.50191743
H   -0.93225828   0.76725480  -0.84025366
H    0.11732348  -0.61075861  -1.27654061
O    0.04661008  -2.91488050   3.10203025
H   -0.28939998  -2.08001996   3.46053883
C   -0.09801181  -3.90455352   4.10809466
H    0.28518563  -4.83829057   3.68764247
H   -1.14812857  -4.06619681   4.39775580
H    0.48163630  -3.67578382   5.01608686
O    1.59775070   3.40248353  -1.33336317
H    2.23780150   2.90808313  -0.80014044
C    1.98938450   3.28752051  -2.69201701
H    1.25786715   3.85001977  -3.27849986
H    1.98493872   2.24579025  -3.04916632
H    2.98487204   3.71691487  -2.88541397
O    1.02723433  -3.85171873   0.63371397
H    0.67694751  -3.50398925   1.46726458
C    2.41990055  -4.06014312   0.80568446
H    2.79836592  -4.45183040  -0.14238212
H    2.64569542  -4.79580776   1.59346079
H    2.96426237  -3.13007487   1.03244552
O    2.03048462  -0.71709865  -3.17148318
H    1.72669682  -1.58674605  -2.87173388
C    3.23286664  -0.41932014  -2.48000705
H    3.56116612   0.56330532  -2.82950936
H    4.03564969  -1.14277925  -2.69195898
H    3.09358349  -0.36457782  -1.38896131
O    1.04122485  -3.08719188  -2.08299777
H    1.01314911  -3.38713798  -1.16230924
C   -0.14225234  -3.54133441  -2.71992011
H   -0.09428532  -3.19484011  -3.75583809
H   -1.05577195  -3.12867877  -2.26387782
H   -0.22479101  -4.63944552  -2.73072212
