90
Energy:   -535.59873023
O   -3.07077898   2.24680901  -1.83160017
H   -2.34312491   2.78422581  -1.48500817
C   -3.73020619   1.65075686  -0.72597303
H   -4.54680581   1.04913273  -1.13426052
H   -4.16416283   2.39373176  -0.03862503
H   -3.07181034   0.98449662  -0.14684478
O    1.23603495   3.65279113   0.99037209
H    1.38483441   2.91370700   1.59867846
C    2.32967761   3.69420983   0.08772930
H    2.14596364   4.53219187  -0.59015010
H    2.41647680   2.77824817  -0.51746279
H    3.29215684   3.86898152   0.59356123
O    1.43922100   1.24899224   2.47645804
H    0.94941363   0.67496951   1.86899617
C    1.78705382   0.47527584   3.61351962
H    2.33804100   1.13708147   4.28724926
H    2.43804589  -0.37741358   3.36470761
H    0.90653557   0.09409194   4.15404138
O   -1.59176779  -1.55543052  -2.89006450
H   -0.95261162  -0.93747382  -3.27481402
C   -2.87778443  -1.20030590  -3.37233151
H   -3.58544559  -1.90625877  -2.92923849
H   -2.95777628  -1.27900248  -4.46786129
H   -3.17792766  -0.18355517  -3.07415483
O   -0.97213007   3.81685975  -0.76305694
H   -0.20956245   3.80693936  -0.16571659
C   -1.28070883   5.17259739  -1.04463882
H   -2.14169725   5.16539448  -1.71853218
H   -0.45644865   5.70031869  -1.54949795
H   -1.55735954   5.74178639  -0.14338103
O   -1.82773761  -1.26787813   3.72644345
H   -2.06283436  -0.40637338   3.35099392
C   -1.98082010  -1.18019263   5.13406939
H   -1.71200113  -2.15882773   5.54088004
H   -3.01617746  -0.95760343   5.43617287
H   -1.31702185  -0.42777180   5.58795496
O    0.25781544   0.37650421  -3.82723655
H    1.15973479   0.55638562  -3.52292186
C   -0.39630420   1.62395805  -3.99611576
H   -1.41069301   1.40288515  -4.33908414
H    0.08909616   2.25958888  -4.75317406
H   -0.47019210   2.19582572  -3.05788057
O   -2.15884932   1.19110230   2.39273183
H   -1.50316070   0.86292114   1.75964983
C   -1.88072543   2.56204552   2.62873090
H   -2.62843963   2.91572612   3.34379643
H   -1.96251136   3.17548139   1.71780564
H   -0.88421003   2.72420432   3.06854779
O   -1.55715392  -2.52146723  -0.26690649
H   -1.66927152  -2.20026845  -1.17392593
C   -2.80927391  -2.40329973   0.38942097
H   -2.66502058  -2.76933250   1.40956615
H   -3.59629028  -3.01144329  -0.08338342
H   -3.16250862  -1.36182585   0.44716811
O   -0.32104627  -0.15444722   0.75968866
H   -0.59446000  -1.06611051   0.57930506
C    0.01965396   0.44595743  -0.47965447
H    0.32522356   1.47213280  -0.25812223
H   -0.82907377   0.48619345  -1.18023968
H    0.85994482  -0.05988104  -0.98046985
O    0.47972754  -2.61386104   2.81957377
H   -0.32594718  -2.18175286   3.13987682
C    0.18792225  -3.99065489   2.64118618
H    1.10599311  -4.46216877   2.28020727
H   -0.60187798  -4.16457369   1.89369359
H   -0.10545998  -4.48812928   3.57885533
O    3.72900605   0.29570772  -0.17523537
H    3.30037058  -0.46261809   0.24860053
C    4.62199488   0.86752202   0.76717279
H    5.09615571   1.72011386   0.27346856
H    5.41467667   0.16977380   1.07955130
H    4.10919499   1.23710923   1.66895929
O    2.48591803  -1.96086274   0.93063121
H    1.81330281  -2.18898915   1.58939550
C    2.24474396  -2.75145395  -0.22233643
H    3.01115956  -2.48186368  -0.95405593
H    1.25896776  -2.55661738  -0.67295969
H    2.32822026  -3.83123236  -0.02261757
O    2.81239951   0.89062421  -2.74961318
H    3.16848397   0.74131608  -1.86116835
C    3.75048612   0.37639466  -3.68132948
H    3.33370978   0.55279706  -4.67665098
H    3.91378612  -0.70663699  -3.56664350
H    4.72677587   0.88285628  -3.62536268
O   -0.25799940  -4.99017990  -0.78048291
H   -0.71363496  -4.18570110  -0.49128855
C   -0.29261825  -5.01836769  -2.19841830
H    0.22480553  -5.93072498  -2.50722568
H    0.22681953  -4.16059817  -2.65360307
H   -1.31812036  -5.05556653  -2.59809191
