90
Energy:   -540.12292126
O   -1.36677501  -3.19841058  -2.22402266
H   -1.60832487  -2.37452239  -2.67267084
C   -2.13974360  -4.24201414  -2.79493854
H   -1.85516337  -5.16256798  -2.27814078
H   -1.94188283  -4.37870190  -3.86962217
H   -3.22222885  -4.09375414  -2.65701838
O   -1.18520350   3.64354304  -2.23053232
H   -1.60301263   3.13007004  -1.52328110
C    0.04511678   3.01385390  -2.55043443
H    0.50240156   3.60500044  -3.34850811
H   -0.08729925   1.98515021  -2.92058581
H    0.74428644   2.98981377  -1.69992800
O    3.07506749   0.46661549  -2.09606965
H    3.09975071   1.23761833  -1.51009301
C    3.74918136  -0.59489755  -1.43933963
H    3.71199838  -1.45520520  -2.11311509
H    3.26780208  -0.88252284  -0.49154059
H    4.80703359  -0.36578446  -1.23628009
O    0.90682687   3.33850635   1.45784571
H    0.31869407   2.89795041   2.08906164
C    0.24014179   4.49823992   0.98552925
H    0.91649912   4.98229369   0.27579838
H    0.01689127   5.21735901   1.78914874
H   -0.69785814   4.26436924   0.45804660
O    0.92644201  -0.45074488  -3.68647217
H    1.68787089  -0.09763939  -3.20277201
C    1.23086562  -1.78723356  -4.05206491
H    0.36282316  -2.16966176  -4.59588120
H    1.40153385  -2.43819422  -3.18034253
H    2.10728889  -1.85759028  -4.71517087
O    2.97887786   2.58762401  -0.26833237
H    2.28691997   2.87521342   0.34559749
C    3.66267606   3.74586665  -0.71936205
H    4.43844389   3.40380562  -1.40977042
H    4.15259852   4.29619070   0.09911016
H    3.00565141   4.44312179  -1.26243775
O   -0.77007922   2.12539843   3.36665399
H   -1.37950079   1.37613666   3.44172351
C   -0.29727729   2.42787328   4.66953582
H    0.38771965   3.27384833   4.56662517
H    0.25759775   1.59278178   5.12507200
H   -1.10503863   2.72432268   5.35686159
O   -0.56956917  -0.05549032   0.84450963
H    0.10538640  -0.15774476   1.53182491
C    0.06502889  -0.23320609  -0.41176907
H   -0.70939847  -0.11477122  -1.17447521
H    0.50714254  -1.23523432  -0.52688759
H    0.84900246   0.51644476  -0.60199621
O   -2.24076094   2.06561453  -0.12623708
H   -1.65155423   1.42678049   0.30172295
C   -3.18850652   2.49129912   0.83973638
H   -3.84410186   3.21030820   0.34103217
H   -2.72146450   2.99503863   1.70048931
H   -3.81177519   1.66534719   1.21672034
O   -1.88696633  -0.76811649  -3.53566498
H   -0.95955893  -0.52339242  -3.67149175
C   -2.65062629   0.42740190  -3.52602001
H   -3.69244181   0.13346729  -3.37204575
H   -2.58860634   0.97929293  -4.47699170
H   -2.36387469   1.10858591  -2.70960149
O    0.17089894  -3.97188115  -0.00650066
H   -0.34679793  -3.73830614  -0.79126556
C   -0.67762821  -3.84268859   1.12303231
H   -0.07870991  -4.10945577   1.99802793
H   -1.54468494  -4.52048672   1.08328749
H   -1.04648277  -2.81443942   1.26241414
O   -2.55449414  -0.07088757   3.57461753
H   -2.95257555  -0.45771055   2.78068904
C   -1.76086278  -1.07284614   4.19005399
H   -1.32001507  -0.62032505   5.08244581
H   -0.94053122  -1.42218362   3.54368197
H   -2.35042408  -1.94749960   4.50656015
O    1.54155806  -0.80806995   2.59567740
H    1.98045636  -1.55244120   2.15783837
C    2.43033558   0.29707267   2.56006700
H    1.92027212   1.12657076   3.05731279
H    2.67530050   0.61286872   1.53388847
H    3.37152702   0.10335018   3.09803316
O    2.55042574  -2.93365658   1.05027395
H    1.76672256  -3.33969202   0.65106495
C    3.52421521  -3.95151154   1.21831899
H    4.40012669  -3.47697606   1.66896338
H    3.83467442  -4.40474876   0.26387233
H    3.18730120  -4.75539536   1.89139929
O   -3.14732745  -1.15104630   1.01036640
H   -2.25347060  -0.82801745   0.82302828
C   -3.85324776  -1.20151186  -0.21913086
H   -4.85778380  -1.56732504   0.01015776
H   -3.39553410  -1.89253859  -0.94422230
H   -3.95021222  -0.21296858  -0.69469095
