90
Energy:   -535.30200980
O   -3.50534373  -1.07936980  -1.06547851
H   -3.31593270  -0.66473092  -1.92024242
C   -3.91275395  -0.05596408  -0.17150344
H   -4.12210798  -0.54033638   0.78611839
H   -4.82929699   0.45734546  -0.50201746
H   -3.13034714   0.70140281  -0.00714924
O    1.67503923   3.42952165   0.36443832
H    1.79619520   2.72171668   1.01463570
C    2.61155879   3.21930094  -0.68020141
H    2.46134765   4.02522050  -1.40367599
H    2.45999121   2.26069207  -1.20065662
H    3.65508527   3.26399069  -0.33115607
O    1.74039171   1.19419722   2.06680378
H    1.20931506   0.52384340   1.61182397
C    1.89133099   0.78119010   3.41557219
H    2.49182193   1.54737949   3.91341721
H    2.41937897  -0.18066930   3.50921589
H    0.92966614   0.70277451   3.94644793
O   -2.65336077   0.18389105  -3.43053181
H   -1.76266420   0.51750521  -3.61433738
C   -3.36630494   0.16188420  -4.65681076
H   -4.36715978  -0.21632627  -4.43157391
H   -2.90866155  -0.50654490  -5.40282845
H   -3.47224988   1.16217379  -5.10511171
O   -0.69011491   4.43550730  -0.76258105
H    0.13402311   4.10938974  -0.37159879
C   -0.79936490   5.81460613  -0.44843996
H   -1.73292338   6.16583439  -0.89631546
H    0.02577038   6.41253371  -0.86606625
H   -0.84952282   6.00109833   0.63575660
O   -1.54352575  -0.83410593   4.21626258
H   -1.68506057  -0.04621541   3.67071725
C   -2.69607766  -1.01087057   5.02429236
H   -2.51980392  -1.90238435   5.63225283
H   -3.60942043  -1.17682338   4.43180440
H   -2.87251020  -0.16309359   5.70467688
O    0.00320240   1.01726826  -3.86477657
H    0.89800022   0.70113283  -3.67030672
C   -0.03260466   2.40742898  -3.58423279
H   -1.04733188   2.74718116  -3.80869291
H    0.66680871   2.98535810  -4.20840921
H    0.17703996   2.63342202  -2.52699412
O   -1.79636165   1.24487398   2.35546153
H   -1.25300652   0.76708169   1.71133188
C   -1.62717946   2.63287172   2.11593401
H   -2.24595970   3.15606509   2.85000819
H   -1.96106029   2.93474958   1.11086154
H   -0.58534368   2.96363260   2.24992198
O   -1.60184876  -2.80109252   0.04059824
H   -2.36217108  -2.30194934  -0.29285242
C   -1.95479259  -3.32568840   1.31054454
H   -1.08734502  -3.88486112   1.67157886
H   -2.81061181  -4.01706845   1.26212547
H   -2.18453389  -2.53936555   2.04654226
O   -0.22648220  -0.39155094   0.71210118
H   -0.51997751  -1.30827487   0.60300943
C   -0.01830222   0.15066130  -0.58219429
H    0.31185569   1.18337063  -0.44079979
H   -0.93679015   0.16602777  -1.18958306
H    0.76245356  -0.38314358  -1.14633088
O    0.63536892  -2.41368198   3.41474826
H   -0.12457269  -1.89493098   3.71774898
C    1.13226677  -3.13960559   4.52769984
H    1.98771183  -3.71828378   4.16877018
H    0.39293479  -3.84363882   4.94061965
H    1.48055458  -2.48450494   5.34152787
O    3.59134188  -0.30431288  -0.47344528
H    3.18663355  -0.93076382   0.14477286
C    4.67667454   0.31911730   0.19432833
H    5.12106949   1.02138453  -0.51617787
H    5.45591470  -0.39671744   0.49952131
H    4.35950563   0.88723560   1.08282302
O    2.47886655  -2.21502963   1.28528447
H    1.85077094  -2.26919870   2.02080123
C    2.15006025  -3.24073965   0.36206231
H    2.86715815  -3.16531580  -0.45986655
H    1.13778742  -3.12755884  -0.05659167
H    2.23514285  -4.24848275   0.79794318
O    2.54352624   0.05115184  -3.05651872
H    2.97940342  -0.00778157  -2.19340737
C    2.61904819  -1.22809146  -3.66509639
H    2.12348486  -1.14381026  -4.63607469
H    2.10087502  -2.00679602  -3.08381064
H    3.65597465  -1.55602118  -3.83836766
O   -0.18144434  -3.54292995  -2.32982271
H   -0.64115753  -3.38584235  -1.49172335
C   -0.77536809  -2.70667053  -3.30985258
H   -0.24570300  -2.89628375  -4.24739560
H   -0.67590579  -1.63599464  -3.07207598
H   -1.84198878  -2.92959738  -3.46923031
