
                                 *****************
                                 * O   R   C   A *
                                 *****************

           --- An Ab Initio, DFT and Semiempirical electronic structure package ---

                  #######################################################
                  #                        -***-                        #
                  #          Department of theory and spectroscopy      #
                  #               Directorship: Frank Neese             #
                  #        Max Planck Institute fuer Kohlenforschung    #
                  #                Kaiser Wilhelm Platz 1               #
                  #                 D-45470 Muelheim/Ruhr               #
                  #                      Germany                        #
                  #                                                     #
                  #                  All rights reserved                #
                  #                        -***-                        #
                  #######################################################


                         Program Version 4.2.0 -  RELEASE  -


 With contributions from (in alphabetic order):
   Daniel Aravena         : Magnetic Suceptibility
   Michael Atanasov       : Ab Initio Ligand Field Theory (pilot matlab implementation)
   Alexander A. Auer      : GIAO ZORA, VPT2
   Ute Becker             : Parallelization
   Giovanni Bistoni       : ED, misc. LED, open-shell LED, HFLED
   Martin Brehm           : Molecular dynamics
   Dmytro Bykov           : SCF Hessian
   Vijay G. Chilkuri      : MRCI spin determinant printing, contributions to CSF-ICE
   Dipayan Datta          : RHF DLPNO-CCSD density
   Achintya Kumar Dutta   : EOM-CC, STEOM-CC
   Dmitry Ganyushin       : Spin-Orbit,Spin-Spin,Magnetic field MRCI
   Miquel Garcia          : C-PCM Hessian, Gaussian charge scheme
   Yang Guo               : DLPNO-NEVPT2, CIM, IAO-localization
   Andreas Hansen         : Spin unrestricted coupled pair/coupled cluster methods
   Benjamin Helmich-Paris : CASSCF linear response (MC-RPA)
   Lee Huntington         : MR-EOM, pCC
   Robert Izsak           : Overlap fitted RIJCOSX, COSX-SCS-MP3, EOM
   Christian Kollmar      : KDIIS, OOCD, Brueckner-CCSD(T), CCSD density
   Simone Kossmann        : Meta GGA functionals, TD-DFT gradient, OOMP2, MP2 Hessian
   Martin Krupicka        : AUTO-CI
   Lucas Lang             : DCDCAS
   Dagmar Lenk            : GEPOL surface, SMD
   Dimitrios Liakos       : Extrapolation schemes; Compound Job, initial MDCI parallelization
   Dimitrios Manganas     : Further ROCIS development; embedding schemes
   Dimitrios Pantazis     : SARC Basis sets
   Taras Petrenko         : DFT Hessian,TD-DFT gradient, ASA, ECA, R-Raman, ABS, FL, XAS/XES, NRVS
   Peter Pinski           : DLPNO-MP2, DLPNO-MP2 Gradient
   Christoph Reimann      : Effective Core Potentials
   Marius Retegan         : Local ZFS, SOC
   Christoph Riplinger    : Optimizer, TS searches, QM/MM, DLPNO-CCSD(T), (RO)-DLPNO pert. Triples
   Tobias Risthaus        : Range-separated hybrids, TD-DFT gradient, RPA, STAB
   Michael Roemelt        : Original ROCIS implementation
   Masaaki Saitow         : Open-shell DLPNO-CCSD energy and density
   Barbara Sandhoefer     : DKH picture change effects
   Avijit Sen             : IP-ROCIS
   Kantharuban Sivalingam : CASSCF convergence, NEVPT2, FIC-MRCI
   Bernardo de Souza      : ESD, SOC TD-DFT
   Georgi Stoychev        : AutoAux, RI-MP2 NMR
   Willem Van den Heuvel  : Paramagnetic NMR
   Boris Wezisla          : Elementary symmetry handling
   Frank Wennmohs         : Technical directorship


 We gratefully acknowledge several colleagues who have allowed us to
 interface, adapt or use parts of their codes:
   Stefan Grimme, W. Hujo, H. Kruse,             : VdW corrections, initial TS optimization,
                  C. Bannwarth                     DFT functionals, gCP, sTDA/sTD-DF
   Ed Valeev, F. Pavosevic, A. Kumar             : LibInt (2-el integral package), F12 methods
   Garnet Chan, S. Sharma, J. Yang, R. Olivares  : DMRG
   Ulf Ekstrom                                   : XCFun DFT Library
   Mihaly Kallay                                 : mrcc  (arbitrary order and MRCC methods)
   Andreas Klamt, Michael Diedenhofen            : otool_cosmo (COSMO solvation model)
   Jiri Pittner, Ondrej Demel                    : Mk-CCSD
   Frank Weinhold                                : gennbo (NPA and NBO analysis)
   Christopher J. Cramer and Donald G. Truhlar   : smd solvation model
   Lars Goerigk                                  : TD-DFT with DH, B97 family of functionals
   V. Asgeirsson, H. Jonsson                     : NEB implementation
   FAccTs GmbH                                   : IRC, NEB, NEB-TS, Multilevel, MM, QM/MM, CI optimization
   S Lehtola, MJT Oliveira, MAL Marques          : LibXC Library


 Your calculation uses the libint2 library for the computation of 2-el integrals
 For citations please refer to: http://libint.valeyev.net

 Your ORCA version has been built with support for libXC version: 4.2.3
 For citations please refer to: https://tddft.org/programs/libxc/

 This ORCA versions uses:
   CBLAS   interface :  Fast vector & matrix operations
   LAPACKE interface :  Fast linear algebra routines
   SCALAPACK package :  Parallel linear algebra routines


----- Orbital basis set information -----
Your calculation utilizes the basis: def2-TZVP
   F. Weigend and R. Ahlrichs, Phys. Chem. Chem. Phys. 7, 3297 (2005).

================================================================================
                                        WARNINGS
                       Please study these warnings very carefully!
================================================================================


WARNING: The frozen-core approximation for MP2-gradient calculations is turned on by default.

INFO   : the flag for use of LIBINT has been found!

================================================================================
                                       INPUT FILE
================================================================================
NAME = 12h2o.su.etal.mol0,2,8,9,10-orca.engrad-mp2.def2tzvp.frozencore.inp
|  1> # 12h2o.su.etal.mol0,2,8,9,10
|  2> ! MP2 def2-TZVP EnGrad TightSCF
|  3> 
|  4> %pal
|  5>     nprocs 6
|  6> end
|  7> 
|  8> %maxcore 8000
|  9> 
| 10> %scf
| 11>     ConvForced true
| 12> end
| 13> 
| 14> *xyz 0 1
| 15> O   1.794470000   0.923410000   2.768350000
| 16> H   2.338250000   1.359750000   3.430940000
| 17> H   0.879480000   1.303000000   2.865760000
| 18> O   0.923410000  -1.794470000  -2.768350000
| 19> H   1.359750000  -2.338250000  -3.430940000
| 20> H   1.303000000  -0.879480000  -2.865760000
| 21> O   1.752130000   0.741530000  -2.896280000
| 22> H   2.036450000   0.920500000  -1.984040000
| 23> H   0.921210000   1.242140000  -2.984230000
| 24> O   0.741530000  -1.752130000   2.896280000
| 25> H   0.920500000  -2.036450000   1.984040000
| 26> H   1.242140000  -0.921210000   2.984230000
| 27> O  -0.923410000   1.794470000  -2.768350000
| 28> H  -1.359750000   2.338250000  -3.430940000
| 29> H  -1.303000000   0.879480000  -2.865760000
| 30> *
| 31> 
| 32>                          ****END OF INPUT****
================================================================================

                     *******************************
                     * Energy+Gradient Calculation *
                     *******************************

---------------------------------
CARTESIAN COORDINATES (ANGSTROEM)
---------------------------------
  O      1.794470    0.923410    2.768350
  H      2.338250    1.359750    3.430940
  H      0.879480    1.303000    2.865760
  O      0.923410   -1.794470   -2.768350
  H      1.359750   -2.338250   -3.430940
  H      1.303000   -0.879480   -2.865760
  O      1.752130    0.741530   -2.896280
  H      2.036450    0.920500   -1.984040
  H      0.921210    1.242140   -2.984230
  O      0.741530   -1.752130    2.896280
  H      0.920500   -2.036450    1.984040
  H      1.242140   -0.921210    2.984230
  O     -0.923410    1.794470   -2.768350
  H     -1.359750    2.338250   -3.430940
  H     -1.303000    0.879480   -2.865760

----------------------------
CARTESIAN COORDINATES (A.U.)
----------------------------
  NO LB      ZA    FRAG     MASS         X           Y           Z
   0 O     8.0000    0    15.999    3.391057    1.744992    5.231423
   1 H     1.0000    0     1.008    4.418652    2.569555    6.483537
   2 H     1.0000    0     1.008    1.661976    2.462313    5.415502
   3 O     8.0000    0    15.999    1.744992   -3.391057   -5.231423
   4 H     1.0000    0     1.008    2.569555   -4.418652   -6.483537
   5 H     1.0000    0     1.008    2.462313   -1.661976   -5.415502
   6 O     8.0000    0    15.999    3.311046    1.401289   -5.473176
   7 H     1.0000    0     1.008    3.848333    1.739493   -3.749292
   8 H     1.0000    0     1.008    1.740835    2.347304   -5.639377
   9 O     8.0000    0    15.999    1.401289   -3.311046    5.473176
  10 H     1.0000    0     1.008    1.739493   -3.848333    3.749292
  11 H     1.0000    0     1.008    2.347304   -1.740835    5.639377
  12 O     8.0000    0    15.999   -1.744992    3.391057   -5.231423
  13 H     1.0000    0     1.008   -2.569555    4.418652   -6.483537
  14 H     1.0000    0     1.008   -2.462313    1.661976   -5.415502

--------------------------------
INTERNAL COORDINATES (ANGSTROEM)
--------------------------------
 O      0   0   0     0.000000000000     0.00000000     0.00000000
 H      1   0   0     0.961828878803     0.00000000     0.00000000
 H      1   2   0     0.995381322057   106.21731035     0.00000000
 O      1   2   3     6.229017908788   152.78811022   148.20682389
 H      4   1   2     0.961828878803   142.70840549    32.77530239
 H      4   1   2     0.995381322057    68.44287781   304.10042923
 O      6   4   1     1.682356278379   171.61043709   305.15113011
 H      7   6   4     0.972136791249   103.79460456    70.64587838
 H      7   6   4     0.974050112161   105.61118924   321.69395179
 O      1   2   3     2.878117964938   126.72240291   256.40918860
 H     10   1   2     0.972136791249    99.37069922   223.07499144
 H     10   1   2     0.974050112161    12.30570018   335.59052045
 O      9   7   6     1.937600461318   161.54375213    39.05245435
 H     13   9   7     0.961828878803   121.08403650   202.75419110
 H     13   9   7     0.995381322057    95.17003195   315.21089530

---------------------------
INTERNAL COORDINATES (A.U.)
---------------------------
 O      0   0   0     0.000000000000     0.00000000     0.00000000
 H      1   0   0     1.817593168635     0.00000000     0.00000000
 H      1   2   0     1.880998097508   106.21731035     0.00000000
 O      1   2   3    11.771137930900   152.78811022   148.20682389
 H      4   1   2     1.817593168635   142.70840549    32.77530239
 H      4   1   2     1.880998097508    68.44287781   304.10042923
 O      6   4   1     3.179192625819   171.61043709   305.15113011
 H      7   6   4     1.837072300170   103.79460456    70.64587838
 H      7   6   4     1.840687952699   105.61118924   321.69395179
 O      1   2   3     5.438854734852   126.72240291   256.40918860
 H     10   1   2     1.837072300170    99.37069922   223.07499144
 H     10   1   2     1.840687952699    12.30570018   335.59052045
 O      9   7   6     3.661534228851   161.54375213    39.05245435
 H     13   9   7     1.817593168635   121.08403650   202.75419110
 H     13   9   7     1.880998097508    95.17003195   315.21089530

---------------------
BASIS SET INFORMATION
---------------------
There are 2 groups of distinct atoms

 Group   1 Type O   : 11s6p2d1f contracted to 5s3p2d1f pattern {62111/411/11/1}
 Group   2 Type H   : 5s1p contracted to 3s1p pattern {311/1}

Atom   0O    basis set group =>   1
Atom   1H    basis set group =>   2
Atom   2H    basis set group =>   2
Atom   3O    basis set group =>   1
Atom   4H    basis set group =>   2
Atom   5H    basis set group =>   2
Atom   6O    basis set group =>   1
Atom   7H    basis set group =>   2
Atom   8H    basis set group =>   2
Atom   9O    basis set group =>   1
Atom  10H    basis set group =>   2
Atom  11H    basis set group =>   2
Atom  12O    basis set group =>   1
Atom  13H    basis set group =>   2
Atom  14H    basis set group =>   2


           ************************************************************
           *        Program running with 6 parallel MPI-processes     *
           *              working on a common directory               *
           ************************************************************
------------------------------------------------------------------------------
                           ORCA GTO INTEGRAL CALCULATION
------------------------------------------------------------------------------

                         BASIS SET STATISTICS AND STARTUP INFO

 # of primitive gaussian shells          ...  160
 # of primitive gaussian functions       ...  310
 # of contracted shells                  ...   95
 # of contracted basis functions         ...  215
 Highest angular momentum                ...    3
 Maximum contraction depth               ...    6
 Integral package used                   ... LIBINT
 Integral threshhold            Thresh   ...  2.500e-11
 Primitive cut-off              TCut     ...  2.500e-12


------------------------------ INTEGRAL EVALUATION ----------------------------


 * One electron integrals 
 Pre-screening matrix                    ... done
 Shell pair data                         ... done (   0.001 sec)



           ************************************************************
           *        Program running with 6 parallel MPI-processes     *
           *              working on a common directory               *
           ************************************************************
-------------------------------------------------------------------------------
                                 ORCA SCF
-------------------------------------------------------------------------------

------------
SCF SETTINGS
------------
Hamiltonian:
 Ab initio Hamiltonian  Method          .... Hartree-Fock(GTOs)


General Settings:
 Integral files         IntName         .... 12h2o.su.etal.mol0,2,8,9,10-orca.engrad-mp2.def2tzvp.frozencore
 Hartree-Fock type      HFTyp           .... RHF
 Total Charge           Charge          ....    0
 Multiplicity           Mult            ....    1
 Number of Electrons    NEL             ....   50
 Basis Dimension        Dim             ....  215
 Nuclear Repulsion      ENuc            ....    166.9958422328 Eh

Convergence Acceleration:
 DIIS                   CNVDIIS         .... on
   Start iteration      DIISMaxIt       ....    12
   Startup error        DIISStart       ....  0.200000
   # of expansion vecs  DIISMaxEq       ....     5
   Bias factor          DIISBfac        ....   1.050
   Max. coefficient     DIISMaxC        ....  10.000
 Newton-Raphson         CNVNR           .... off
 SOSCF                  CNVSOSCF        .... on
   Start iteration      SOSCFMaxIt      ....   150
   Startup grad/error   SOSCFStart      ....  0.003300
 Level Shifting         CNVShift        .... on
   Level shift para.    LevelShift      ....    0.2500
   Turn off err/grad.   ShiftErr        ....    0.0010
 Zerner damping         CNVZerner       .... off
 Static damping         CNVDamp         .... on
   Fraction old density DampFac         ....    0.7000
   Max. Damping (<1)    DampMax         ....    0.9800
   Min. Damping (>=0)   DampMin         ....    0.0000
   Turn off err/grad.   DampErr         ....    0.1000
 Fernandez-Rico         CNVRico         .... off

SCF Procedure:
 Maximum # iterations   MaxIter         ....   125
 SCF integral mode      SCFMode         .... Direct
   Integral package                     .... LIBINT
 Reset frequency        DirectResetFreq ....    20
 Integral Threshold     Thresh          ....  2.500e-11 Eh
 Primitive CutOff       TCut            ....  2.500e-12 Eh

Convergence Tolerance:
 Convergence Check Mode ConvCheckMode   .... Total+1el-Energy
 Convergence forced     ConvForced      .... 1
 Energy Change          TolE            ....  1.000e-08 Eh
 1-El. energy change                    ....  1.000e-05 Eh
 Orbital Gradient       TolG            ....  1.000e-05
 Orbital Rotation angle TolX            ....  1.000e-05
 DIIS Error             TolErr          ....  5.000e-07


Diagonalization of the overlap matrix:
Smallest eigenvalue                        ... 4.596e-03
Time for diagonalization                   ...    0.008 sec
Threshold for overlap eigenvalues          ... 1.000e-08
Number of eigenvalues below threshold      ... 0
Time for construction of square roots      ...    0.004 sec
Total time needed                          ...    0.011 sec

-------------------
DFT GRID GENERATION
-------------------

General Integration Accuracy     IntAcc      ...  4.340
Radial Grid Type                 RadialGrid  ... Gauss-Chebyshev
Angular Grid (max. acc.)         AngularGrid ... Lebedev-110
Angular grid pruning method      GridPruning ... 3 (G Style)
Weight generation scheme         WeightScheme... Becke
Basis function cutoff            BFCut       ...    1.0000e-11
Integration weight cutoff        WCut        ...    1.0000e-14
Grids for H and He will be reduced by one unit

# of grid points (after initial pruning)     ...  16520 (   0.0 sec)
# of grid points (after weights+screening)   ...  15931 (   0.0 sec)
nearest neighbour list constructed           ...    0.0 sec
Grid point re-assignment to atoms done       ...    0.0 sec
Grid point division into batches done        ...    0.0 sec
Reduced shell lists constructed in    0.0 sec

Total number of grid points                  ...    15931
Total number of batches                      ...      256
Average number of points per batch           ...       62
Average number of grid points per atom       ...     1062
Average number of shells per batch           ...    38.86 (40.91%)
Average number of basis functions per batch  ...    77.27 (35.94%)
Average number of large shells per batch     ...    26.11 (67.19%)
Average number of large basis fcns per batch ...    53.39 (69.09%)
Maximum spatial batch extension              ...  15.22, 14.76, 16.21 au
Average spatial batch extension              ...   0.76,  0.73,  0.69 au

Time for grid setup =    0.041 sec

------------------------------
INITIAL GUESS: MODEL POTENTIAL
------------------------------
Loading Hartree-Fock densities                     ... done
Calculating cut-offs                               ... done
Setting up the integral package                    ... done
Initializing the effective Hamiltonian             ... done
Starting the Coulomb interaction                   ... done (   0.0 sec)
Reading the grid                                   ... done
Mapping shells                                     ... done
Starting the XC term evaluation                    ... done (   0.0 sec)
Transforming the Hamiltonian                       ... done (   0.0 sec)
Diagonalizing the Hamiltonian                      ... done (   0.0 sec)
Back transforming the eigenvectors                 ... done (   0.0 sec)
Now organizing SCF variables                       ... done
                      ------------------
                      INITIAL GUESS DONE (   0.2 sec)
                      ------------------
--------------
SCF ITERATIONS
--------------
ITER       Energy         Delta-E        Max-DP      RMS-DP      [F,P]     Damp
               ***  Starting incremental Fock matrix formation  ***
  0   -379.8435663552   0.000000000000 0.04407477  0.00107050  0.3499433 0.7000
  1   -380.0257245690  -0.182158213872 0.02933067  0.00073790  0.2163181 0.7000
                               ***Turning on DIIS***
  2   -380.1216317728  -0.095907203742 0.01647303  0.00040825  0.1635493 0.7000
  3   -380.9772196395  -0.855587866685 0.00754338  0.00018243  0.1218528 0.7000
  4   -380.8028879453   0.174331694128 0.01684408  0.00042024  0.0862259 0.0000
  5   -380.3418444067   0.461043538585 0.00211852  0.00006808  0.0052927 0.0000
                      *** Initiating the SOSCF procedure ***
                           *** Shutting down DIIS ***
                      *** Re-Reading the Fockian *** 
                      *** Removing any level shift *** 
ITER      Energy       Delta-E        Grad      Rot      Max-DP    RMS-DP
  6   -380.31453487   0.0273095407  0.000932  0.000932  0.001374  0.000042
               *** Restarting incremental Fock matrix formation ***
  7   -380.30597890   0.0085559711  0.000316  0.000440  0.000678  0.000018
  8   -380.30598625  -0.0000073525  0.000148  0.000337  0.000500  0.000015
  9   -380.30598801  -0.0000017625  0.000062  0.000048  0.000100  0.000003
 10   -380.30598816  -0.0000001460  0.000012  0.000007  0.000020  0.000000
                  ***Gradient check signals convergence***
              ***Rediagonalizing the Fockian in SOSCF/NRSCF***

               *****************************************************
               *                     SUCCESS                       *
               *           SCF CONVERGED AFTER  11 CYCLES          *
               *****************************************************


----------------
TOTAL SCF ENERGY
----------------

Total Energy       :         -380.30598816 Eh          -10348.65205 eV

Components:
Nuclear Repulsion  :          166.99584223 Eh            4544.18789 eV
Electronic Energy  :         -547.30183039 Eh          -14892.83994 eV
One Electron Energy:         -857.65237558 Eh          -23337.90762 eV
Two Electron Energy:          310.35054519 Eh            8445.06767 eV

Virial components:
Potential Energy   :         -760.05852735 Eh          -20682.24399 eV
Kinetic Energy     :          379.75253919 Eh           10333.59194 eV
Virial Ratio       :            2.00145739


---------------
SCF CONVERGENCE
---------------

  Last Energy change         ...   -3.1574e-09  Tolerance :   1.0000e-08
  Last MAX-Density change    ...    5.0837e-06  Tolerance :   1.0000e-07
  Last RMS-Density change    ...    1.4314e-07  Tolerance :   5.0000e-09
  Last Orbital Gradient      ...    2.3068e-06  Tolerance :   1.0000e-05
  Last Orbital Rotation      ...    2.4935e-06  Tolerance :   1.0000e-05

             **** THE GBW FILE WAS UPDATED (12h2o.su.etal.mol0,2,8,9,10-orca.engrad-mp2.def2tzvp.frozencore.gbw) ****
             **** DENSITY FILE WAS UPDATED (12h2o.su.etal.mol0,2,8,9,10-orca.engrad-mp2.def2tzvp.frozencore.scfp) ****
             **** ENERGY FILE WAS UPDATED (12h2o.su.etal.mol0,2,8,9,10-orca.engrad-mp2.def2tzvp.frozencore.en.tmp) ****
             **** THE GBW FILE WAS UPDATED (12h2o.su.etal.mol0,2,8,9,10-orca.engrad-mp2.def2tzvp.frozencore.gbw) ****
             **** DENSITY FILE WAS UPDATED (12h2o.su.etal.mol0,2,8,9,10-orca.engrad-mp2.def2tzvp.frozencore.scfp) ****
----------------
ORBITAL ENERGIES
----------------

  NO   OCC          E(Eh)            E(eV) 
   0   2.0000     -20.596695      -560.4646 
   1   2.0000     -20.590740      -560.3025 
   2   2.0000     -20.568242      -559.6903 
   3   2.0000     -20.525013      -558.5140 
   4   2.0000     -20.515203      -558.2471 
   5   2.0000      -1.375357       -37.4254 
   6   2.0000      -1.368343       -37.2345 
   7   2.0000      -1.356029       -36.8994 
   8   2.0000      -1.307550       -35.5803 
   9   2.0000      -1.297167       -35.2977 
  10   2.0000      -0.742420       -20.2023 
  11   2.0000      -0.735440       -20.0123 
  12   2.0000      -0.717752       -19.5310 
  13   2.0000      -0.685013       -18.6401 
  14   2.0000      -0.677480       -18.4352 
  15   2.0000      -0.619443       -16.8559 
  16   2.0000      -0.606611       -16.5067 
  17   2.0000      -0.591372       -16.0921 
  18   2.0000      -0.553480       -15.0610 
  19   2.0000      -0.548331       -14.9209 
  20   2.0000      -0.535280       -14.5657 
  21   2.0000      -0.524341       -14.2680 
  22   2.0000      -0.499656       -13.5963 
  23   2.0000      -0.472824       -12.8662 
  24   2.0000      -0.465946       -12.6790 
  25   0.0000       0.103980         2.8294 
  26   0.0000       0.111813         3.0426 
  27   0.0000       0.151622         4.1258 
  28   0.0000       0.177316         4.8250 
  29   0.0000       0.180506         4.9118 
  30   0.0000       0.187481         5.1016 
  31   0.0000       0.194293         5.2870 
  32   0.0000       0.278771         7.5858 
  33   0.0000       0.295937         8.0529 
  34   0.0000       0.337744         9.1905 
  35   0.0000       0.463464        12.6115 
  36   0.0000       0.486607        13.2413 
  37   0.0000       0.489969        13.3327 
  38   0.0000       0.506984        13.7957 
  39   0.0000       0.511826        13.9275 
  40   0.0000       0.547841        14.9075 
  41   0.0000       0.556524        15.1438 
  42   0.0000       0.565308        15.3828 
  43   0.0000       0.582665        15.8551 
  44   0.0000       0.585942        15.9443 
  45   0.0000       0.606063        16.4918 
  46   0.0000       0.626170        17.0390 
  47   0.0000       0.634988        17.2789 
  48   0.0000       0.640517        17.4294 
  49   0.0000       0.645862        17.5748 
  50   0.0000       0.655338        17.8327 
  51   0.0000       0.668155        18.1814 
  52   0.0000       0.719133        19.5686 
  53   0.0000       0.733081        19.9482 
  54   0.0000       0.741218        20.1696 
  55   0.0000       0.746612        20.3163 
  56   0.0000       0.755593        20.5607 
  57   0.0000       0.790721        21.5166 
  58   0.0000       0.797391        21.6981 
  59   0.0000       0.836128        22.7522 
  60   0.0000       0.889940        24.2165 
  61   0.0000       0.917111        24.9558 
  62   0.0000       0.951502        25.8917 
  63   0.0000       0.979826        26.6624 
  64   0.0000       1.029637        28.0178 
  65   0.0000       1.361638        37.0521 
  66   0.0000       1.384870        37.6842 
  67   0.0000       1.389552        37.8116 
  68   0.0000       1.400338        38.1051 
  69   0.0000       1.411126        38.3987 
  70   0.0000       1.428249        38.8646 
  71   0.0000       1.447550        39.3899 
  72   0.0000       1.487875        40.4871 
  73   0.0000       1.490816        40.5672 
  74   0.0000       1.507731        41.0274 
  75   0.0000       1.547306        42.1043 
  76   0.0000       1.550818        42.1999 
  77   0.0000       1.601785        43.5868 
  78   0.0000       1.604339        43.6563 
  79   0.0000       1.631428        44.3934 
  80   0.0000       1.791004        48.7357 
  81   0.0000       1.797306        48.9072 
  82   0.0000       1.827649        49.7329 
  83   0.0000       1.851002        50.3683 
  84   0.0000       1.855648        50.4948 
  85   0.0000       1.873945        50.9926 
  86   0.0000       1.877208        51.0814 
  87   0.0000       1.973852        53.7113 
  88   0.0000       1.974892        53.7395 
  89   0.0000       1.978310        53.8326 
  90   0.0000       2.033052        55.3222 
  91   0.0000       2.053600        55.8813 
  92   0.0000       2.071846        56.3778 
  93   0.0000       2.101900        57.1956 
  94   0.0000       2.153250        58.5929 
  95   0.0000       2.245981        61.1163 
  96   0.0000       2.295127        62.4536 
  97   0.0000       2.296650        62.4950 
  98   0.0000       2.307495        62.7901 
  99   0.0000       2.312139        62.9165 
 100   0.0000       2.323248        63.2188 
 101   0.0000       2.344037        63.7845 
 102   0.0000       2.368897        64.4610 
 103   0.0000       2.380143        64.7670 
 104   0.0000       2.393138        65.1206 
 105   0.0000       2.394902        65.1686 
 106   0.0000       2.424957        65.9864 
 107   0.0000       2.513674        68.4006 
 108   0.0000       2.517794        68.5126 
 109   0.0000       2.548954        69.3606 
 110   0.0000       2.555779        69.5463 
 111   0.0000       2.579427        70.1898 
 112   0.0000       2.606804        70.9348 
 113   0.0000       2.631348        71.6026 
 114   0.0000       2.643947        71.9455 
 115   0.0000       2.674017        72.7637 
 116   0.0000       2.686558        73.1050 
 117   0.0000       2.695235        73.3411 
 118   0.0000       2.717483        73.9465 
 119   0.0000       2.785339        75.7929 
 120   0.0000       2.876890        78.2841 
 121   0.0000       2.891535        78.6827 
 122   0.0000       2.931509        79.7704 
 123   0.0000       2.948007        80.2193 
 124   0.0000       2.961122        80.5762 
 125   0.0000       2.967227        80.7424 
 126   0.0000       2.977418        81.0197 
 127   0.0000       3.003549        81.7307 
 128   0.0000       3.006956        81.8234 
 129   0.0000       3.041390        82.7604 
 130   0.0000       3.066658        83.4480 
 131   0.0000       3.074874        83.6716 
 132   0.0000       3.104265        84.4713 
 133   0.0000       3.106609        84.5351 
 134   0.0000       3.197711        87.0141 
 135   0.0000       3.225145        87.7606 
 136   0.0000       3.248642        88.4001 
 137   0.0000       3.285087        89.3918 
 138   0.0000       3.314543        90.1933 
 139   0.0000       3.521209        95.8170 
 140   0.0000       3.963483       107.8518 
 141   0.0000       3.968092       107.9773 
 142   0.0000       4.038013       109.8799 
 143   0.0000       4.061874       110.5292 
 144   0.0000       4.119398       112.0945 
 145   0.0000       4.280605       116.4812 
 146   0.0000       4.285822       116.6231 
 147   0.0000       4.313808       117.3847 
 148   0.0000       4.348458       118.3275 
 149   0.0000       4.408453       119.9601 
 150   0.0000       5.514786       150.0650 
 151   0.0000       5.521249       150.2408 
 152   0.0000       5.536124       150.6456 
 153   0.0000       5.581166       151.8713 
 154   0.0000       5.590300       152.1198 
 155   0.0000       5.611289       152.6909 
 156   0.0000       5.617397       152.8571 
 157   0.0000       5.674230       154.4036 
 158   0.0000       5.686775       154.7450 
 159   0.0000       5.690534       154.8473 
 160   0.0000       5.780029       157.2826 
 161   0.0000       5.785340       157.4271 
 162   0.0000       5.809902       158.0955 
 163   0.0000       5.823675       158.4703 
 164   0.0000       5.826264       158.5407 
 165   0.0000       5.846974       159.1042 
 166   0.0000       5.859526       159.4458 
 167   0.0000       5.874920       159.8647 
 168   0.0000       5.884257       160.1188 
 169   0.0000       5.887650       160.2111 
 170   0.0000       5.888592       160.2367 
 171   0.0000       5.898633       160.5100 
 172   0.0000       5.903190       160.6340 
 173   0.0000       5.930526       161.3778 
 174   0.0000       5.971190       162.4843 
 175   0.0000       6.397930       174.0965 
 176   0.0000       6.403003       174.2346 
 177   0.0000       6.476916       176.2458 
 178   0.0000       6.510392       177.1568 
 179   0.0000       6.517440       177.3486 
 180   0.0000       6.670471       181.5128 
 181   0.0000       6.672948       181.5801 
 182   0.0000       6.709493       182.5746 
 183   0.0000       6.725527       183.0109 
 184   0.0000       6.758264       183.9017 
 185   0.0000       6.835759       186.0105 
 186   0.0000       6.841077       186.1552 
 187   0.0000       6.845038       186.2630 
 188   0.0000       6.865395       186.8169 
 189   0.0000       6.880472       187.2272 
 190   0.0000       6.888197       187.4374 
 191   0.0000       6.888938       187.4575 
 192   0.0000       6.906313       187.9303 
 193   0.0000       6.916728       188.2137 
 194   0.0000       6.930023       188.5755 
 195   0.0000       6.958363       189.3467 
 196   0.0000       6.971345       189.6999 
 197   0.0000       6.987527       190.1403 
 198   0.0000       6.996348       190.3803 
 199   0.0000       7.091760       192.9766 
 200   0.0000       7.345638       199.8850 
 201   0.0000       7.350033       200.0046 
 202   0.0000       7.431623       202.2247 
 203   0.0000       7.440585       202.4686 
 204   0.0000       7.460233       203.0033 
 205   0.0000       7.463457       203.0910 
 206   0.0000       7.511271       204.3921 
 207   0.0000       7.537752       205.1127 
 208   0.0000       7.572108       206.0475 
 209   0.0000       7.580641       206.2797 
 210   0.0000      44.839492      1220.1446 
 211   0.0000      44.852988      1220.5118 
 212   0.0000      44.930506      1222.6212 
 213   0.0000      44.970384      1223.7064 
 214   0.0000      44.971932      1223.7485 

                    ********************************
                    * MULLIKEN POPULATION ANALYSIS *
                    ********************************

-----------------------
MULLIKEN ATOMIC CHARGES
-----------------------
   0 O :   -0.718823
   1 H :    0.362050
   2 H :    0.370240
   3 O :   -0.762589
   4 H :    0.333039
   5 H :    0.391595
   6 O :   -0.733772
   7 H :    0.362758
   8 H :    0.392511
   9 O :   -0.730115
  10 H :    0.344137
  11 H :    0.372477
  12 O :   -0.728762
  13 H :    0.363968
  14 H :    0.381286
Sum of atomic charges:   -0.0000000

--------------------------------
MULLIKEN REDUCED ORBITAL CHARGES
--------------------------------
  0 O s       :     3.809378  s :     3.809378
      pz      :     1.734249  p :     4.883114
      px      :     1.367220
      py      :     1.781645
      dz2     :     0.004394  d :     0.024820
      dxz     :     0.004940
      dyz     :     0.005666
      dx2y2   :     0.002590
      dxy     :     0.007231
      f0      :     0.000093  f :     0.001511
      f+1     :     0.000352
      f-1     :     0.000185
      f+2     :     0.000062
      f-2     :     0.000357
      f+3     :     0.000092
      f-3     :     0.000370
  1 H s       :     0.592576  s :     0.592576
      pz      :     0.017214  p :     0.045373
      px      :     0.013373
      py      :     0.014786
  2 H s       :     0.588415  s :     0.588415
      pz      :     0.011125  p :     0.041346
      px      :     0.017961
      py      :     0.012260
  3 O s       :     3.808315  s :     3.808315
      pz      :     1.719617  p :     4.928946
      px      :     1.800694
      py      :     1.408635
      dz2     :     0.004077  d :     0.023864
      dxz     :     0.005629
      dyz     :     0.004727
      dx2y2   :     0.002325
      dxy     :     0.007106
      f0      :     0.000087  f :     0.001464
      f+1     :     0.000183
      f-1     :     0.000329
      f+2     :     0.000069
      f-2     :     0.000359
      f+3     :     0.000350
      f-3     :     0.000088
  4 H s       :     0.620929  s :     0.620929
      pz      :     0.017146  p :     0.046032
      px      :     0.015066
      py      :     0.013820
  5 H s       :     0.551291  s :     0.551291
      pz      :     0.010809  p :     0.057113
      px      :     0.014059
      py      :     0.032246
  6 O s       :     3.795764  s :     3.795764
      pz      :     1.522313  p :     4.911679
      px      :     1.595398
      py      :     1.793968
      dz2     :     0.012242  d :     0.024925
      dxz     :     0.001232
      dyz     :     0.002402
      dx2y2   :     0.002335
      dxy     :     0.006714
      f0      :     0.000253  f :     0.001404
      f+1     :     0.000389
      f-1     :     0.000158
      f+2     :     0.000052
      f-2     :     0.000056
      f+3     :     0.000049
      f-3     :     0.000447
  7 H s       :     0.593568  s :     0.593568
      pz      :     0.019255  p :     0.043673
      px      :     0.011723
      py      :     0.012696
  8 H s       :     0.558172  s :     0.558172
      pz      :     0.009580  p :     0.049317
      px      :     0.024178
      py      :     0.015559
  9 O s       :     3.809107  s :     3.809107
      pz      :     1.499009  p :     4.894137
      px      :     1.823804
      py      :     1.571323
      dz2     :     0.011904  d :     0.025380
      dxz     :     0.002979
      dyz     :     0.001231
      dx2y2   :     0.002062
      dxy     :     0.007204
      f0      :     0.000273  f :     0.001491
      f+1     :     0.000170
      f-1     :     0.000381
      f+2     :     0.000057
      f-2     :     0.000056
      f+3     :     0.000489
      f-3     :     0.000065
 10 H s       :     0.611153  s :     0.611153
      pz      :     0.018796  p :     0.044710
      px      :     0.013662
      py      :     0.012251
 11 H s       :     0.577195  s :     0.577195
      pz      :     0.009999  p :     0.050327
      px      :     0.016552
      py      :     0.023776
 12 O s       :     3.809288  s :     3.809288
      pz      :     1.736338  p :     4.893416
      px      :     1.780156
      py      :     1.376922
      dz2     :     0.004406  d :     0.024557
      dxz     :     0.005562
      dyz     :     0.004991
      dx2y2   :     0.002569
      dxy     :     0.007028
      f0      :     0.000093  f :     0.001502
      f+1     :     0.000183
      f-1     :     0.000352
      f+2     :     0.000061
      f-2     :     0.000356
      f+3     :     0.000365
      f-3     :     0.000091
 13 H s       :     0.590716  s :     0.590716
      pz      :     0.017317  p :     0.045316
      px      :     0.014699
      py      :     0.013300
 14 H s       :     0.577529  s :     0.577529
      pz      :     0.010959  p :     0.041185
      px      :     0.012083
      py      :     0.018142


                     *******************************
                     * LOEWDIN POPULATION ANALYSIS *
                     *******************************

----------------------
LOEWDIN ATOMIC CHARGES
----------------------
   0 O :   -0.316367
   1 H :    0.163269
   2 H :    0.188812
   3 O :   -0.376401
   4 H :    0.147585
   5 H :    0.150573
   6 O :   -0.293155
   7 H :    0.171595
   8 H :    0.159859
   9 O :   -0.350324
  10 H :    0.162736
  11 H :    0.151854
  12 O :   -0.317619
  13 H :    0.164436
  14 H :    0.193145

-------------------------------
LOEWDIN REDUCED ORBITAL CHARGES
-------------------------------
  0 O s       :     3.469185  s :     3.469185
      pz      :     1.711432  p :     4.813012
      px      :     1.358878
      py      :     1.742701
      dz2     :     0.005101  d :     0.032076
      dxz     :     0.007092
      dyz     :     0.005598
      dx2y2   :     0.004387
      dxy     :     0.009898
      f0      :     0.000079  f :     0.002094
      f+1     :     0.000463
      f-1     :     0.000275
      f+2     :     0.000033
      f-2     :     0.000612
      f+3     :     0.000091
      f-3     :     0.000541
  1 H s       :     0.673252  s :     0.673252
      pz      :     0.066408  p :     0.163479
      px      :     0.044331
      py      :     0.052739
  2 H s       :     0.663091  s :     0.663091
      pz      :     0.033355  p :     0.148098
      px      :     0.071280
      py      :     0.043463
  3 O s       :     3.468218  s :     3.468218
      pz      :     1.705406  p :     4.876424
      px      :     1.779049
      py      :     1.391969
      dz2     :     0.004308  d :     0.029749
      dxz     :     0.005853
      dyz     :     0.007211
      dx2y2   :     0.003353
      dxy     :     0.009024
      f0      :     0.000073  f :     0.002010
      f+1     :     0.000265
      f-1     :     0.000441
      f+2     :     0.000034
      f-2     :     0.000632
      f+3     :     0.000479
      f-3     :     0.000085
  4 H s       :     0.688079  s :     0.688079
      pz      :     0.065546  p :     0.164335
      px      :     0.053206
      py      :     0.045583
  5 H s       :     0.654439  s :     0.654439
      pz      :     0.033618  p :     0.194988
      px      :     0.047753
      py      :     0.113617
  6 O s       :     3.453711  s :     3.453711
      pz      :     1.516498  p :     4.805616
      px      :     1.555024
      py      :     1.734094
      dz2     :     0.016171  d :     0.031713
      dxz     :     0.002048
      dyz     :     0.001937
      dx2y2   :     0.003378
      dxy     :     0.008179
      f0      :     0.000466  f :     0.002114
      f+1     :     0.000575
      f-1     :     0.000337
      f+2     :     0.000021
      f-2     :     0.000051
      f+3     :     0.000026
      f-3     :     0.000638
  7 H s       :     0.669245  s :     0.669245
      pz      :     0.080655  p :     0.159160
      px      :     0.036575
      py      :     0.041930
  8 H s       :     0.665528  s :     0.665528
      pz      :     0.029543  p :     0.174613
      px      :     0.086968
      py      :     0.058102
  9 O s       :     3.467334  s :     3.467334
      pz      :     1.507556  p :     4.849167
      px      :     1.794591
      py      :     1.547021
      dz2     :     0.016156  d :     0.031694
      dxz     :     0.002437
      dyz     :     0.002138
      dx2y2   :     0.002067
      dxy     :     0.008895
      f0      :     0.000496  f :     0.002129
      f+1     :     0.000319
      f-1     :     0.000579
      f+2     :     0.000025
      f-2     :     0.000050
      f+3     :     0.000656
      f-3     :     0.000002
 10 H s       :     0.679071  s :     0.679071
      pz      :     0.079651  p :     0.158192
      px      :     0.042290
      py      :     0.036251
 11 H s       :     0.675363  s :     0.675363
      pz      :     0.029729  p :     0.172784
      px      :     0.057926
      py      :     0.085129
 12 O s       :     3.467569  s :     3.467569
      pz      :     1.711885  p :     4.816493
      px      :     1.741426
      py      :     1.363182
      dz2     :     0.005010  d :     0.031490
      dxz     :     0.005497
      dyz     :     0.007115
      dx2y2   :     0.004308
      dxy     :     0.009559
      f0      :     0.000079  f :     0.002067
      f+1     :     0.000271
      f-1     :     0.000457
      f+2     :     0.000033
      f-2     :     0.000610
      f+3     :     0.000527
      f-3     :     0.000089
 13 H s       :     0.672100  s :     0.672100
      pz      :     0.066447  p :     0.163465
      px      :     0.052563
      py      :     0.044454
 14 H s       :     0.658200  s :     0.658200
      pz      :     0.033223  p :     0.148655
      px      :     0.043365
      py      :     0.072067


                      *****************************
                      * MAYER POPULATION ANALYSIS *
                      *****************************

  NA   - Mulliken gross atomic population
  ZA   - Total nuclear charge
  QA   - Mulliken gross atomic charge
  VA   - Mayer's total valence
  BVA  - Mayer's bonded valence
  FA   - Mayer's free valence

  ATOM       NA         ZA         QA         VA         BVA        FA
  0 O      8.7188     8.0000    -0.7188     1.7675     1.7675    -0.0000
  1 H      0.6379     1.0000     0.3621     0.8840     0.8840     0.0000
  2 H      0.6298     1.0000     0.3702     0.8761     0.8761    -0.0000
  3 O      8.7626     8.0000    -0.7626     1.6914     1.6914     0.0000
  4 H      0.6670     1.0000     0.3330     0.9045     0.9045    -0.0000
  5 H      0.6084     1.0000     0.3916     0.8851     0.8851     0.0000
  6 O      8.7338     8.0000    -0.7338     1.7451     1.7451    -0.0000
  7 H      0.6372     1.0000     0.3628     0.8817     0.8817     0.0000
  8 H      0.6075     1.0000     0.3925     0.8784     0.8784    -0.0000
  9 O      8.7301     8.0000    -0.7301     1.7429     1.7429    -0.0000
 10 H      0.6559     1.0000     0.3441     0.8951     0.8951    -0.0000
 11 H      0.6275     1.0000     0.3725     0.8918     0.8918    -0.0000
 12 O      8.7288     8.0000    -0.7288     1.7626     1.7626    -0.0000
 13 H      0.6360     1.0000     0.3640     0.8824     0.8824     0.0000
 14 H      0.6187     1.0000     0.3813     0.8692     0.8692     0.0000

  Mayer bond orders larger than 0.100000
B(  0-O ,  1-H ) :   0.8765 B(  0-O ,  2-H ) :   0.8676 B(  3-O ,  4-H ) :   0.8989 
B(  3-O ,  5-H ) :   0.8120 B(  6-O ,  7-H ) :   0.8768 B(  6-O ,  8-H ) :   0.8327 
B(  9-O , 10-H ) :   0.8918 B(  9-O , 11-H ) :   0.8562 B( 12-O , 13-H ) :   0.8752 
B( 12-O , 14-H ) :   0.8583 

-------
TIMINGS
-------

Total SCF time: 0 days 0 hours 0 min 5 sec 

Total time                  ....       5.671 sec
Sum of individual times     ....       5.468 sec  ( 96.4%)

Fock matrix formation       ....       5.211 sec  ( 91.9%)
Diagonalization             ....       0.049 sec  (  0.9%)
Density matrix formation    ....       0.006 sec  (  0.1%)
Population analysis         ....       0.005 sec  (  0.1%)
Initial guess               ....       0.117 sec  (  2.1%)
Orbital Transformation      ....       0.000 sec  (  0.0%)
Orbital Orthonormalization  ....       0.000 sec  (  0.0%)
DIIS solution               ....       0.019 sec  (  0.3%)
SOSCF solution              ....       0.020 sec  (  0.3%)


           ************************************************************
           *        Program running with 6 parallel MPI-processes     *
           *              working on a common directory               *
           ************************************************************

------------------------------------------------------------------------------
                                ORCA  MP2 
------------------------------------------------------------------------------

Freezing NCore=10 chemical core electrons
MP2 will be done in the AO integral direct mode
The Q1-step will be done using symmetric double matrices
Dimension of the basis                    ...  215
Memory devoted for MP2                    ... 8000 MB   
Memory needed for all in one shot         ...  153 MB
Number of MOs that can be treated together...  209      
MP2 density construction                  ... relaxed
The MP2 gradient is requested => amplitudes will be stored on disk
Total number of MOs              ...   20
Number of MOs treated per batch  ...    4 
Number of batches necessary      ...    1 
OPERATORS   0/  0 PASS   0
-----------------------------------------------
 MP2 CORRELATION ENERGY   :     -1.286124296 Eh
-----------------------------------------------


---------------------
MP2 DENSITY FORMATION
---------------------

Completing the external part of the density      ... done
Storing the unrelaxed density                    ... done

Calculating G(D)                                 ... done
Completing the Lagrangian                        ... done
Solving the Z-vector equations                   ... 

------------------------------------------------------------------------------
                           ORCA CP-SCF CALCULATION
------------------------------------------------------------------------------

Input orbitals are from        ... 12h2o.su.etal.mol0,2,8,9,10-orca.engrad-mp2.def2tzvp.frozencore.gbw
Input Perturbation             ... 12h2o.su.etal.mol0,2,8,9,10-orca.engrad-mp2.def2tzvp.frozencore.pin.tmp
Wavefunction output            ... 12h2o.su.etal.mol0,2,8,9,10-orca.engrad-mp2.def2tzvp.frozencore.pout.tmp
Perturbation mode              ... Real perturbation (singlet)
Solver                         ... POPLE
Max. number of iterations      ... 128
Convergence tolerance          ... 1.000e-08
Integral handling              ... Direct
Number of perturbations        ... 1
Number of operators            ... 1
Orbital ranges used for CP-SCF:
 Operator 0:  Orbitals   0... 24  to  25...214
Variables per vector in CP-SCF ... 4750
Number of vectors sought       ... 1
     CP-SCF ITERATION   0: 
     CP-SCF ITERATION   1:      0.000590604128
     CP-SCF ITERATION   2:      0.000013252065
     CP-SCF ITERATION   3:      0.000000546561
     CP-SCF ITERATION   4:      0.000000048663
     CP-SCF ITERATION   5:      0.000000003651
                                                 ... done
Finalizing the relaxed density                   ... done
Transforming P to the AO basis                   ... done
Storing the relaxed density                      ... done

------------------------------------
ENERGY WEIGHTED DENSITY FINALIZATION
------------------------------------

Gathering the parts of the W-matrix              ...                                                      done
Forming the Z-density                            ... done
Transforming Z to the AO basis                   ... done
Calculating G(Z)                                 ... done
Finalizing the W-matrix                          ...                                                      done
Transforming W to the AO basis and storing       ... done

                *********************************************
                * UNRELAXED MP2 DENSITY POPULATION ANALYSIS *
                *********************************************

------------------------------------------------------------------------------
                           ORCA POPULATION ANALYSIS
------------------------------------------------------------------------------
Input electron density              ... 12h2o.su.etal.mol0,2,8,9,10-orca.engrad-mp2.def2tzvp.frozencore.pmp2ur
BaseName (.gbw .S,...)              ... 12h2o.su.etal.mol0,2,8,9,10-orca.engrad-mp2.def2tzvp.frozencore

                    ********************************
                    * MULLIKEN POPULATION ANALYSIS *
                    ********************************

-----------------------
MULLIKEN ATOMIC CHARGES
-----------------------
   0 O :   -0.713456
   1 H :    0.359853
   2 H :    0.367528
   3 O :   -0.757111
   4 H :    0.330785
   5 H :    0.387050
   6 O :   -0.727305
   7 H :    0.360346
   8 H :    0.389182
   9 O :   -0.725023
  10 H :    0.341763
  11 H :    0.369299
  12 O :   -0.723216
  13 H :    0.361800
  14 H :    0.378506
Sum of atomic charges:   -0.0000000

--------------------------------
MULLIKEN REDUCED ORBITAL CHARGES
--------------------------------
  0 O s       :     3.804496  s :     3.804496
      pz      :     1.723651  p :     4.853310
      px      :     1.359686
      py      :     1.769974
      dz2     :     0.009770  d :     0.051586
      dxz     :     0.010215
      dyz     :     0.011047
      dx2y2   :     0.008025
      dxy     :     0.012530
      f0      :     0.000462  f :     0.004064
      f+1     :     0.000711
      f-1     :     0.000549
      f+2     :     0.000430
      f-2     :     0.000720
      f+3     :     0.000462
      f-3     :     0.000730
  1 H s       :     0.593207  s :     0.593207
      pz      :     0.017694  p :     0.046940
      px      :     0.013759
      py      :     0.015488
  2 H s       :     0.589581  s :     0.589581
      pz      :     0.011964  p :     0.042890
      px      :     0.017911
      py      :     0.013015
  3 O s       :     3.803378  s :     3.803378
      pz      :     1.709217  p :     4.898830
      px      :     1.789407
      py      :     1.400206
      dz2     :     0.009541  d :     0.050872
      dxz     :     0.010955
      dyz     :     0.010092
      dx2y2   :     0.007823
      dxy     :     0.012462
      f0      :     0.000456  f :     0.004031
      f+1     :     0.000545
      f-1     :     0.000693
      f+2     :     0.000437
      f-2     :     0.000723
      f+3     :     0.000715
      f-3     :     0.000461
  4 H s       :     0.621452  s :     0.621452
      pz      :     0.017660  p :     0.047763
      px      :     0.015814
      py      :     0.014288
  5 H s       :     0.554156  s :     0.554156
      pz      :     0.011646  p :     0.058794
      px      :     0.014799
      py      :     0.032350
  6 O s       :     3.790556  s :     3.790556
      pz      :     1.513189  p :     4.880497
      px      :     1.585831
      py      :     1.781477
      dz2     :     0.017369  d :     0.052251
      dxz     :     0.006670
      dyz     :     0.007983
      dx2y2   :     0.008044
      dxy     :     0.012184
      f0      :     0.000633  f :     0.004001
      f+1     :     0.000756
      f-1     :     0.000534
      f+2     :     0.000415
      f-2     :     0.000424
      f+3     :     0.000427
      f-3     :     0.000812
  7 H s       :     0.594389  s :     0.594389
      pz      :     0.019337  p :     0.045265
      px      :     0.012410
      py      :     0.013519
  8 H s       :     0.560007  s :     0.560007
      pz      :     0.010326  p :     0.050811
      px      :     0.024367
      py      :     0.016118
  9 O s       :     3.804265  s :     3.804265
      pz      :     1.490167  p :     4.864696
      px      :     1.812413
      py      :     1.562117
      dz2     :     0.016922  d :     0.052010
      dxz     :     0.008404
      dyz     :     0.006611
      dx2y2   :     0.007597
      dxy     :     0.012477
      f0      :     0.000648  f :     0.004052
      f+1     :     0.000540
      f-1     :     0.000746
      f+2     :     0.000416
      f-2     :     0.000421
      f+3     :     0.000846
      f-3     :     0.000436
 10 H s       :     0.611849  s :     0.611849
      pz      :     0.018890  p :     0.046389
      px      :     0.014532
      py      :     0.012966
 11 H s       :     0.578774  s :     0.578774
      pz      :     0.010780  p :     0.051927
      px      :     0.017173
      py      :     0.023975
 12 O s       :     3.804412  s :     3.804412
      pz      :     1.725715  p :     4.863368
      px      :     1.768395
      py      :     1.369258
      dz2     :     0.009787  d :     0.051380
      dxz     :     0.010952
      dyz     :     0.010272
      dx2y2   :     0.008015
      dxy     :     0.012354
      f0      :     0.000462  f :     0.004056
      f+1     :     0.000548
      f-1     :     0.000712
      f+2     :     0.000429
      f-2     :     0.000719
      f+3     :     0.000725
      f-3     :     0.000461
 13 H s       :     0.591332  s :     0.591332
      pz      :     0.017794  p :     0.046869
      px      :     0.015388
      py      :     0.013687
 14 H s       :     0.578811  s :     0.578811
      pz      :     0.011787  p :     0.042683
      px      :     0.012821
      py      :     0.018075


                     *******************************
                     * LOEWDIN POPULATION ANALYSIS *
                     *******************************

----------------------
LOEWDIN ATOMIC CHARGES
----------------------
   0 O :   -0.312728
   1 H :    0.162150
   2 H :    0.187148
   3 O :   -0.374062
   4 H :    0.146302
   5 H :    0.148052
   6 O :   -0.289195
   7 H :    0.170201
   8 H :    0.157749
   9 O :   -0.347767
  10 H :    0.161361
  11 H :    0.149815
  12 O :   -0.313855
  13 H :    0.163343
  14 H :    0.191486

-------------------------------
LOEWDIN REDUCED ORBITAL CHARGES
-------------------------------
  0 O s       :     3.465403  s :     3.465403
      pz      :     1.700905  p :     4.782600
      px      :     1.350907
      py      :     1.730788
      dz2     :     0.010601  d :     0.059885
      dxz     :     0.012582
      dyz     :     0.011258
      dx2y2   :     0.009916
      dxy     :     0.015530
      f0      :     0.000457  f :     0.004840
      f+1     :     0.000870
      f-1     :     0.000659
      f+2     :     0.000408
      f-2     :     0.001018
      f+3     :     0.000475
      f-3     :     0.000953
  1 H s       :     0.671379  s :     0.671379
      pz      :     0.067605  p :     0.166471
      px      :     0.045148
      py      :     0.053719
  2 H s       :     0.661707  s :     0.661707
      pz      :     0.034178  p :     0.151144
      px      :     0.072521
      py      :     0.044445
  3 O s       :     3.464583  s :     3.464583
      pz      :     1.695052  p :     4.846878
      px      :     1.768129
      py      :     1.383697
      dz2     :     0.009852  d :     0.057829
      dxz     :     0.011501
      dyz     :     0.012797
      dx2y2   :     0.008953
      dxy     :     0.014726
      f0      :     0.000451  f :     0.004772
      f+1     :     0.000647
      f-1     :     0.000853
      f+2     :     0.000410
      f-2     :     0.001041
      f+3     :     0.000898
      f-3     :     0.000472
  4 H s       :     0.686039  s :     0.686039
      pz      :     0.066863  p :     0.167659
      px      :     0.054235
      py      :     0.046561
  5 H s       :     0.654487  s :     0.654487
      pz      :     0.034455  p :     0.197461
      px      :     0.048631
      py      :     0.114375
  6 O s       :     3.449920  s :     3.449920
      pz      :     1.507119  p :     4.774315
      px      :     1.545504
      py      :     1.721692
      dz2     :     0.021994  d :     0.060052
      dxz     :     0.007428
      dyz     :     0.007446
      dx2y2   :     0.009040
      dxy     :     0.014145
      f0      :     0.000887  f :     0.004908
      f+1     :     0.000997
      f-1     :     0.000736
      f+2     :     0.000390
      f-2     :     0.000426
      f+3     :     0.000409
      f-3     :     0.001063
  7 H s       :     0.667538  s :     0.667538
      pz      :     0.082177  p :     0.162260
      px      :     0.037345
      py      :     0.042738
  8 H s       :     0.664898  s :     0.664898
      pz      :     0.030271  p :     0.177352
      px      :     0.088079
      py      :     0.059002
  9 O s       :     3.463629  s :     3.463629
      pz      :     1.498396  p :     4.819850
      px      :     1.783680
      py      :     1.537775
      dz2     :     0.021883  d :     0.059405
      dxz     :     0.007803
      dyz     :     0.007452
      dx2y2   :     0.007570
      dxy     :     0.014697
      f0      :     0.000912  f :     0.004882
      f+1     :     0.000713
      f-1     :     0.000999
      f+2     :     0.000389
      f-2     :     0.000422
      f+3     :     0.001071
      f-3     :     0.000377
 10 H s       :     0.677200  s :     0.677200
      pz      :     0.081291  p :     0.161440
      px      :     0.043117
      py      :     0.037031
 11 H s       :     0.674487  s :     0.674487
      pz      :     0.030477  p :     0.175699
      px      :     0.058885
      py      :     0.086337
 12 O s       :     3.463788  s :     3.463788
      pz      :     1.701342  p :     4.785912
      px      :     1.729423
      py      :     1.355147
      dz2     :     0.010514  d :     0.059342
      dxz     :     0.011164
      dyz     :     0.012610
      dx2y2   :     0.009845
      dxy     :     0.015208
      f0      :     0.000456  f :     0.004814
      f+1     :     0.000656
      f-1     :     0.000865
      f+2     :     0.000408
      f-2     :     0.001017
      f+3     :     0.000939
      f-3     :     0.000474
 13 H s       :     0.670225  s :     0.670225
      pz      :     0.067640  p :     0.166432
      px      :     0.053523
      py      :     0.045269
 14 H s       :     0.656918  s :     0.656918
      pz      :     0.034035  p :     0.151596
      px      :     0.044317
      py      :     0.073244


                      *****************************
                      * MAYER POPULATION ANALYSIS *
                      *****************************

  NA   - Mulliken gross atomic population
  ZA   - Total nuclear charge
  QA   - Mulliken gross atomic charge
  VA   - Mayer's total valence
  BVA  - Mayer's bonded valence
  FA   - Mayer's free valence

  ATOM       NA         ZA         QA         VA         BVA        FA
  0 O      8.7135     8.0000    -0.7135     2.0753     1.6866     0.3887
  1 H      0.6401     1.0000     0.3599     0.8896     0.8443     0.0453
  2 H      0.6325     1.0000     0.3675     0.8820     0.8346     0.0474
  3 O      8.7571     8.0000    -0.7571     2.0048     1.6130     0.3918
  4 H      0.6692     1.0000     0.3308     0.9106     0.8627     0.0479
  5 H      0.6130     1.0000     0.3870     0.8927     0.8467     0.0460
  6 O      8.7273     8.0000    -0.7273     2.0541     1.6666     0.3875
  7 H      0.6397     1.0000     0.3603     0.8874     0.8412     0.0462
  8 H      0.6108     1.0000     0.3892     0.8848     0.8406     0.0441
  9 O      8.7250     8.0000    -0.7250     2.0502     1.6632     0.3869
 10 H      0.6582     1.0000     0.3418     0.9011     0.8535     0.0476
 11 H      0.6307     1.0000     0.3693     0.8982     0.8529     0.0454
 12 O      8.7232     8.0000    -0.7232     2.0717     1.6824     0.3893
 13 H      0.6382     1.0000     0.3618     0.8879     0.8429     0.0451
 14 H      0.6215     1.0000     0.3785     0.8751     0.8285     0.0466

  Mayer bond orders larger than 0.100000
B(  0-O ,  1-H ) :   0.8373 B(  0-O ,  2-H ) :   0.8267 B(  3-O ,  4-H ) :   0.8576 
B(  3-O ,  5-H ) :   0.7754 B(  6-O ,  7-H ) :   0.8368 B(  6-O ,  8-H ) :   0.7963 
B(  9-O , 10-H ) :   0.8506 B(  9-O , 11-H ) :   0.8182 B( 12-O , 13-H ) :   0.8362 
B( 12-O , 14-H ) :   0.8182 


                *******************************************
                * RELAXED MP2 DENSITY POPULATION ANALYSIS *
                *******************************************

------------------------------------------------------------------------------
                           ORCA POPULATION ANALYSIS
------------------------------------------------------------------------------
Input electron density              ... 12h2o.su.etal.mol0,2,8,9,10-orca.engrad-mp2.def2tzvp.frozencore.pmp2re
BaseName (.gbw .S,...)              ... 12h2o.su.etal.mol0,2,8,9,10-orca.engrad-mp2.def2tzvp.frozencore

                    ********************************
                    * MULLIKEN POPULATION ANALYSIS *
                    ********************************

-----------------------
MULLIKEN ATOMIC CHARGES
-----------------------
   0 O :   -0.694779
   1 H :    0.353218
   2 H :    0.360878
   3 O :   -0.738341
   4 H :    0.324827
   5 H :    0.364068
   6 O :   -0.701048
   7 H :    0.354677
   8 H :    0.372265
   9 O :   -0.708698
  10 H :    0.335814
  11 H :    0.353517
  12 O :   -0.703300
  13 H :    0.355514
  14 H :    0.371387
Sum of atomic charges:   -0.0000000

--------------------------------
MULLIKEN REDUCED ORBITAL CHARGES
--------------------------------
  0 O s       :     3.808234  s :     3.808234
      pz      :     1.718633  p :     4.833157
      px      :     1.356809
      py      :     1.757715
      dz2     :     0.009497  d :     0.049397
      dxz     :     0.009636
      dyz     :     0.010789
      dx2y2   :     0.007761
      dxy     :     0.011714
      f0      :     0.000460  f :     0.003991
      f+1     :     0.000693
      f-1     :     0.000541
      f+2     :     0.000430
      f-2     :     0.000699
      f+3     :     0.000460
      f-3     :     0.000708
  1 H s       :     0.599145  s :     0.599145
      pz      :     0.017803  p :     0.047636
      px      :     0.013670
      py      :     0.016163
  2 H s       :     0.595669  s :     0.595669
      pz      :     0.012804  p :     0.043453
      px      :     0.016930
      py      :     0.013719
  3 O s       :     3.803787  s :     3.803787
      pz      :     1.704422  p :     4.881611
      px      :     1.783334
      py      :     1.393855
      dz2     :     0.009337  d :     0.048977
      dxz     :     0.010652
      dyz     :     0.009527
      dx2y2   :     0.007697
      dxy     :     0.011764
      f0      :     0.000453  f :     0.003965
      f+1     :     0.000537
      f-1     :     0.000676
      f+2     :     0.000437
      f-2     :     0.000704
      f+3     :     0.000698
      f-3     :     0.000459
  4 H s       :     0.626626  s :     0.626626
      pz      :     0.017827  p :     0.048548
      px      :     0.016439
      py      :     0.014282
  5 H s       :     0.576899  s :     0.576899
      pz      :     0.012403  p :     0.059034
      px      :     0.015352
      py      :     0.031279
  6 O s       :     3.790285  s :     3.790285
      pz      :     1.507625  p :     4.856469
      px      :     1.584835
      py      :     1.764009
      dz2     :     0.016090  d :     0.050365
      dxz     :     0.006620
      dyz     :     0.007963
      dx2y2   :     0.008055
      dxy     :     0.011637
      f0      :     0.000615  f :     0.003929
      f+1     :     0.000735
      f-1     :     0.000525
      f+2     :     0.000416
      f-2     :     0.000422
      f+3     :     0.000427
      f-3     :     0.000789
  7 H s       :     0.599421  s :     0.599421
      pz      :     0.018577  p :     0.045901
      px      :     0.012931
      py      :     0.014394
  8 H s       :     0.576476  s :     0.576476
      pz      :     0.010923  p :     0.051259
      px      :     0.023875
      py      :     0.016462
  9 O s       :     3.805548  s :     3.805548
      pz      :     1.483200  p :     4.849279
      px      :     1.805953
      py      :     1.560127
      dz2     :     0.015590  d :     0.049891
      dxz     :     0.008356
      dyz     :     0.006547
      dx2y2   :     0.007563
      dxy     :     0.011834
      f0      :     0.000630  f :     0.003980
      f+1     :     0.000529
      f-1     :     0.000724
      f+2     :     0.000416
      f-2     :     0.000420
      f+3     :     0.000824
      f-3     :     0.000436
 10 H s       :     0.617045  s :     0.617045
      pz      :     0.018136  p :     0.047141
      px      :     0.015473
      py      :     0.013532
 11 H s       :     0.593970  s :     0.593970
      pz      :     0.011432  p :     0.052513
      px      :     0.017620
      py      :     0.023461
 12 O s       :     3.807560  s :     3.807560
      pz      :     1.720770  p :     4.842560
      px      :     1.755395
      py      :     1.366395
      dz2     :     0.009514  d :     0.049197
      dxz     :     0.010695
      dyz     :     0.009693
      dx2y2   :     0.007735
      dxy     :     0.011560
      f0      :     0.000460  f :     0.003983
      f+1     :     0.000540
      f-1     :     0.000694
      f+2     :     0.000429
      f-2     :     0.000698
      f+3     :     0.000703
      f-3     :     0.000459
 13 H s       :     0.596945  s :     0.596945
      pz      :     0.017924  p :     0.047541
      px      :     0.016015
      py      :     0.013601
 14 H s       :     0.585417  s :     0.585417
      pz      :     0.012605  p :     0.043196
      px      :     0.013487
      py      :     0.017105


                     *******************************
                     * LOEWDIN POPULATION ANALYSIS *
                     *******************************

----------------------
LOEWDIN ATOMIC CHARGES
----------------------
   0 O :   -0.310974
   1 H :    0.163770
   2 H :    0.188509
   3 O :   -0.376395
   4 H :    0.148136
   5 H :    0.140616
   6 O :   -0.283684
   7 H :    0.171907
   8 H :    0.152908
   9 O :   -0.349993
  10 H :    0.163144
  11 H :    0.145512
  12 O :   -0.311329
  13 H :    0.165188
  14 H :    0.192684

-------------------------------
LOEWDIN REDUCED ORBITAL CHARGES
-------------------------------
  0 O s       :     3.467232  s :     3.467232
      pz      :     1.700230  p :     4.780192
      px      :     1.356157
      py      :     1.723805
      dz2     :     0.010444  d :     0.058692
      dxz     :     0.012203
      dyz     :     0.011225
      dx2y2   :     0.009711
      dxy     :     0.015109
      f0      :     0.000459  f :     0.004859
      f+1     :     0.000876
      f-1     :     0.000659
      f+2     :     0.000408
      f-2     :     0.001018
      f+3     :     0.000478
      f-3     :     0.000960
  1 H s       :     0.669928  s :     0.669928
      pz      :     0.067657  p :     0.166302
      px      :     0.044405
      py      :     0.054240
  2 H s       :     0.660375  s :     0.660375
      pz      :     0.034927  p :     0.151116
      px      :     0.071063
      py      :     0.045126
  3 O s       :     3.466189  s :     3.466189
      pz      :     1.694696  p :     4.848370
      px      :     1.766365
      py      :     1.387309
      dz2     :     0.009799  d :     0.057026
      dxz     :     0.011409
      dyz     :     0.012426
      dx2y2   :     0.008934
      dxy     :     0.014457
      f0      :     0.000454  f :     0.004809
      f+1     :     0.000648
      f-1     :     0.000865
      f+2     :     0.000411
      f-2     :     0.001042
      f+3     :     0.000914
      f-3     :     0.000476
  4 H s       :     0.683919  s :     0.683919
      pz      :     0.066975  p :     0.167945
      px      :     0.054800
      py      :     0.046171
  5 H s       :     0.661668  s :     0.661668
      pz      :     0.035159  p :     0.197715
      px      :     0.049228
      py      :     0.113329
  6 O s       :     3.450873  s :     3.450873
      pz      :     1.509245  p :     4.768588
      px      :     1.547525
      py      :     1.711818
      dz2     :     0.021370  d :     0.059291
      dxz     :     0.007297
      dyz     :     0.007477
      dx2y2   :     0.009149
      dxy     :     0.013998
      f0      :     0.000886  f :     0.004932
      f+1     :     0.001005
      f-1     :     0.000737
      f+2     :     0.000391
      f-2     :     0.000426
      f+3     :     0.000410
      f-3     :     0.001075
  7 H s       :     0.665823  s :     0.665823
      pz      :     0.081259  p :     0.162270
      px      :     0.037624
      py      :     0.043386
  8 H s       :     0.669275  s :     0.669275
      pz      :     0.030630  p :     0.177818
      px      :     0.087731
      py      :     0.059456
  9 O s       :     3.465029  s :     3.465029
      pz      :     1.500145  p :     4.821792
      px      :     1.781850
      py      :     1.539796
      dz2     :     0.021166  d :     0.058269
      dxz     :     0.007812
      dyz     :     0.007305
      dx2y2   :     0.007545
      dxy     :     0.014440
      f0      :     0.000913  f :     0.004904
      f+1     :     0.000711
      f-1     :     0.001008
      f+2     :     0.000391
      f-2     :     0.000421
      f+3     :     0.001083
      f-3     :     0.000377
 10 H s       :     0.675199  s :     0.675199
      pz      :     0.080447  p :     0.161657
      px      :     0.043956
      py      :     0.037254
 11 H s       :     0.678202  s :     0.678202
      pz      :     0.030846  p :     0.176286
      px      :     0.059509
      py      :     0.085931
 12 O s       :     3.465335  s :     3.465335
      pz      :     1.700628  p :     4.783018
      px      :     1.722042
      py      :     1.360348
      dz2     :     0.010357  d :     0.058145
      dxz     :     0.011128
      dyz     :     0.012231
      dx2y2   :     0.009632
      dxy     :     0.014797
      f0      :     0.000459  f :     0.004831
      f+1     :     0.000656
      f-1     :     0.000870
      f+2     :     0.000408
      f-2     :     0.001017
      f+3     :     0.000945
      f-3     :     0.000476
 13 H s       :     0.668613  s :     0.668613
      pz      :     0.067705  p :     0.166198
      px      :     0.053953
      py      :     0.044540
 14 H s       :     0.655878  s :     0.655878
      pz      :     0.034762  p :     0.151438
      px      :     0.044918
      py      :     0.071758


                      *****************************
                      * MAYER POPULATION ANALYSIS *
                      *****************************

  NA   - Mulliken gross atomic population
  ZA   - Total nuclear charge
  QA   - Mulliken gross atomic charge
  VA   - Mayer's total valence
  BVA  - Mayer's bonded valence
  FA   - Mayer's free valence

  ATOM       NA         ZA         QA         VA         BVA        FA
  0 O      8.6948     8.0000    -0.6948     2.0978     1.7147     0.3831
  1 H      0.6468     1.0000     0.3532     0.8946     0.8493     0.0453
  2 H      0.6391     1.0000     0.3609     0.8880     0.8406     0.0474
  3 O      8.7383     8.0000    -0.7383     2.0114     1.6244     0.3870
  4 H      0.6752     1.0000     0.3248     0.9141     0.8661     0.0480
  5 H      0.6359     1.0000     0.3641     0.9213     0.8760     0.0453
  6 O      8.7010     8.0000    -0.7010     2.0865     1.7047     0.3818
  7 H      0.6453     1.0000     0.3547     0.8910     0.8447     0.0463
  8 H      0.6277     1.0000     0.3723     0.9082     0.8646     0.0435
  9 O      8.7087     8.0000    -0.7087     2.0580     1.6758     0.3822
 10 H      0.6642     1.0000     0.3358     0.9048     0.8571     0.0477
 11 H      0.6465     1.0000     0.3535     0.9201     0.8751     0.0449
 12 O      8.7033     8.0000    -0.7033     2.0953     1.7116     0.3837
 13 H      0.6445     1.0000     0.3555     0.8926     0.8475     0.0451
 14 H      0.6286     1.0000     0.3714     0.8821     0.8355     0.0466

  Mayer bond orders larger than 0.100000
B(  0-O ,  1-H ) :   0.8412 B(  0-O ,  2-H ) :   0.8305 B(  3-O ,  4-H ) :   0.8608 
B(  3-O ,  5-H ) :   0.7778 B(  6-O ,  7-H ) :   0.8398 B(  6-O ,  8-H ) :   0.7991 
B(  9-O , 10-H ) :   0.8543 B(  9-O , 11-H ) :   0.8224 B( 12-O , 13-H ) :   0.8400 
B( 12-O , 14-H ) :   0.8219 


----------------------------------
MP2 DERIVATIVE INTEGRAL GENERATION
----------------------------------


Input Wavefunction Amplitudes       ... 12h2o.su.etal.mol0,2,8,9,10-orca.engrad-mp2.def2tzvp.frozencore.mp2tsaa.tmp
Input Correlated Electron Density   ... 12h2o.su.etal.mol0,2,8,9,10-orca.engrad-mp2.def2tzvp.frozencore.pmp2re
Input Energy Weighted Density       ... 12h2o.su.etal.mol0,2,8,9,10-orca.engrad-mp2.def2tzvp.frozencore.wmp2.tmp
Input SCF Electron Density          ... 12h2o.su.etal.mol0,2,8,9,10-orca.engrad-mp2.def2tzvp.frozencore.scfp

One-Electron Terms    ...
                        ... One-Electron Terms done
Prescreening matrices              ... done

Batch handling in the gradient evaluation:
Memory available                      ... 8000.0 MB
Memory per occupied orbital in Q2     ...    7.1 MB
Memory per occupied orbital in Q3     ...    0.1 MB
Total memory requirement per |i>      ...    7.1 MB
Max. Number of orbitals possible      ...   1121
Number of orbitals treated per batch  ...     20
Number of batches to be done          ...      1
Batch   0: i=    5 ...    24

---------------------------------------
MP2 TOTAL ENERGY:     -381.592112455 Eh
---------------------------------------

The final MP2 gradient
  0:   0.02686490  -0.00801633   0.00000069
  1:   0.00111210  -0.00217358  -0.00167696
  2:  -0.02773596   0.00888472   0.00121468
  3:  -0.00183856  -0.00946688   0.00023838
  4:  -0.00026811  -0.00186156  -0.00053077
  5:   0.00463398   0.01724707   0.00103364
  6:  -0.00262310  -0.00727705  -0.00859473
  7:   0.00108990   0.00038890   0.00768858
  8:  -0.00000859  -0.00119206  -0.00115926
  9:  -0.00376349  -0.00126155   0.00780812
 10:   0.00188027  -0.00264679  -0.00918556
 11:   0.00171254   0.00521214   0.00234079
 12:   0.00476918   0.02718754   0.00112092
 13:   0.00228577   0.00105119   0.00154774
 14:  -0.00811082  -0.02607577  -0.00184625

-----------------------------------
NORM OF THE MP2 GRADIENT:  0.063139
-----------------------------------

-------------------------   --------------------
FINAL SINGLE POINT ENERGY      -381.592112455169
-------------------------   --------------------


                            ***************************************
                            *     ORCA property calculations      *
                            ***************************************

                                    ---------------------
                                    Active property flags
                                    ---------------------
   (+) Dipole Moment


------------------------------------------------------------------------------
                       ORCA ELECTRIC PROPERTIES CALCULATION
------------------------------------------------------------------------------

Dipole Moment Calculation                       ... on
Quadrupole Moment Calculation                   ... off
Polarizability Calculation                      ... off
GBWName                                         ... 12h2o.su.etal.mol0,2,8,9,10-orca.engrad-mp2.def2tzvp.frozencore.gbw
Electron density file                           ... 12h2o.su.etal.mol0,2,8,9,10-orca.engrad-mp2.def2tzvp.frozencore.scfp
The origin for moment calculation is the CENTER OF MASS  = ( 1.615640,  0.010232 -1.062357)

-------------
DIPOLE MOMENT
-------------
                                X             Y             Z
Electronic contribution:     -0.01828       0.31430       0.08829
Nuclear contribution   :     -0.19829       1.69977      -0.63259
                        -----------------------------------------
Total Dipole Moment    :     -0.21657       2.01407      -0.54431
                        -----------------------------------------
Magnitude (a.u.)       :      2.09753
Magnitude (Debye)      :      5.33150



--------------------
Rotational spectrum 
--------------------
 
Rotational constants in cm-1:     0.063563     0.021202     0.018569 
Rotational constants in MHz :  1905.580398   635.624684   556.698220 

 Dipole components along the rotational axes: 
x,y,z [a.u.] :    -0.875987     1.894335    -0.209242 
x,y,z [Debye]:    -2.226583     4.815018    -0.531850 

 

                         *** MP2 UNRELAXED DENSITY ***

------------------------------------------------------------------------------
                       ORCA ELECTRIC PROPERTIES CALCULATION
------------------------------------------------------------------------------

Dipole Moment Calculation                       ... on
Quadrupole Moment Calculation                   ... off
Polarizability Calculation                      ... off
GBWName                                         ... 12h2o.su.etal.mol0,2,8,9,10-orca.engrad-mp2.def2tzvp.frozencore.gbw
Electron density file                           ... 12h2o.su.etal.mol0,2,8,9,10-orca.engrad-mp2.def2tzvp.frozencore.pmp2ur
The origin for moment calculation is the CENTER OF MASS  = ( 1.615640,  0.010232 -1.062357)

-------------
DIPOLE MOMENT
-------------
                                X             Y             Z
Electronic contribution:     -0.01633       0.30337       0.09414
Nuclear contribution   :     -0.19829       1.69977      -0.63259
                        -----------------------------------------
Total Dipole Moment    :     -0.21463       2.00314      -0.53845
                        -----------------------------------------
Magnitude (a.u.)       :      2.08532
Magnitude (Debye)      :      5.30047



--------------------
Rotational spectrum 
--------------------
 
Rotational constants in cm-1:     0.063563     0.021202     0.018569 
Rotational constants in MHz :  1905.580398   635.624684   556.698220 

 Dipole components along the rotational axes: 
x,y,z [a.u.] :    -0.868288     1.884454    -0.208536 
x,y,z [Debye]:    -2.207012     4.789902    -0.530056 

 

                           *** MP2 RELAXED DENSITY ***

------------------------------------------------------------------------------
                       ORCA ELECTRIC PROPERTIES CALCULATION
------------------------------------------------------------------------------

Dipole Moment Calculation                       ... on
Quadrupole Moment Calculation                   ... off
Polarizability Calculation                      ... off
GBWName                                         ... 12h2o.su.etal.mol0,2,8,9,10-orca.engrad-mp2.def2tzvp.frozencore.gbw
Electron density file                           ... 12h2o.su.etal.mol0,2,8,9,10-orca.engrad-mp2.def2tzvp.frozencore.pmp2re
The origin for moment calculation is the CENTER OF MASS  = ( 1.615640,  0.010232 -1.062357)

-------------
DIPOLE MOMENT
-------------
                                X             Y             Z
Electronic contribution:     -0.01946       0.30729       0.09875
Nuclear contribution   :     -0.19829       1.69977      -0.63259
                        -----------------------------------------
Total Dipole Moment    :     -0.21775       2.00706      -0.53385
                        -----------------------------------------
Magnitude (a.u.)       :      2.08823
Magnitude (Debye)      :      5.30786



--------------------
Rotational spectrum 
--------------------
 
Rotational constants in cm-1:     0.063563     0.021202     0.018569 
Rotational constants in MHz :  1905.580398   635.624684   556.698220 

 Dipole components along the rotational axes: 
x,y,z [a.u.] :    -0.864838     1.889567    -0.205663 
x,y,z [Debye]:    -2.198244     4.802897    -0.522754 

 

Timings for individual modules:

Sum of individual times         ...       26.883 sec (=   0.448 min)
GTO integral calculation        ...        1.126 sec (=   0.019 min)   4.2 %
SCF iterations                  ...        6.322 sec (=   0.105 min)  23.5 %
MP2 module                      ...       19.436 sec (=   0.324 min)  72.3 %
                             ****ORCA TERMINATED NORMALLY****
TOTAL RUN TIME: 0 days 0 hours 0 minutes 27 seconds 877 msec
