18
Energy:   -141.24374982
O   -0.92035286   1.76868985   1.48441876
H   -0.97644051   2.64153970   1.87328784
H   -0.32356471   1.87396086   0.74347762
O    1.73427423  -0.67947986   0.10618750
H    2.55144034  -0.75279529   0.59923541
H    1.04760499  -0.82858593   0.75617564
O    0.86559329   1.84343089  -0.57312730
H    0.39658951   1.71133853  -1.39703197
H    1.28600183   1.00138650  -0.39862872
O   -0.32903735  -0.85589759   1.91807148
H   -0.61159339   0.05507326   1.83728759
H   -0.94750748  -1.24506576   2.53635513
C   -0.88981312  -1.94219295  -1.92860022
H   -1.21656289  -1.97214065  -0.91015145
H    0.06267803  -2.42253448  -2.01185723
H   -1.60064823  -2.45016886  -2.54631618
C   -0.76734152  -0.47664974  -2.38552887
N   -0.67615585   0.61451380  -2.72573302
