18
Energy:   -141.22188477
O   -1.00266833   0.07287221  -2.40377527
H   -1.07694607  -0.21159952  -3.31470364
H   -0.38823938  -0.54560258  -2.00855654
O   -0.54289543   2.04228004  -0.57446702
H   -0.76966035   1.39954252  -1.24655184
H   -1.19888406   2.73256876  -0.67148378
O    0.81410917  -1.48483400  -1.12075710
H    0.38148244  -2.06748423  -0.49658991
H    1.20500283  -0.79980187  -0.57838733
O    1.59384522   0.63977003   0.44238657
H    0.86519233   1.19369333   0.16226911
H    2.37702444   1.14527261   0.22483358
C   -0.50838043  -0.49654838   2.88591659
H   -1.09012474  -0.73550271   3.75158083
H   -0.92471518   0.36237189   2.40236676
H    0.49893604  -0.28715291   3.17979779
C   -0.52167542  -1.69021095   1.91298653
N   -0.53157414  -2.57894699   1.18859587
