18
Energy:   -141.23093133
O    0.70944340  -1.97156919   0.58814823
H   -0.10905524  -2.00113663   0.09275184
H    1.18461598  -2.75582093   0.31357206
O   -1.66401126  -1.78629235  -0.73729696
H   -1.84013664  -0.87563787  -0.50082263
H   -2.51724749  -2.13738556  -0.99215639
O    0.25196641   0.50342707   1.70046975
H    0.49258359  -0.35868525   1.36120942
H    0.18562422   0.37880784   2.64720129
O   -1.93395700   0.80283776   0.06361100
H   -1.23383632   0.79085945   0.71623600
H   -1.60563508   1.37486112  -0.63009343
C    2.27011949   1.64864206  -0.85324356
H    2.38102195   0.58703149  -0.77851862
H    2.39981244   2.08968635   0.11296489
H    3.00669568   2.03781018  -1.52473651
C    0.86372033   1.98168305  -1.38496257
N   -0.18340778   2.22964721  -1.78085154
