18
Energy:   -141.27683955
O    1.74208372   0.62720517  -1.00305816
H    1.15913945   1.28387445  -1.38410052
H    1.25123628  -0.19245724  -1.06183026
O    0.14687870  -1.60346044  -0.82328653
H    0.51932706  -2.48486825  -0.84847283
H   -0.06870243  -1.46026621   0.09826219
O    1.69523678   0.85384816   1.69202146
H    2.54453473   1.17666510   1.99320921
H    1.77036595   0.83472588   0.73796602
O   -0.28420856  -1.01662690   1.82141799
H    0.40864690  -0.35846559   1.87625271
H   -0.79884998  -0.89029625   2.61854823
C   -2.62328760   0.39633955  -1.11216606
H   -3.56703878   0.85756633  -1.31589074
H   -2.55318670   0.17357180  -0.06796326
H   -2.53953316  -0.50893845  -1.67639654
C   -1.48642604   1.35606208  -1.50975687
N   -0.63998094   2.07061913  -1.80578131
