18
Energy:   -138.51890615
O    0.05774034   1.16792835  -1.42201028
H   -0.52179182   0.88449162  -0.71487667
H    0.71090240   1.71892213  -0.99071337
O   -0.58093372  -2.38698148  -0.35692544
H   -0.02530372  -3.12591464  -0.10896388
H   -0.20584909  -2.06974392  -1.17845067
O    0.55043384  -1.25204751  -2.57454683
H    0.45073936  -0.38198589  -2.18817183
H    0.47235779  -1.10633227  -3.51736338
O   -1.60440928   0.01801569   0.47282510
H   -2.54918493  -0.08037535   0.59093529
H   -1.29662233  -0.86219593   0.25666187
C    0.86369076   1.45325587   3.06436457
H   -0.12176288   1.04799503   2.96666625
H    0.86176120   2.21963833   3.81105948
H    1.54170278   0.67698171   3.35176191
C    1.30895480   2.05076622   1.71665492
N    1.64047411   2.49563984   0.71322382
