18
Energy:   -141.24899939
O   -1.51845863   0.50024618   1.99419538
H   -2.02152453   1.05607414   2.58935236
H   -1.22359444   1.09356064   1.30335176
O    0.47660088  -1.31493708   1.62636553
H   -0.25700307  -0.73353255   1.82643019
H    0.24146128  -2.14760898   2.03575376
O    1.75665733   0.39941189  -0.08860662
H    1.36771140  -0.26481421   0.48038952
H    2.56778732   0.64936146   0.35391480
O   -0.46237702   2.02268055   0.00452434
H    0.37655034   1.56705256  -0.06501607
H   -0.90314794   1.84199932  -0.82572089
C    0.19428161  -1.47813924  -2.47807873
H   -0.20652242  -2.17680683  -3.18243652
H    0.19380747  -1.91592772  -1.50173857
H    1.19659873  -1.22690334  -2.75581965
C   -0.67076669  -0.20408165  -2.46979069
N   -1.31483447   0.74451214  -2.46361987
