18
Energy:   -141.24820105
O   -1.96272602  -1.03368203  -0.05875177
H   -2.91427532  -0.96957050   0.02295191
H   -1.63395730  -0.86158540   0.82358928
O    0.53522198  -1.23869469  -1.14676508
H    0.65272846  -2.15217880  -1.40747727
H   -0.37637600  -1.18645878  -0.85955021
O    1.63707533  -0.36064472   1.21316776
H    1.84642846   0.55561099   1.03184321
H    1.35965527  -0.71514265   0.36841858
O   -0.80209517  -0.55006987   2.36043261
H   -0.70261362  -0.75285735   3.29060060
H    0.09438508  -0.46047421   2.03712528
C    0.18570681   2.11952573  -2.11597380
H    0.50141972   2.84709000  -2.83421872
H   -0.83550739   2.29897407  -1.85174105
H    0.27854195   1.13987975  -2.53618146
C    1.06748962   2.22406367  -0.85774850
N    1.72401701   2.30189691   0.07905742
