
                                 *****************
                                 * O   R   C   A *
                                 *****************

           --- An Ab Initio, DFT and Semiempirical electronic structure package ---

                  #######################################################
                  #                        -***-                        #
                  #          Department of theory and spectroscopy      #
                  #               Directorship: Frank Neese             #
                  #        Max Planck Institute fuer Kohlenforschung    #
                  #                Kaiser Wilhelm Platz 1               #
                  #                 D-45470 Muelheim/Ruhr               #
                  #                      Germany                        #
                  #                                                     #
                  #                  All rights reserved                #
                  #                        -***-                        #
                  #######################################################


                         Program Version 4.2.0 -  RELEASE  -


 With contributions from (in alphabetic order):
   Daniel Aravena         : Magnetic Suceptibility
   Michael Atanasov       : Ab Initio Ligand Field Theory (pilot matlab implementation)
   Alexander A. Auer      : GIAO ZORA, VPT2
   Ute Becker             : Parallelization
   Giovanni Bistoni       : ED, misc. LED, open-shell LED, HFLED
   Martin Brehm           : Molecular dynamics
   Dmytro Bykov           : SCF Hessian
   Vijay G. Chilkuri      : MRCI spin determinant printing, contributions to CSF-ICE
   Dipayan Datta          : RHF DLPNO-CCSD density
   Achintya Kumar Dutta   : EOM-CC, STEOM-CC
   Dmitry Ganyushin       : Spin-Orbit,Spin-Spin,Magnetic field MRCI
   Miquel Garcia          : C-PCM Hessian, Gaussian charge scheme
   Yang Guo               : DLPNO-NEVPT2, CIM, IAO-localization
   Andreas Hansen         : Spin unrestricted coupled pair/coupled cluster methods
   Benjamin Helmich-Paris : CASSCF linear response (MC-RPA)
   Lee Huntington         : MR-EOM, pCC
   Robert Izsak           : Overlap fitted RIJCOSX, COSX-SCS-MP3, EOM
   Christian Kollmar      : KDIIS, OOCD, Brueckner-CCSD(T), CCSD density
   Simone Kossmann        : Meta GGA functionals, TD-DFT gradient, OOMP2, MP2 Hessian
   Martin Krupicka        : AUTO-CI
   Lucas Lang             : DCDCAS
   Dagmar Lenk            : GEPOL surface, SMD
   Dimitrios Liakos       : Extrapolation schemes; Compound Job, initial MDCI parallelization
   Dimitrios Manganas     : Further ROCIS development; embedding schemes
   Dimitrios Pantazis     : SARC Basis sets
   Taras Petrenko         : DFT Hessian,TD-DFT gradient, ASA, ECA, R-Raman, ABS, FL, XAS/XES, NRVS
   Peter Pinski           : DLPNO-MP2, DLPNO-MP2 Gradient
   Christoph Reimann      : Effective Core Potentials
   Marius Retegan         : Local ZFS, SOC
   Christoph Riplinger    : Optimizer, TS searches, QM/MM, DLPNO-CCSD(T), (RO)-DLPNO pert. Triples
   Tobias Risthaus        : Range-separated hybrids, TD-DFT gradient, RPA, STAB
   Michael Roemelt        : Original ROCIS implementation
   Masaaki Saitow         : Open-shell DLPNO-CCSD energy and density
   Barbara Sandhoefer     : DKH picture change effects
   Avijit Sen             : IP-ROCIS
   Kantharuban Sivalingam : CASSCF convergence, NEVPT2, FIC-MRCI
   Bernardo de Souza      : ESD, SOC TD-DFT
   Georgi Stoychev        : AutoAux, RI-MP2 NMR
   Willem Van den Heuvel  : Paramagnetic NMR
   Boris Wezisla          : Elementary symmetry handling
   Frank Wennmohs         : Technical directorship


 We gratefully acknowledge several colleagues who have allowed us to
 interface, adapt or use parts of their codes:
   Stefan Grimme, W. Hujo, H. Kruse,             : VdW corrections, initial TS optimization,
                  C. Bannwarth                     DFT functionals, gCP, sTDA/sTD-DF
   Ed Valeev, F. Pavosevic, A. Kumar             : LibInt (2-el integral package), F12 methods
   Garnet Chan, S. Sharma, J. Yang, R. Olivares  : DMRG
   Ulf Ekstrom                                   : XCFun DFT Library
   Mihaly Kallay                                 : mrcc  (arbitrary order and MRCC methods)
   Andreas Klamt, Michael Diedenhofen            : otool_cosmo (COSMO solvation model)
   Jiri Pittner, Ondrej Demel                    : Mk-CCSD
   Frank Weinhold                                : gennbo (NPA and NBO analysis)
   Christopher J. Cramer and Donald G. Truhlar   : smd solvation model
   Lars Goerigk                                  : TD-DFT with DH, B97 family of functionals
   V. Asgeirsson, H. Jonsson                     : NEB implementation
   FAccTs GmbH                                   : IRC, NEB, NEB-TS, Multilevel, MM, QM/MM, CI optimization
   S Lehtola, MJT Oliveira, MAL Marques          : LibXC Library


 Your calculation uses the libint2 library for the computation of 2-el integrals
 For citations please refer to: http://libint.valeyev.net

 Your ORCA version has been built with support for libXC version: 4.2.3
 For citations please refer to: https://tddft.org/programs/libxc/

 This ORCA versions uses:
   CBLAS   interface :  Fast vector & matrix operations
   LAPACKE interface :  Fast linear algebra routines
   SCALAPACK package :  Parallel linear algebra routines


----- Orbital basis set information -----
Your calculation utilizes the basis: def2-TZVP
   F. Weigend and R. Ahlrichs, Phys. Chem. Chem. Phys. 7, 3297 (2005).

================================================================================
                                        WARNINGS
                       Please study these warnings very carefully!
================================================================================


WARNING: The frozen-core approximation for MP2-gradient calculations is turned on by default.

INFO   : the flag for use of LIBINT has been found!

================================================================================
                                       INPUT FILE
================================================================================
NAME = 12h2o.su.etal.mol0,3,5,6,10-orca.engrad-mp2.def2tzvp.frozencore.inp
|  1> # 12h2o.su.etal.mol0,3,5,6,10
|  2> ! MP2 def2-TZVP EnGrad TightSCF
|  3> 
|  4> %pal
|  5>     nprocs 6
|  6> end
|  7> 
|  8> %maxcore 8000
|  9> 
| 10> %scf
| 11>     ConvForced true
| 12> end
| 13> 
| 14> *xyz 0 1
| 15> O   1.794470000   0.923410000   2.768350000
| 16> H   2.338250000   1.359750000   3.430940000
| 17> H   0.879480000   1.303000000   2.865760000
| 18> O  -1.752130000  -0.741530000  -2.896280000
| 19> H  -2.036450000  -0.920500000  -1.984040000
| 20> H  -0.921210000  -1.242140000  -2.984230000
| 21> O   0.885520000  -1.737840000   0.052730000
| 22> H   1.284090000  -0.839590000   0.017130000
| 23> H   1.032320000  -2.090180000  -0.841890000
| 24> O   1.737840000   0.885520000  -0.052730000
| 25> H   2.090180000   1.032320000   0.841890000
| 26> H   0.839590000   1.284090000  -0.017130000
| 27> O  -0.923410000   1.794470000  -2.768350000
| 28> H  -1.359750000   2.338250000  -3.430940000
| 29> H  -1.303000000   0.879480000  -2.865760000
| 30> *
| 31> 
| 32>                          ****END OF INPUT****
================================================================================

                     *******************************
                     * Energy+Gradient Calculation *
                     *******************************

---------------------------------
CARTESIAN COORDINATES (ANGSTROEM)
---------------------------------
  O      1.794470    0.923410    2.768350
  H      2.338250    1.359750    3.430940
  H      0.879480    1.303000    2.865760
  O     -1.752130   -0.741530   -2.896280
  H     -2.036450   -0.920500   -1.984040
  H     -0.921210   -1.242140   -2.984230
  O      0.885520   -1.737840    0.052730
  H      1.284090   -0.839590    0.017130
  H      1.032320   -2.090180   -0.841890
  O      1.737840    0.885520   -0.052730
  H      2.090180    1.032320    0.841890
  H      0.839590    1.284090   -0.017130
  O     -0.923410    1.794470   -2.768350
  H     -1.359750    2.338250   -3.430940
  H     -1.303000    0.879480   -2.865760

----------------------------
CARTESIAN COORDINATES (A.U.)
----------------------------
  NO LB      ZA    FRAG     MASS         X           Y           Z
   0 O     8.0000    0    15.999    3.391057    1.744992    5.231423
   1 H     1.0000    0     1.008    4.418652    2.569555    6.483537
   2 H     1.0000    0     1.008    1.661976    2.462313    5.415502
   3 O     8.0000    0    15.999   -3.311046   -1.401289   -5.473176
   4 H     1.0000    0     1.008   -3.848333   -1.739493   -3.749292
   5 H     1.0000    0     1.008   -1.740835   -2.347304   -5.639377
   6 O     8.0000    0    15.999    1.673390   -3.284042    0.099645
   7 H     1.0000    0     1.008    2.426578   -1.586595    0.032371
   8 H     1.0000    0     1.008    1.950802   -3.949868   -1.590942
   9 O     8.0000    0    15.999    3.284042    1.673390   -0.099645
  10 H     1.0000    0     1.008    3.949868    1.950802    1.590942
  11 H     1.0000    0     1.008    1.586595    2.426578   -0.032371
  12 O     8.0000    0    15.999   -1.744992    3.391057   -5.231423
  13 H     1.0000    0     1.008   -2.569555    4.418652   -6.483537
  14 H     1.0000    0     1.008   -2.462313    1.661976   -5.415502

--------------------------------
INTERNAL COORDINATES (ANGSTROEM)
--------------------------------
 O      0   0   0     0.000000000000     0.00000000     0.00000000
 H      1   0   0     0.961828878803     0.00000000     0.00000000
 H      1   2   0     0.995381322057   106.21731035     0.00000000
 O      3   1   2     6.656318732948    99.29837960   164.71437028
 H      4   3   1     0.972136791249    50.19793542   121.30203245
 H      4   3   1     0.974050112161    84.18963930     7.83137870
 O      6   4   3     3.568349453809   115.24367641    18.95239673
 H      7   6   4     0.983350632989    92.72348103   278.95950655
 H      7   6   4     0.972645187106    48.99927156   173.15988704
 O      8   7   6     1.785153773264   170.81379649    57.46597109
 H     10   8   7     0.972645187106   101.65007623   109.44492584
 H     10   8   7     0.983350632989    99.09581498     3.33484705
 O      4   3   1     2.671037050155    62.88669193   259.82381314
 H     13   4   3     0.961828878803   111.28648995   202.27526567
 H     13   4   3     0.995381322057     5.27275451   218.50755098

---------------------------
INTERNAL COORDINATES (A.U.)
---------------------------
 O      0   0   0     0.000000000000     0.00000000     0.00000000
 H      1   0   0     1.817593168635     0.00000000     0.00000000
 H      1   2   0     1.880998097508   106.21731035     0.00000000
 O      3   1   2    12.578619465362    99.29837960   164.71437028
 H      4   3   1     1.837072300170    50.19793542   121.30203245
 H      4   3   1     1.840687952699    84.18963930     7.83137870
 O      6   4   3     6.743203217827   115.24367641    18.95239673
 H      7   6   4     1.858263389967    92.72348103   278.95950655
 H      7   6   4     1.838033029106    48.99927156   173.15988704
 O      8   7   6     3.373451738406   170.81379649    57.46597109
 H     10   8   7     1.838033029106   101.65007623   109.44492584
 H     10   8   7     1.858263389967    99.09581498     3.33484705
 O      4   3   1     5.047528518350    62.88669193   259.82381314
 H     13   4   3     1.817593168635   111.28648995   202.27526567
 H     13   4   3     1.880998097508     5.27275451   218.50755098

---------------------
BASIS SET INFORMATION
---------------------
There are 2 groups of distinct atoms

 Group   1 Type O   : 11s6p2d1f contracted to 5s3p2d1f pattern {62111/411/11/1}
 Group   2 Type H   : 5s1p contracted to 3s1p pattern {311/1}

Atom   0O    basis set group =>   1
Atom   1H    basis set group =>   2
Atom   2H    basis set group =>   2
Atom   3O    basis set group =>   1
Atom   4H    basis set group =>   2
Atom   5H    basis set group =>   2
Atom   6O    basis set group =>   1
Atom   7H    basis set group =>   2
Atom   8H    basis set group =>   2
Atom   9O    basis set group =>   1
Atom  10H    basis set group =>   2
Atom  11H    basis set group =>   2
Atom  12O    basis set group =>   1
Atom  13H    basis set group =>   2
Atom  14H    basis set group =>   2


           ************************************************************
           *        Program running with 6 parallel MPI-processes     *
           *              working on a common directory               *
           ************************************************************
------------------------------------------------------------------------------
                           ORCA GTO INTEGRAL CALCULATION
------------------------------------------------------------------------------

                         BASIS SET STATISTICS AND STARTUP INFO

 # of primitive gaussian shells          ...  160
 # of primitive gaussian functions       ...  310
 # of contracted shells                  ...   95
 # of contracted basis functions         ...  215
 Highest angular momentum                ...    3
 Maximum contraction depth               ...    6
 Integral package used                   ... LIBINT
 Integral threshhold            Thresh   ...  2.500e-11
 Primitive cut-off              TCut     ...  2.500e-12


------------------------------ INTEGRAL EVALUATION ----------------------------


 * One electron integrals 
 Pre-screening matrix                    ... done
 Shell pair data                         ... done (   0.001 sec)



           ************************************************************
           *        Program running with 6 parallel MPI-processes     *
           *              working on a common directory               *
           ************************************************************
-------------------------------------------------------------------------------
                                 ORCA SCF
-------------------------------------------------------------------------------

------------
SCF SETTINGS
------------
Hamiltonian:
 Ab initio Hamiltonian  Method          .... Hartree-Fock(GTOs)


General Settings:
 Integral files         IntName         .... 12h2o.su.etal.mol0,3,5,6,10-orca.engrad-mp2.def2tzvp.frozencore
 Hartree-Fock type      HFTyp           .... RHF
 Total Charge           Charge          ....    0
 Multiplicity           Mult            ....    1
 Number of Electrons    NEL             ....   50
 Basis Dimension        Dim             ....  215
 Nuclear Repulsion      ENuc            ....    181.4084302516 Eh

Convergence Acceleration:
 DIIS                   CNVDIIS         .... on
   Start iteration      DIISMaxIt       ....    12
   Startup error        DIISStart       ....  0.200000
   # of expansion vecs  DIISMaxEq       ....     5
   Bias factor          DIISBfac        ....   1.050
   Max. coefficient     DIISMaxC        ....  10.000
 Newton-Raphson         CNVNR           .... off
 SOSCF                  CNVSOSCF        .... on
   Start iteration      SOSCFMaxIt      ....   150
   Startup grad/error   SOSCFStart      ....  0.003300
 Level Shifting         CNVShift        .... on
   Level shift para.    LevelShift      ....    0.2500
   Turn off err/grad.   ShiftErr        ....    0.0010
 Zerner damping         CNVZerner       .... off
 Static damping         CNVDamp         .... on
   Fraction old density DampFac         ....    0.7000
   Max. Damping (<1)    DampMax         ....    0.9800
   Min. Damping (>=0)   DampMin         ....    0.0000
   Turn off err/grad.   DampErr         ....    0.1000
 Fernandez-Rico         CNVRico         .... off

SCF Procedure:
 Maximum # iterations   MaxIter         ....   125
 SCF integral mode      SCFMode         .... Direct
   Integral package                     .... LIBINT
 Reset frequency        DirectResetFreq ....    20
 Integral Threshold     Thresh          ....  2.500e-11 Eh
 Primitive CutOff       TCut            ....  2.500e-12 Eh

Convergence Tolerance:
 Convergence Check Mode ConvCheckMode   .... Total+1el-Energy
 Convergence forced     ConvForced      .... 1
 Energy Change          TolE            ....  1.000e-08 Eh
 1-El. energy change                    ....  1.000e-05 Eh
 Orbital Gradient       TolG            ....  1.000e-05
 Orbital Rotation angle TolX            ....  1.000e-05
 DIIS Error             TolErr          ....  5.000e-07


Diagonalization of the overlap matrix:
Smallest eigenvalue                        ... 4.409e-03
Time for diagonalization                   ...    0.009 sec
Threshold for overlap eigenvalues          ... 1.000e-08
Number of eigenvalues below threshold      ... 0
Time for construction of square roots      ...    0.006 sec
Total time needed                          ...    0.015 sec

-------------------
DFT GRID GENERATION
-------------------

General Integration Accuracy     IntAcc      ...  4.340
Radial Grid Type                 RadialGrid  ... Gauss-Chebyshev
Angular Grid (max. acc.)         AngularGrid ... Lebedev-110
Angular grid pruning method      GridPruning ... 3 (G Style)
Weight generation scheme         WeightScheme... Becke
Basis function cutoff            BFCut       ...    1.0000e-11
Integration weight cutoff        WCut        ...    1.0000e-14
Grids for H and He will be reduced by one unit

# of grid points (after initial pruning)     ...  16520 (   0.0 sec)
# of grid points (after weights+screening)   ...  15840 (   0.0 sec)
nearest neighbour list constructed           ...    0.0 sec
Grid point re-assignment to atoms done       ...    0.0 sec
Grid point division into batches done        ...    0.0 sec
Reduced shell lists constructed in    0.0 sec

Total number of grid points                  ...    15840
Total number of batches                      ...      256
Average number of points per batch           ...       61
Average number of grid points per atom       ...     1056
Average number of shells per batch           ...    40.89 (43.04%)
Average number of basis functions per batch  ...    82.25 (38.26%)
Average number of large shells per batch     ...    28.93 (70.76%)
Average number of large basis fcns per batch ...    58.89 (71.59%)
Maximum spatial batch extension              ...  14.79, 20.95, 12.98 au
Average spatial batch extension              ...   0.81,  0.90,  0.74 au

Time for grid setup =    0.041 sec

------------------------------
INITIAL GUESS: MODEL POTENTIAL
------------------------------
Loading Hartree-Fock densities                     ... done
Calculating cut-offs                               ... done
Setting up the integral package                    ... done
Initializing the effective Hamiltonian             ... done
Starting the Coulomb interaction                   ... done (   0.0 sec)
Reading the grid                                   ... done
Mapping shells                                     ... done
Starting the XC term evaluation                    ... done (   0.0 sec)
Transforming the Hamiltonian                       ... done (   0.0 sec)
Diagonalizing the Hamiltonian                      ... done (   0.0 sec)
Back transforming the eigenvectors                 ... done (   0.0 sec)
Now organizing SCF variables                       ... done
                      ------------------
                      INITIAL GUESS DONE (   0.1 sec)
                      ------------------
--------------
SCF ITERATIONS
--------------
ITER       Energy         Delta-E        Max-DP      RMS-DP      [F,P]     Damp
               ***  Starting incremental Fock matrix formation  ***
  0   -379.8386763086   0.000000000000 0.04399443  0.00107556  0.3539081 0.7000
  1   -380.0206299375  -0.181953628899 0.02934404  0.00074353  0.2165588 0.7000
                               ***Turning on DIIS***
  2   -380.1165413409  -0.095911403417 0.01690943  0.00041253  0.1635738 0.7000
  3   -380.9727493066  -0.856207965730 0.00761219  0.00018605  0.1218638 0.7000
  4   -380.7988959877   0.173853318903 0.01710683  0.00043038  0.0862305 0.0000
  5   -380.3374811176   0.461414870092 0.00205056  0.00007009  0.0057994 0.0000
                      *** Initiating the SOSCF procedure ***
                           *** Shutting down DIIS ***
                      *** Re-Reading the Fockian *** 
                      *** Removing any level shift *** 
ITER      Energy       Delta-E        Grad      Rot      Max-DP    RMS-DP
  6   -380.31016177   0.0273193461  0.000753  0.000753  0.001360  0.000043
               *** Restarting incremental Fock matrix formation ***
  7   -380.30125073   0.0089110445  0.000241  0.000334  0.000671  0.000019
  8   -380.30125832  -0.0000075892  0.000146  0.000280  0.000508  0.000015
  9   -380.30126012  -0.0000018051  0.000065  0.000040  0.000092  0.000003
 10   -380.30126027  -0.0000001492  0.000014  0.000008  0.000019  0.000000
                  ***Gradient check signals convergence***
              ***Rediagonalizing the Fockian in SOSCF/NRSCF***

               *****************************************************
               *                     SUCCESS                       *
               *           SCF CONVERGED AFTER  11 CYCLES          *
               *****************************************************


----------------
TOTAL SCF ENERGY
----------------

Total Energy       :         -380.30126027 Eh          -10348.52340 eV

Components:
Nuclear Repulsion  :          181.40843025 Eh            4936.37435 eV
Electronic Energy  :         -561.70969053 Eh          -15284.89775 eV
One Electron Energy:         -886.52699543 Eh          -24123.62597 eV
Two Electron Energy:          324.81730491 Eh            8838.72822 eV

Virial components:
Potential Energy   :         -760.06799655 Eh          -20682.50166 eV
Kinetic Energy     :          379.76673628 Eh           10333.97826 eV
Virial Ratio       :            2.00140751


---------------
SCF CONVERGENCE
---------------

  Last Energy change         ...   -3.6150e-09  Tolerance :   1.0000e-08
  Last MAX-Density change    ...    5.7218e-06  Tolerance :   1.0000e-07
  Last RMS-Density change    ...    1.4552e-07  Tolerance :   5.0000e-09
  Last Orbital Gradient      ...    2.3903e-06  Tolerance :   1.0000e-05
  Last Orbital Rotation      ...    2.6217e-06  Tolerance :   1.0000e-05

             **** THE GBW FILE WAS UPDATED (12h2o.su.etal.mol0,3,5,6,10-orca.engrad-mp2.def2tzvp.frozencore.gbw) ****
             **** DENSITY FILE WAS UPDATED (12h2o.su.etal.mol0,3,5,6,10-orca.engrad-mp2.def2tzvp.frozencore.scfp) ****
             **** ENERGY FILE WAS UPDATED (12h2o.su.etal.mol0,3,5,6,10-orca.engrad-mp2.def2tzvp.frozencore.en.tmp) ****
             **** THE GBW FILE WAS UPDATED (12h2o.su.etal.mol0,3,5,6,10-orca.engrad-mp2.def2tzvp.frozencore.gbw) ****
             **** DENSITY FILE WAS UPDATED (12h2o.su.etal.mol0,3,5,6,10-orca.engrad-mp2.def2tzvp.frozencore.scfp) ****
----------------
ORBITAL ENERGIES
----------------

  NO   OCC          E(Eh)            E(eV) 
   0   2.0000     -20.594526      -560.4055 
   1   2.0000     -20.594487      -560.4045 
   2   2.0000     -20.556876      -559.3810 
   3   2.0000     -20.524427      -558.4980 
   4   2.0000     -20.519863      -558.3739 
   5   2.0000      -1.379766       -37.5453 
   6   2.0000      -1.372724       -37.3537 
   7   2.0000      -1.340682       -36.4818 
   8   2.0000      -1.304436       -35.4955 
   9   2.0000      -1.302073       -35.4312 
  10   2.0000      -0.739336       -20.1184 
  11   2.0000      -0.737347       -20.0642 
  12   2.0000      -0.703752       -19.1501 
  13   2.0000      -0.692197       -18.8356 
  14   2.0000      -0.678374       -18.4595 
  15   2.0000      -0.615655       -16.7528 
  16   2.0000      -0.614135       -16.7115 
  17   2.0000      -0.582767       -15.8579 
  18   2.0000      -0.557791       -15.1783 
  19   2.0000      -0.552126       -15.0241 
  20   2.0000      -0.531570       -14.4648 
  21   2.0000      -0.514460       -13.9992 
  22   2.0000      -0.494443       -13.4545 
  23   2.0000      -0.472260       -12.8508 
  24   2.0000      -0.470213       -12.7951 
  25   0.0000       0.096397         2.6231 
  26   0.0000       0.109683         2.9846 
  27   0.0000       0.160319         4.3625 
  28   0.0000       0.170023         4.6266 
  29   0.0000       0.179909         4.8956 
  30   0.0000       0.197665         5.3787 
  31   0.0000       0.224281         6.1030 
  32   0.0000       0.266838         7.2610 
  33   0.0000       0.320096         8.7102 
  34   0.0000       0.339347         9.2341 
  35   0.0000       0.454253        12.3608 
  36   0.0000       0.481093        13.0912 
  37   0.0000       0.487454        13.2643 
  38   0.0000       0.520478        14.1629 
  39   0.0000       0.544098        14.8057 
  40   0.0000       0.547280        14.8922 
  41   0.0000       0.562439        15.3047 
  42   0.0000       0.571834        15.5604 
  43   0.0000       0.590513        16.0687 
  44   0.0000       0.593046        16.1376 
  45   0.0000       0.605451        16.4752 
  46   0.0000       0.620238        16.8775 
  47   0.0000       0.636022        17.3071 
  48   0.0000       0.643872        17.5206 
  49   0.0000       0.661807        18.0087 
  50   0.0000       0.679079        18.4787 
  51   0.0000       0.700707        19.0672 
  52   0.0000       0.719986        19.5918 
  53   0.0000       0.733565        19.9613 
  54   0.0000       0.752597        20.4792 
  55   0.0000       0.761567        20.7233 
  56   0.0000       0.788924        21.4677 
  57   0.0000       0.811240        22.0750 
  58   0.0000       0.811524        22.0827 
  59   0.0000       0.849356        23.1122 
  60   0.0000       0.860232        23.4081 
  61   0.0000       0.947292        25.7771 
  62   0.0000       1.012329        27.5469 
  63   0.0000       1.028461        27.9858 
  64   0.0000       1.048578        28.5332 
  65   0.0000       1.363842        37.1120 
  66   0.0000       1.382263        37.6133 
  67   0.0000       1.383695        37.6522 
  68   0.0000       1.391621        37.8679 
  69   0.0000       1.409086        38.3432 
  70   0.0000       1.439174        39.1619 
  71   0.0000       1.475128        40.1403 
  72   0.0000       1.489156        40.5220 
  73   0.0000       1.492649        40.6171 
  74   0.0000       1.499451        40.8021 
  75   0.0000       1.550608        42.1942 
  76   0.0000       1.579200        42.9722 
  77   0.0000       1.590770        43.2871 
  78   0.0000       1.610761        43.8310 
  79   0.0000       1.635777        44.5117 
  80   0.0000       1.784807        48.5671 
  81   0.0000       1.799924        48.9784 
  82   0.0000       1.818747        49.4906 
  83   0.0000       1.851395        50.3790 
  84   0.0000       1.867801        50.8255 
  85   0.0000       1.886662        51.3387 
  86   0.0000       1.897515        51.6340 
  87   0.0000       1.946187        52.9584 
  88   0.0000       1.977560        53.8121 
  89   0.0000       1.994852        54.2827 
  90   0.0000       2.058542        56.0158 
  91   0.0000       2.061432        56.0944 
  92   0.0000       2.094548        56.9956 
  93   0.0000       2.138987        58.2048 
  94   0.0000       2.151332        58.5407 
  95   0.0000       2.242856        61.0312 
  96   0.0000       2.258112        61.4464 
  97   0.0000       2.310691        62.8771 
  98   0.0000       2.318971        63.1024 
  99   0.0000       2.324509        63.2531 
 100   0.0000       2.341953        63.7278 
 101   0.0000       2.350751        63.9672 
 102   0.0000       2.367390        64.4199 
 103   0.0000       2.382409        64.8286 
 104   0.0000       2.395109        65.1742 
 105   0.0000       2.396212        65.2042 
 106   0.0000       2.496824        67.9420 
 107   0.0000       2.515628        68.4537 
 108   0.0000       2.532707        68.9185 
 109   0.0000       2.559655        69.6518 
 110   0.0000       2.571051        69.9618 
 111   0.0000       2.575116        70.0725 
 112   0.0000       2.615666        71.1759 
 113   0.0000       2.631894        71.6175 
 114   0.0000       2.642348        71.9019 
 115   0.0000       2.665489        72.5316 
 116   0.0000       2.693182        73.2852 
 117   0.0000       2.716275        73.9136 
 118   0.0000       2.749087        74.8065 
 119   0.0000       2.788786        75.8867 
 120   0.0000       2.880938        78.3943 
 121   0.0000       2.900473        78.9259 
 122   0.0000       2.926645        79.6381 
 123   0.0000       2.943675        80.1015 
 124   0.0000       2.958631        80.5085 
 125   0.0000       2.966035        80.7099 
 126   0.0000       2.972752        80.8927 
 127   0.0000       3.003265        81.7230 
 128   0.0000       3.026848        82.3647 
 129   0.0000       3.046794        82.9075 
 130   0.0000       3.080356        83.8207 
 131   0.0000       3.092853        84.1608 
 132   0.0000       3.127571        85.1055 
 133   0.0000       3.187359        86.7324 
 134   0.0000       3.233774        87.9955 
 135   0.0000       3.244324        88.2825 
 136   0.0000       3.246705        88.3473 
 137   0.0000       3.285868        89.4130 
 138   0.0000       3.441004        93.6345 
 139   0.0000       3.502902        95.3188 
 140   0.0000       3.965743       107.9134 
 141   0.0000       4.005472       108.9944 
 142   0.0000       4.066575       110.6571 
 143   0.0000       4.096804       111.4797 
 144   0.0000       4.109081       111.8138 
 145   0.0000       4.277943       116.4087 
 146   0.0000       4.280217       116.4706 
 147   0.0000       4.314308       117.3983 
 148   0.0000       4.373428       119.0070 
 149   0.0000       4.400847       119.7531 
 150   0.0000       5.514316       150.0522 
 151   0.0000       5.522621       150.2782 
 152   0.0000       5.547299       150.9497 
 153   0.0000       5.581223       151.8728 
 154   0.0000       5.585909       152.0003 
 155   0.0000       5.608420       152.6129 
 156   0.0000       5.656012       153.9079 
 157   0.0000       5.677484       154.4922 
 158   0.0000       5.680930       154.5860 
 159   0.0000       5.687462       154.7637 
 160   0.0000       5.783240       157.3700 
 161   0.0000       5.801963       157.8794 
 162   0.0000       5.806788       158.0107 
 163   0.0000       5.816036       158.2624 
 164   0.0000       5.823401       158.4628 
 165   0.0000       5.854722       159.3151 
 166   0.0000       5.856062       159.3515 
 167   0.0000       5.865740       159.6149 
 168   0.0000       5.869901       159.7281 
 169   0.0000       5.887791       160.2149 
 170   0.0000       5.891094       160.3048 
 171   0.0000       5.894814       160.4060 
 172   0.0000       5.897350       160.4751 
 173   0.0000       5.929726       161.3560 
 174   0.0000       5.965850       162.3390 
 175   0.0000       6.400270       174.1602 
 176   0.0000       6.455169       175.6541 
 177   0.0000       6.470418       176.0690 
 178   0.0000       6.500974       176.9005 
 179   0.0000       6.507102       177.0672 
 180   0.0000       6.668965       181.4718 
 181   0.0000       6.684785       181.9023 
 182   0.0000       6.693581       182.1416 
 183   0.0000       6.748255       183.6294 
 184   0.0000       6.761671       183.9944 
 185   0.0000       6.832393       185.9189 
 186   0.0000       6.847072       186.3183 
 187   0.0000       6.852258       186.4594 
 188   0.0000       6.877749       187.1531 
 189   0.0000       6.881913       187.2664 
 190   0.0000       6.885723       187.3700 
 191   0.0000       6.898687       187.7228 
 192   0.0000       6.901818       187.8080 
 193   0.0000       6.916279       188.2015 
 194   0.0000       6.953457       189.2132 
 195   0.0000       6.957360       189.3194 
 196   0.0000       6.987565       190.1413 
 197   0.0000       6.997345       190.4074 
 198   0.0000       7.035334       191.4412 
 199   0.0000       7.063889       192.2182 
 200   0.0000       7.350467       200.0164 
 201   0.0000       7.389637       201.0822 
 202   0.0000       7.409182       201.6141 
 203   0.0000       7.462090       203.0538 
 204   0.0000       7.473638       203.3680 
 205   0.0000       7.479879       203.5379 
 206   0.0000       7.503470       204.1798 
 207   0.0000       7.566683       205.8999 
 208   0.0000       7.571838       206.0402 
 209   0.0000       7.589522       206.5214 
 210   0.0000      44.838232      1220.1103 
 211   0.0000      44.899631      1221.7811 
 212   0.0000      44.953443      1223.2454 
 213   0.0000      44.971747      1223.7435 
 214   0.0000      44.989544      1224.2277 

                    ********************************
                    * MULLIKEN POPULATION ANALYSIS *
                    ********************************

-----------------------
MULLIKEN ATOMIC CHARGES
-----------------------
   0 O :   -0.713454
   1 H :    0.362349
   2 H :    0.362100
   3 O :   -0.707016
   4 H :    0.372297
   5 H :    0.366362
   6 O :   -0.739900
   7 H :    0.390453
   8 H :    0.320185
   9 O :   -0.730121
  10 H :    0.392657
  11 H :    0.356376
  12 O :   -0.755573
  13 H :    0.333731
  14 H :    0.389556
Sum of atomic charges:   -0.0000000

--------------------------------
MULLIKEN REDUCED ORBITAL CHARGES
--------------------------------
  0 O s       :     3.810183  s :     3.810183
      pz      :     1.717980  p :     4.876976
      px      :     1.355834
      py      :     1.803162
      dz2     :     0.003962  d :     0.024775
      dxz     :     0.004287
      dyz     :     0.005846
      dx2y2   :     0.002503
      dxy     :     0.008178
      f0      :     0.000083  f :     0.001520
      f+1     :     0.000330
      f-1     :     0.000187
      f+2     :     0.000071
      f-2     :     0.000351
      f+3     :     0.000100
      f-3     :     0.000399
  1 H s       :     0.592189  s :     0.592189
      pz      :     0.016998  p :     0.045462
      px      :     0.013515
      py      :     0.014949
  2 H s       :     0.596107  s :     0.596107
      pz      :     0.010825  p :     0.041793
      px      :     0.017758
      py      :     0.013211
  3 O s       :     3.799862  s :     3.799862
      pz      :     1.532001  p :     4.879788
      px      :     1.556089
      py      :     1.791698
      dz2     :     0.012515  d :     0.025912
      dxz     :     0.001224
      dyz     :     0.002503
      dx2y2   :     0.002493
      dxy     :     0.007177
      f0      :     0.000249  f :     0.001455
      f+1     :     0.000394
      f-1     :     0.000165
      f+2     :     0.000052
      f-2     :     0.000057
      f+3     :     0.000055
      f-3     :     0.000483
  4 H s       :     0.584171  s :     0.584171
      pz      :     0.019529  p :     0.043532
      px      :     0.011546
      py      :     0.012457
  5 H s       :     0.590211  s :     0.590211
      pz      :     0.010232  p :     0.043427
      px      :     0.018411
      py      :     0.014784
  6 O s       :     3.812161  s :     3.812161
      pz      :     1.511103  p :     4.901264
      px      :     1.878340
      py      :     1.511820
      dz2     :     0.011594  d :     0.025034
      dxz     :     0.002602
      dyz     :     0.003005
      dx2y2   :     0.002949
      dxy     :     0.004884
      f0      :     0.000186  f :     0.001442
      f+1     :     0.000125
      f-1     :     0.000452
      f+2     :     0.000076
      f-2     :     0.000041
      f+3     :     0.000446
      f-3     :     0.000115
  7 H s       :     0.555647  s :     0.555647
      pz      :     0.009437  p :     0.053900
      px      :     0.015358
      py      :     0.029105
  8 H s       :     0.634584  s :     0.634584
      pz      :     0.018067  p :     0.045231
      px      :     0.014678
      py      :     0.012486
  9 O s       :     3.804336  s :     3.804336
      pz      :     1.596626  p :     4.899084
      px      :     1.459339
      py      :     1.843119
      dz2     :     0.011546  d :     0.025318
      dxz     :     0.002909
      dyz     :     0.002295
      dx2y2   :     0.003585
      dxy     :     0.004983
      f0      :     0.000148  f :     0.001383
      f+1     :     0.000457
      f-1     :     0.000114
      f+2     :     0.000068
      f-2     :     0.000040
      f+3     :     0.000107
      f-3     :     0.000450
 10 H s       :     0.558986  s :     0.558986
      pz      :     0.024884  p :     0.048357
      px      :     0.010846
      py      :     0.012628
 11 H s       :     0.600762  s :     0.600762
      pz      :     0.010132  p :     0.042863
      px      :     0.018454
      py      :     0.014276
 12 O s       :     3.808714  s :     3.808714
      pz      :     1.716942  p :     4.921502
      px      :     1.801488
      py      :     1.403071
      dz2     :     0.004005  d :     0.023885
      dxz     :     0.005618
      dyz     :     0.004624
      dx2y2   :     0.002340
      dxy     :     0.007298
      f0      :     0.000087  f :     0.001472
      f+1     :     0.000185
      f-1     :     0.000328
      f+2     :     0.000070
      f-2     :     0.000359
      f+3     :     0.000354
      f-3     :     0.000089
 13 H s       :     0.620139  s :     0.620139
      pz      :     0.017023  p :     0.046130
      px      :     0.015170
      py      :     0.013938
 14 H s       :     0.553453  s :     0.553453
      pz      :     0.010935  p :     0.056990
      px      :     0.014165
      py      :     0.031890


                     *******************************
                     * LOEWDIN POPULATION ANALYSIS *
                     *******************************

----------------------
LOEWDIN ATOMIC CHARGES
----------------------
   0 O :   -0.312744
   1 H :    0.163638
   2 H :    0.185425
   3 O :   -0.278964
   4 H :    0.176474
   5 H :    0.175157
   6 O :   -0.363557
   7 H :    0.153418
   8 H :    0.149673
   9 O :   -0.307244
  10 H :    0.157975
  11 H :    0.173740
  12 O :   -0.372524
  13 H :    0.148481
  14 H :    0.151052

-------------------------------
LOEWDIN REDUCED ORBITAL CHARGES
-------------------------------
  0 O s       :     3.468723  s :     3.468723
      pz      :     1.681791  p :     4.809573
      px      :     1.353546
      py      :     1.774236
      dz2     :     0.005358  d :     0.032338
      dxz     :     0.006727
      dyz     :     0.005814
      dx2y2   :     0.003891
      dxy     :     0.010548
      f0      :     0.000087  f :     0.002110
      f+1     :     0.000450
      f-1     :     0.000273
      f+2     :     0.000035
      f-2     :     0.000606
      f+3     :     0.000093
      f-3     :     0.000564
  1 H s       :     0.673018  s :     0.673018
      pz      :     0.066363  p :     0.163344
      px      :     0.044154
      py      :     0.052826
  2 H s       :     0.666673  s :     0.666673
      pz      :     0.033418  p :     0.147902
      px      :     0.070876
      py      :     0.043609
  3 O s       :     3.458772  s :     3.458772
      pz      :     1.521388  p :     4.784501
      px      :     1.532737
      py      :     1.730376
      dz2     :     0.016585  d :     0.033487
      dxz     :     0.001957
      dyz     :     0.001991
      dx2y2   :     0.003701
      dxy     :     0.009253
      f0      :     0.000451  f :     0.002204
      f+1     :     0.000592
      f-1     :     0.000346
      f+2     :     0.000023
      f-2     :     0.000049
      f+3     :     0.000027
      f-3     :     0.000716
  4 H s       :     0.664756  s :     0.664756
      pz      :     0.081785  p :     0.158770
      px      :     0.035444
      py      :     0.041541
  5 H s       :     0.667260  s :     0.667260
      pz      :     0.029781  p :     0.157583
      px      :     0.072752
      py      :     0.055049
  6 O s       :     3.472858  s :     3.472858
      pz      :     1.530126  p :     4.857474
      px      :     1.839832
      py      :     1.487517
      dz2     :     0.015333  d :     0.031162
      dxz     :     0.001761
      dyz     :     0.004570
      dx2y2   :     0.003726
      dxy     :     0.005772
      f0      :     0.000406  f :     0.002064
      f+1     :     0.000194
      f-1     :     0.000763
      f+2     :     0.000049
      f-2     :     0.000046
      f+3     :     0.000540
      f-3     :     0.000064
  7 H s       :     0.661067  s :     0.661067
      pz      :     0.028722  p :     0.185516
      px      :     0.052468
      py      :     0.104327
  8 H s       :     0.691788  s :     0.691788
      pz      :     0.077642  p :     0.158539
      px      :     0.043983
      py      :     0.036914
  9 O s       :     3.464037  s :     3.464037
      pz      :     1.574570  p :     4.809400
      px      :     1.451882
      py      :     1.782949
      dz2     :     0.014520  d :     0.031776
      dxz     :     0.003847
      dyz     :     0.001371
      dx2y2   :     0.005451
      dxy     :     0.006587
      f0      :     0.000325  f :     0.002031
      f+1     :     0.000717
      f-1     :     0.000208
      f+2     :     0.000038
      f-2     :     0.000043
      f+3     :     0.000075
      f-3     :     0.000624
 10 H s       :     0.669462  s :     0.669462
      pz      :     0.094018  p :     0.172563
      px      :     0.035897
      py      :     0.042649
 11 H s       :     0.672131  s :     0.672131
      pz      :     0.030483  p :     0.154130
      px      :     0.074380
      py      :     0.049266
 12 O s       :     3.467944  s :     3.467944
      pz      :     1.705138  p :     4.872683
      px      :     1.778575
      py      :     1.388971
      dz2     :     0.004304  d :     0.029877
      dxz     :     0.005852
      dyz     :     0.007115
      dx2y2   :     0.003366
      dxy     :     0.009241
      f0      :     0.000073  f :     0.002020
      f+1     :     0.000268
      f-1     :     0.000442
      f+2     :     0.000034
      f-2     :     0.000631
      f+3     :     0.000487
      f-3     :     0.000085
 13 H s       :     0.687243  s :     0.687243
      pz      :     0.065504  p :     0.164276
      px      :     0.053308
      py      :     0.045464
 14 H s       :     0.655606  s :     0.655606
      pz      :     0.033670  p :     0.193341
      px      :     0.047604
      py      :     0.112067


                      *****************************
                      * MAYER POPULATION ANALYSIS *
                      *****************************

  NA   - Mulliken gross atomic population
  ZA   - Total nuclear charge
  QA   - Mulliken gross atomic charge
  VA   - Mayer's total valence
  BVA  - Mayer's bonded valence
  FA   - Mayer's free valence

  ATOM       NA         ZA         QA         VA         BVA        FA
  0 O      8.7135     8.0000    -0.7135     1.7731     1.7731    -0.0000
  1 H      0.6377     1.0000     0.3623     0.8838     0.8838     0.0000
  2 H      0.6379     1.0000     0.3621     0.8830     0.8830     0.0000
  3 O      8.7070     8.0000    -0.7070     1.7768     1.7768    -0.0000
  4 H      0.6277     1.0000     0.3723     0.8775     0.8775    -0.0000
  5 H      0.6336     1.0000     0.3664     0.8830     0.8830    -0.0000
  6 O      8.7399     8.0000    -0.7399     1.7167     1.7167    -0.0000
  7 H      0.6095     1.0000     0.3905     0.8860     0.8860    -0.0000
  8 H      0.6798     1.0000     0.3202     0.9121     0.9121    -0.0000
  9 O      8.7301     8.0000    -0.7301     1.7584     1.7584    -0.0000
 10 H      0.6073     1.0000     0.3927     0.8732     0.8732    -0.0000
 11 H      0.6436     1.0000     0.3564     0.8905     0.8905    -0.0000
 12 O      8.7556     8.0000    -0.7556     1.7014     1.7014    -0.0000
 13 H      0.6663     1.0000     0.3337     0.9043     0.9043    -0.0000
 14 H      0.6104     1.0000     0.3896     0.8818     0.8818    -0.0000

  Mayer bond orders larger than 0.100000
B(  0-O ,  1-H ) :   0.8764 B(  0-O ,  2-H ) :   0.8736 B(  3-O ,  4-H ) :   0.8682 
B(  3-O ,  5-H ) :   0.8723 B(  6-O ,  7-H ) :   0.8197 B(  6-O ,  8-H ) :   0.9068 
B(  9-O , 10-H ) :   0.8385 B(  9-O , 11-H ) :   0.8771 B( 12-O , 13-H ) :   0.8983 
B( 12-O , 14-H ) :   0.8211 

-------
TIMINGS
-------

Total SCF time: 0 days 0 hours 0 min 6 sec 

Total time                  ....       6.117 sec
Sum of individual times     ....       5.946 sec  ( 97.2%)

Fock matrix formation       ....       5.516 sec  ( 90.2%)
Diagonalization             ....       0.110 sec  (  1.8%)
Density matrix formation    ....       0.006 sec  (  0.1%)
Population analysis         ....       0.017 sec  (  0.3%)
Initial guess               ....       0.102 sec  (  1.7%)
Orbital Transformation      ....       0.000 sec  (  0.0%)
Orbital Orthonormalization  ....       0.000 sec  (  0.0%)
DIIS solution               ....       0.042 sec  (  0.7%)
SOSCF solution              ....       0.112 sec  (  1.8%)


           ************************************************************
           *        Program running with 6 parallel MPI-processes     *
           *              working on a common directory               *
           ************************************************************

------------------------------------------------------------------------------
                                ORCA  MP2 
------------------------------------------------------------------------------

Freezing NCore=10 chemical core electrons
MP2 will be done in the AO integral direct mode
The Q1-step will be done using symmetric double matrices
Dimension of the basis                    ...  215
Memory devoted for MP2                    ... 8000 MB   
Memory needed for all in one shot         ...  153 MB
Number of MOs that can be treated together...  209      
MP2 density construction                  ... relaxed
The MP2 gradient is requested => amplitudes will be stored on disk
Total number of MOs              ...   20
Number of MOs treated per batch  ...    4 
Number of batches necessary      ...    1 
OPERATORS   0/  0 PASS   0
-----------------------------------------------
 MP2 CORRELATION ENERGY   :     -1.288386911 Eh
-----------------------------------------------


---------------------
MP2 DENSITY FORMATION
---------------------

Completing the external part of the density      ... done
Storing the unrelaxed density                    ... done

Calculating G(D)                                 ... done
Completing the Lagrangian                        ... done
Solving the Z-vector equations                   ... 

------------------------------------------------------------------------------
                           ORCA CP-SCF CALCULATION
------------------------------------------------------------------------------

Input orbitals are from        ... 12h2o.su.etal.mol0,3,5,6,10-orca.engrad-mp2.def2tzvp.frozencore.gbw
Input Perturbation             ... 12h2o.su.etal.mol0,3,5,6,10-orca.engrad-mp2.def2tzvp.frozencore.pin.tmp
Wavefunction output            ... 12h2o.su.etal.mol0,3,5,6,10-orca.engrad-mp2.def2tzvp.frozencore.pout.tmp
Perturbation mode              ... Real perturbation (singlet)
Solver                         ... POPLE
Max. number of iterations      ... 128
Convergence tolerance          ... 1.000e-08
Integral handling              ... Direct
Number of perturbations        ... 1
Number of operators            ... 1
Orbital ranges used for CP-SCF:
 Operator 0:  Orbitals   0... 24  to  25...214
Variables per vector in CP-SCF ... 4750
Number of vectors sought       ... 1
     CP-SCF ITERATION   0: 
     CP-SCF ITERATION   1:      0.000626046632
     CP-SCF ITERATION   2:      0.000014452780
     CP-SCF ITERATION   3:      0.000000567867
     CP-SCF ITERATION   4:      0.000000062092
     CP-SCF ITERATION   5:      0.000000005540
                                                 ... done
Finalizing the relaxed density                   ... done
Transforming P to the AO basis                   ... done
Storing the relaxed density                      ... done

------------------------------------
ENERGY WEIGHTED DENSITY FINALIZATION
------------------------------------

Gathering the parts of the W-matrix              ...                                                      done
Forming the Z-density                            ... done
Transforming Z to the AO basis                   ... done
Calculating G(Z)                                 ... done
Finalizing the W-matrix                          ...                                                      done
Transforming W to the AO basis and storing       ... done

                *********************************************
                * UNRELAXED MP2 DENSITY POPULATION ANALYSIS *
                *********************************************

------------------------------------------------------------------------------
                           ORCA POPULATION ANALYSIS
------------------------------------------------------------------------------
Input electron density              ... 12h2o.su.etal.mol0,3,5,6,10-orca.engrad-mp2.def2tzvp.frozencore.pmp2ur
BaseName (.gbw .S,...)              ... 12h2o.su.etal.mol0,3,5,6,10-orca.engrad-mp2.def2tzvp.frozencore

                    ********************************
                    * MULLIKEN POPULATION ANALYSIS *
                    ********************************

-----------------------
MULLIKEN ATOMIC CHARGES
-----------------------
   0 O :   -0.708208
   1 H :    0.360177
   2 H :    0.359383
   3 O :   -0.700969
   4 H :    0.369821
   5 H :    0.363825
   6 O :   -0.734267
   7 H :    0.386287
   8 H :    0.317695
   9 O :   -0.723598
  10 H :    0.389647
  11 H :    0.353620
  12 O :   -0.750202
  13 H :    0.331493
  14 H :    0.385295
Sum of atomic charges:   -0.0000000

--------------------------------
MULLIKEN REDUCED ORBITAL CHARGES
--------------------------------
  0 O s       :     3.805351  s :     3.805351
      pz      :     1.707087  p :     4.847227
      px      :     1.348259
      py      :     1.791881
      dz2     :     0.009477  d :     0.051558
      dxz     :     0.009642
      dyz     :     0.011233
      dx2y2   :     0.007843
      dxy     :     0.013362
      f0      :     0.000454  f :     0.004072
      f+1     :     0.000690
      f-1     :     0.000552
      f+2     :     0.000438
      f-2     :     0.000714
      f+3     :     0.000468
      f-3     :     0.000756
  1 H s       :     0.592796  s :     0.592796
      pz      :     0.017466  p :     0.047027
      px      :     0.013897
      py      :     0.015665
  2 H s       :     0.597263  s :     0.597263
      pz      :     0.011659  p :     0.043354
      px      :     0.017704
      py      :     0.013991
  3 O s       :     3.794714  s :     3.794714
      pz      :     1.522847  p :     4.849321
      px      :     1.546951
      py      :     1.779524
      dz2     :     0.017590  d :     0.052897
      dxz     :     0.006597
      dyz     :     0.008046
      dx2y2   :     0.008106
      dxy     :     0.012558
      f0      :     0.000629  f :     0.004037
      f+1     :     0.000759
      f-1     :     0.000540
      f+2     :     0.000414
      f-2     :     0.000423
      f+3     :     0.000429
      f-3     :     0.000843
  4 H s       :     0.585121  s :     0.585121
      pz      :     0.019587  p :     0.045057
      px      :     0.012206
      py      :     0.013265
  5 H s       :     0.591205  s :     0.591205
      pz      :     0.010993  p :     0.044970
      px      :     0.018572
      py      :     0.015405
  6 O s       :     3.807150  s :     3.807150
      pz      :     1.502106  p :     4.871278
      px      :     1.866462
      py      :     1.502710
      dz2     :     0.016638  d :     0.051834
      dxz     :     0.008091
      dyz     :     0.008340
      dx2y2   :     0.008459
      dxy     :     0.010306
      f0      :     0.000564  f :     0.004005
      f+1     :     0.000493
      f-1     :     0.000818
      f+2     :     0.000438
      f-2     :     0.000406
      f+3     :     0.000803
      f-3     :     0.000482
  7 H s       :     0.558167  s :     0.558167
      pz      :     0.010243  p :     0.055546
      px      :     0.016055
      py      :     0.029248
  8 H s       :     0.635286  s :     0.635286
      pz      :     0.018251  p :     0.047019
      px      :     0.015594
      py      :     0.013173
  9 O s       :     3.799258  s :     3.799258
      pz      :     1.586702  p :     4.867864
      px      :     1.450684
      py      :     1.830478
      dz2     :     0.016759  d :     0.052508
      dxz     :     0.008260
      dyz     :     0.007916
      dx2y2   :     0.009123
      dxy     :     0.010451
      f0      :     0.000536  f :     0.003968
      f+1     :     0.000824
      f-1     :     0.000490
      f+2     :     0.000433
      f-2     :     0.000406
      f+3     :     0.000475
      f-3     :     0.000804
 10 H s       :     0.560500  s :     0.560500
      pz      :     0.024985  p :     0.049853
      px      :     0.011420
      py      :     0.013448
 11 H s       :     0.601903  s :     0.601903
      pz      :     0.010973  p :     0.044477
      px      :     0.018501
      py      :     0.015004
 12 O s       :     3.803827  s :     3.803827
      pz      :     1.706537  p :     4.891458
      px      :     1.790227
      py      :     1.394694
      dz2     :     0.009474  d :     0.050879
      dxz     :     0.010951
      dyz     :     0.009987
      dx2y2   :     0.007832
      dxy     :     0.012635
      f0      :     0.000455  f :     0.004037
      f+1     :     0.000547
      f-1     :     0.000691
      f+2     :     0.000438
      f-2     :     0.000724
      f+3     :     0.000719
      f-3     :     0.000462
 13 H s       :     0.620655  s :     0.620655
      pz      :     0.017531  p :     0.047851
      px      :     0.015922
      py      :     0.014398
 14 H s       :     0.556022  s :     0.556022
      pz      :     0.011776  p :     0.058683
      px      :     0.014912
      py      :     0.031995


                     *******************************
                     * LOEWDIN POPULATION ANALYSIS *
                     *******************************

----------------------
LOEWDIN ATOMIC CHARGES
----------------------
   0 O :   -0.309102
   1 H :    0.162517
   2 H :    0.183706
   3 O :   -0.274864
   4 H :    0.175082
   5 H :    0.173685
   6 O :   -0.360873
   7 H :    0.150968
   8 H :    0.148057
   9 O :   -0.302903
  10 H :    0.156017
  11 H :    0.172003
  12 O :   -0.370108
  13 H :    0.147210
  14 H :    0.148604

-------------------------------
LOEWDIN REDUCED ORBITAL CHARGES
-------------------------------
  0 O s       :     3.464939  s :     3.464939
      pz      :     1.670448  p :     4.779117
      px      :     1.345496
      py      :     1.763174
      dz2     :     0.010964  d :     0.060190
      dxz     :     0.012289
      dyz     :     0.011483
      dx2y2   :     0.009352
      dxy     :     0.016101
      f0      :     0.000470  f :     0.004856
      f+1     :     0.000858
      f-1     :     0.000657
      f+2     :     0.000409
      f-2     :     0.001013
      f+3     :     0.000474
      f-3     :     0.000974
  1 H s       :     0.671151  s :     0.671151
      pz      :     0.067554  p :     0.166332
      px      :     0.044965
      py      :     0.053813
  2 H s       :     0.665266  s :     0.665266
      pz      :     0.034257  p :     0.151028
      px      :     0.072157
      py      :     0.044614
  3 O s       :     3.454904  s :     3.454904
      pz      :     1.512016  p :     4.753502
      px      :     1.523379
      py      :     1.718106
      dz2     :     0.022348  d :     0.061476
      dxz     :     0.007269
      dyz     :     0.007460
      dx2y2   :     0.009285
      dxy     :     0.015114
      f0      :     0.000871  f :     0.004982
      f+1     :     0.001011
      f-1     :     0.000745
      f+2     :     0.000390
      f-2     :     0.000422
      f+3     :     0.000407
      f-3     :     0.001136
  4 H s       :     0.663199  s :     0.663199
      pz      :     0.083215  p :     0.161719
      px      :     0.036167
      py      :     0.042337
  5 H s       :     0.665723  s :     0.665723
      pz      :     0.030507  p :     0.160592
      px      :     0.074026
      py      :     0.056060
  6 O s       :     3.469135  s :     3.469135
      pz      :     1.520654  p :     4.827823
      px      :     1.828543
      py      :     1.478626
      dz2     :     0.021049  d :     0.059094
      dxz     :     0.007185
      dyz     :     0.009922
      dx2y2   :     0.009417
      dxy     :     0.011521
      f0      :     0.000816  f :     0.004821
      f+1     :     0.000579
      f-1     :     0.001198
      f+2     :     0.000418
      f-2     :     0.000417
      f+3     :     0.000952
      f-3     :     0.000442
  7 H s       :     0.660852  s :     0.660852
      pz      :     0.029515  p :     0.188180
      px      :     0.053296
      py      :     0.105369
  8 H s       :     0.689879  s :     0.689879
      pz      :     0.079481  p :     0.162064
      px      :     0.044808
      py      :     0.037775
  9 O s       :     3.460211  s :     3.460211
      pz      :     1.564650  p :     4.777857
      px      :     1.442935
      py      :     1.770272
      dz2     :     0.020344  d :     0.060023
      dxz     :     0.009239
      dyz     :     0.006914
      dx2y2   :     0.011171
      dxy     :     0.012354
      f0      :     0.000742  f :     0.004812
      f+1     :     0.001153
      f-1     :     0.000600
      f+2     :     0.000411
      f-2     :     0.000416
      f+3     :     0.000454
      f-3     :     0.001036
 10 H s       :     0.668636  s :     0.668636
      pz      :     0.095303  p :     0.175346
      px      :     0.036626
      py      :     0.043417
 11 H s       :     0.670683  s :     0.670683
      pz      :     0.031310  p :     0.157314
      px      :     0.075798
      py      :     0.050206
 12 O s       :     3.464289  s :     3.464289
      pz      :     1.694738  p :     4.843100
      px      :     1.767654
      py      :     1.380708
      dz2     :     0.009850  d :     0.057937
      dxz     :     0.011502
      dyz     :     0.012699
      dx2y2   :     0.008958
      dxy     :     0.014927
      f0      :     0.000451  f :     0.004782
      f+1     :     0.000650
      f-1     :     0.000854
      f+2     :     0.000410
      f-2     :     0.001040
      f+3     :     0.000905
      f-3     :     0.000472
 13 H s       :     0.685206  s :     0.685206
      pz      :     0.066805  p :     0.167584
      px      :     0.054344
      py      :     0.046434
 14 H s       :     0.655536  s :     0.655536
      pz      :     0.034510  p :     0.195859
      px      :     0.048500
      py      :     0.112850


                      *****************************
                      * MAYER POPULATION ANALYSIS *
                      *****************************

  NA   - Mulliken gross atomic population
  ZA   - Total nuclear charge
  QA   - Mulliken gross atomic charge
  VA   - Mayer's total valence
  BVA  - Mayer's bonded valence
  FA   - Mayer's free valence

  ATOM       NA         ZA         QA         VA         BVA        FA
  0 O      8.7082     8.0000    -0.7082     2.0805     1.6917     0.3889
  1 H      0.6398     1.0000     0.3602     0.8894     0.8442     0.0452
  2 H      0.6406     1.0000     0.3594     0.8891     0.8409     0.0482
  3 O      8.7010     8.0000    -0.7010     2.0822     1.6967     0.3855
  4 H      0.6302     1.0000     0.3698     0.8832     0.8378     0.0454
  5 H      0.6362     1.0000     0.3638     0.8889     0.8428     0.0461
  6 O      8.7343     8.0000    -0.7343     2.0272     1.6362     0.3909
  7 H      0.6137     1.0000     0.3863     0.8932     0.8477     0.0455
  8 H      0.6823     1.0000     0.3177     0.9186     0.8683     0.0503
  9 O      8.7236     8.0000    -0.7236     2.0682     1.6780     0.3902
 10 H      0.6104     1.0000     0.3896     0.8792     0.8354     0.0439
 11 H      0.6464     1.0000     0.3536     0.8968     0.8486     0.0482
 12 O      8.7502     8.0000    -0.7502     2.0138     1.6226     0.3912
 13 H      0.6685     1.0000     0.3315     0.9103     0.8625     0.0478
 14 H      0.6147     1.0000     0.3853     0.8890     0.8432     0.0458

  Mayer bond orders larger than 0.100000
B(  0-O ,  1-H ) :   0.8372 B(  0-O ,  2-H ) :   0.8321 B(  3-O ,  4-H ) :   0.8292 
B(  3-O ,  5-H ) :   0.8327 B(  6-O ,  7-H ) :   0.7833 B(  6-O ,  8-H ) :   0.8634 
B(  9-O , 10-H ) :   0.8016 B(  9-O , 11-H ) :   0.8358 B( 12-O , 13-H ) :   0.8571 
B( 12-O , 14-H ) :   0.7840 


                *******************************************
                * RELAXED MP2 DENSITY POPULATION ANALYSIS *
                *******************************************

------------------------------------------------------------------------------
                           ORCA POPULATION ANALYSIS
------------------------------------------------------------------------------
Input electron density              ... 12h2o.su.etal.mol0,3,5,6,10-orca.engrad-mp2.def2tzvp.frozencore.pmp2re
BaseName (.gbw .S,...)              ... 12h2o.su.etal.mol0,3,5,6,10-orca.engrad-mp2.def2tzvp.frozencore

                    ********************************
                    * MULLIKEN POPULATION ANALYSIS *
                    ********************************

-----------------------
MULLIKEN ATOMIC CHARGES
-----------------------
   0 O :   -0.690493
   1 H :    0.353447
   2 H :    0.353056
   3 O :   -0.678985
   4 H :    0.362769
   5 H :    0.356533
   6 O :   -0.715934
   7 H :    0.363945
   8 H :    0.312164
   9 O :   -0.696291
  10 H :    0.375014
  11 H :    0.346340
  12 O :   -0.731800
  13 H :    0.325361
  14 H :    0.364875
Sum of atomic charges:   -0.0000000

--------------------------------
MULLIKEN REDUCED ORBITAL CHARGES
--------------------------------
  0 O s       :     3.809673  s :     3.809673
      pz      :     1.696949  p :     4.827520
      px      :     1.344485
      py      :     1.786086
      dz2     :     0.009226  d :     0.049301
      dxz     :     0.009057
      dyz     :     0.010955
      dx2y2   :     0.007601
      dxy     :     0.012462
      f0      :     0.000452  f :     0.003999
      f+1     :     0.000670
      f-1     :     0.000544
      f+2     :     0.000438
      f-2     :     0.000694
      f+3     :     0.000466
      f-3     :     0.000735
  1 H s       :     0.598838  s :     0.598838
      pz      :     0.017598  p :     0.047715
      px      :     0.013819
      py      :     0.016298
  2 H s       :     0.602965  s :     0.602965
      pz      :     0.012513  p :     0.043979
      px      :     0.016719
      py      :     0.014747
  3 O s       :     3.797232  s :     3.797232
      pz      :     1.518148  p :     4.826999
      px      :     1.543719
      py      :     1.765133
      dz2     :     0.016266  d :     0.050793
      dxz     :     0.006541
      dyz     :     0.008028
      dx2y2   :     0.008076
      dxy     :     0.011883
      f0      :     0.000610  f :     0.003960
      f+1     :     0.000737
      f-1     :     0.000530
      f+2     :     0.000414
      f-2     :     0.000422
      f+3     :     0.000430
      f-3     :     0.000818
  4 H s       :     0.591604  s :     0.591604
      pz      :     0.018822  p :     0.045627
      px      :     0.012709
      py      :     0.014096
  5 H s       :     0.597899  s :     0.597899
      pz      :     0.011649  p :     0.045568
      px      :     0.018024
      py      :     0.015895
  6 O s       :     3.807956  s :     3.807956
      pz      :     1.495605  p :     4.854238
      px      :     1.859999
      py      :     1.498635
      dz2     :     0.015409  d :     0.049802
      dxz     :     0.008138
      dyz     :     0.008081
      dx2y2   :     0.008262
      dxy     :     0.009911
      f0      :     0.000551  f :     0.003938
      f+1     :     0.000488
      f-1     :     0.000790
      f+2     :     0.000438
      f-2     :     0.000405
      f+3     :     0.000785
      f-3     :     0.000481
  7 H s       :     0.580201  s :     0.580201
      pz      :     0.010910  p :     0.055854
      px      :     0.016570
      py      :     0.028374
  8 H s       :     0.639933  s :     0.639933
      pz      :     0.017592  p :     0.047903
      px      :     0.016660
      py      :     0.013652
  9 O s       :     3.800228  s :     3.800228
      pz      :     1.582905  p :     4.841661
      px      :     1.443976
      py      :     1.814780
      dz2     :     0.015700  d :     0.050507
      dxz     :     0.008028
      dyz     :     0.007974
      dx2y2   :     0.008823
      dxy     :     0.009982
      f0      :     0.000523  f :     0.003895
      f+1     :     0.000795
      f-1     :     0.000484
      f+2     :     0.000433
      f-2     :     0.000404
      f+3     :     0.000473
      f-3     :     0.000783
 10 H s       :     0.574583  s :     0.574583
      pz      :     0.024333  p :     0.050403
      px      :     0.011741
      py      :     0.014329
 11 H s       :     0.608472  s :     0.608472
      pz      :     0.011752  p :     0.045188
      px      :     0.017681
      py      :     0.015754
 12 O s       :     3.805400  s :     3.805400
      pz      :     1.700700  p :     4.873482
      px      :     1.784376
      py      :     1.388406
      dz2     :     0.009265  d :     0.048947
      dxz     :     0.010632
      dyz     :     0.009424
      dx2y2   :     0.007711
      dxy     :     0.011916
      f0      :     0.000453  f :     0.003972
      f+1     :     0.000539
      f-1     :     0.000674
      f+2     :     0.000438
      f-2     :     0.000705
      f+3     :     0.000702
      f-3     :     0.000460
 13 H s       :     0.626000  s :     0.626000
      pz      :     0.017640  p :     0.048639
      px      :     0.016586
      py      :     0.014413
 14 H s       :     0.576126  s :     0.576126
      pz      :     0.012559  p :     0.058999
      px      :     0.015472
      py      :     0.030969


                     *******************************
                     * LOEWDIN POPULATION ANALYSIS *
                     *******************************

----------------------
LOEWDIN ATOMIC CHARGES
----------------------
   0 O :   -0.307772
   1 H :    0.164185
   2 H :    0.185272
   3 O :   -0.270264
   4 H :    0.176128
   5 H :    0.174670
   6 O :   -0.363012
   7 H :    0.143914
   8 H :    0.149812
   9 O :   -0.296717
  10 H :    0.152034
  11 H :    0.173210
  12 O :   -0.372340
  13 H :    0.149103
  14 H :    0.141776

-------------------------------
LOEWDIN REDUCED ORBITAL CHARGES
-------------------------------
  0 O s       :     3.466880  s :     3.466880
      pz      :     1.665174  p :     4.777062
      px      :     1.350535
      py      :     1.761353
      dz2     :     0.010870  d :     0.058955
      dxz     :     0.011920
      dyz     :     0.011451
      dx2y2   :     0.009123
      dxy     :     0.015592
      f0      :     0.000473  f :     0.004875
      f+1     :     0.000865
      f-1     :     0.000658
      f+2     :     0.000410
      f-2     :     0.001013
      f+3     :     0.000477
      f-3     :     0.000980
  1 H s       :     0.669644  s :     0.669644
      pz      :     0.067554  p :     0.166171
      px      :     0.044151
      py      :     0.054467
  2 H s       :     0.663626  s :     0.663626
      pz      :     0.034951  p :     0.151102
      px      :     0.070752
      py      :     0.045399
  3 O s       :     3.456275  s :     3.456275
      pz      :     1.514195  p :     4.748540
      px      :     1.525487
      py      :     1.708857
      dz2     :     0.021653  d :     0.060450
      dxz     :     0.007132
      dyz     :     0.007496
      dx2y2   :     0.009346
      dxy     :     0.014821
      f0      :     0.000870  f :     0.004999
      f+1     :     0.001018
      f-1     :     0.000745
      f+2     :     0.000391
      f-2     :     0.000421
      f+3     :     0.000409
      f-3     :     0.001144
  4 H s       :     0.662297  s :     0.662297
      pz      :     0.082240  p :     0.161575
      px      :     0.036318
      py      :     0.043017
  5 H s       :     0.664791  s :     0.664791
      pz      :     0.030830  p :     0.160538
      px      :     0.073204
      py      :     0.056505
  6 O s       :     3.470931  s :     3.470931
      pz      :     1.522127  p :     4.829102
      px      :     1.825561
      py      :     1.481413
      dz2     :     0.020406  d :     0.058128
      dxz     :     0.007251
      dyz     :     0.009668
      dx2y2   :     0.009374
      dxy     :     0.011429
      f0      :     0.000813  f :     0.004851
      f+1     :     0.000578
      f-1     :     0.001211
      f+2     :     0.000421
      f-2     :     0.000416
      f+3     :     0.000967
      f-3     :     0.000445
  7 H s       :     0.667389  s :     0.667389
      pz      :     0.029910  p :     0.188697
      px      :     0.053921
      py      :     0.104866
  8 H s       :     0.687477  s :     0.687477
      pz      :     0.079037  p :     0.162711
      px      :     0.045775
      py      :     0.037898
  9 O s       :     3.461399  s :     3.461399
      pz      :     1.565687  p :     4.771391
      px      :     1.445825
      py      :     1.759880
      dz2     :     0.019890  d :     0.059096
      dxz     :     0.009045
      dyz     :     0.006993
      dx2y2   :     0.011028
      dxy     :     0.012139
      f0      :     0.000742  f :     0.004831
      f+1     :     0.001161
      f-1     :     0.000601
      f+2     :     0.000413
      f-2     :     0.000415
      f+3     :     0.000457
      f-3     :     0.001042
 10 H s       :     0.672354  s :     0.672354
      pz      :     0.094803  p :     0.175612
      px      :     0.036649
      py      :     0.044161
 11 H s       :     0.669320  s :     0.669320
      pz      :     0.031924  p :     0.157470
      px      :     0.074789
      py      :     0.050757
 12 O s       :     3.465861  s :     3.465861
      pz      :     1.694289  p :     4.844566
      px      :     1.766002
      py      :     1.384275
      dz2     :     0.009790  d :     0.057094
      dxz     :     0.011402
      dyz     :     0.012330
      dx2y2   :     0.008935
      dxy     :     0.014637
      f0      :     0.000454  f :     0.004819
      f+1     :     0.000651
      f-1     :     0.000866
      f+2     :     0.000410
      f-2     :     0.001041
      f+3     :     0.000921
      f-3     :     0.000476
 13 H s       :     0.683026  s :     0.683026
      pz      :     0.066873  p :     0.167870
      px      :     0.054979
      py      :     0.046018
 14 H s       :     0.662100  s :     0.662100
      pz      :     0.035207  p :     0.196124
      px      :     0.049114
      py      :     0.111804


                      *****************************
                      * MAYER POPULATION ANALYSIS *
                      *****************************

  NA   - Mulliken gross atomic population
  ZA   - Total nuclear charge
  QA   - Mulliken gross atomic charge
  VA   - Mayer's total valence
  BVA  - Mayer's bonded valence
  FA   - Mayer's free valence

  ATOM       NA         ZA         QA         VA         BVA        FA
  0 O      8.6905     8.0000    -0.6905     2.1021     1.7188     0.3833
  1 H      0.6466     1.0000     0.3534     0.8944     0.8492     0.0453
  2 H      0.6469     1.0000     0.3531     0.8948     0.8466     0.0482
  3 O      8.6790     8.0000    -0.6790     2.1111     1.7313     0.3798
  4 H      0.6372     1.0000     0.3628     0.8900     0.8447     0.0453
  5 H      0.6435     1.0000     0.3565     0.8962     0.8502     0.0460
  6 O      8.7159     8.0000    -0.7159     2.0342     1.6484     0.3858
  7 H      0.6361     1.0000     0.3639     0.9230     0.8784     0.0446
  8 H      0.6878     1.0000     0.3122     0.9221     0.8717     0.0504
  9 O      8.6963     8.0000    -0.6963     2.1047     1.7206     0.3841
 10 H      0.6250     1.0000     0.3750     0.8994     0.8559     0.0435
 11 H      0.6537     1.0000     0.3463     0.9040     0.8559     0.0481
 12 O      8.7318     8.0000    -0.7318     2.0206     1.6341     0.3865
 13 H      0.6746     1.0000     0.3254     0.9140     0.8661     0.0479
 14 H      0.6351     1.0000     0.3649     0.9138     0.8685     0.0453

  Mayer bond orders larger than 0.100000
B(  0-O ,  1-H ) :   0.8411 B(  0-O ,  2-H ) :   0.8355 B(  3-O ,  4-H ) :   0.8329 
B(  3-O ,  5-H ) :   0.8364 B(  6-O ,  7-H ) :   0.7853 B(  6-O ,  8-H ) :   0.8660 
B(  9-O , 10-H ) :   0.8059 B(  9-O , 11-H ) :   0.8382 B( 12-O , 13-H ) :   0.8602 
B( 12-O , 14-H ) :   0.7860 


----------------------------------
MP2 DERIVATIVE INTEGRAL GENERATION
----------------------------------


Input Wavefunction Amplitudes       ... 12h2o.su.etal.mol0,3,5,6,10-orca.engrad-mp2.def2tzvp.frozencore.mp2tsaa.tmp
Input Correlated Electron Density   ... 12h2o.su.etal.mol0,3,5,6,10-orca.engrad-mp2.def2tzvp.frozencore.pmp2re
Input Energy Weighted Density       ... 12h2o.su.etal.mol0,3,5,6,10-orca.engrad-mp2.def2tzvp.frozencore.wmp2.tmp
Input SCF Electron Density          ... 12h2o.su.etal.mol0,3,5,6,10-orca.engrad-mp2.def2tzvp.frozencore.scfp

One-Electron Terms    ...
                        ... One-Electron Terms done
Prescreening matrices              ... done

Batch handling in the gradient evaluation:
Memory available                      ... 8000.0 MB
Memory per occupied orbital in Q2     ...    7.1 MB
Memory per occupied orbital in Q3     ...    0.1 MB
Total memory requirement per |i>      ...    7.1 MB
Max. Number of orbitals possible      ...   1121
Number of orbitals treated per batch  ...     20
Number of batches to be done          ...      1
Batch   0: i=    5 ...    24

---------------------------------------
MP2 TOTAL ENERGY:     -381.589647186 Eh
---------------------------------------

The final MP2 gradient
  0:   0.02559733  -0.01074205   0.00148988
  1:   0.00137163  -0.00175585  -0.00249315
  2:  -0.02777731   0.01091681  -0.00122133
  3:  -0.00481048   0.01233367  -0.00765043
  4:  -0.00157247   0.00031420   0.00580878
  5:   0.00795628  -0.00430916  -0.00027242
  6:  -0.00009870   0.00018972   0.01260991
  7:   0.00182803   0.00571308   0.00031274
  8:  -0.00060869  -0.00288110  -0.01087693
  9:   0.01525853  -0.00821032  -0.00252777
 10:   0.00211764   0.00171509   0.00005733
 11:  -0.01708961   0.00481847   0.00504957
 12:   0.00439091   0.01051434  -0.00155845
 13:   0.00004764   0.00178492  -0.00044093
 14:  -0.00661072  -0.02040181   0.00171322

-----------------------------------
NORM OF THE MP2 GRADIENT:  0.060031
-----------------------------------

-------------------------   --------------------
FINAL SINGLE POINT ENERGY      -381.589647185692
-------------------------   --------------------


                            ***************************************
                            *     ORCA property calculations      *
                            ***************************************

                                    ---------------------
                                    Active property flags
                                    ---------------------
   (+) Dipole Moment


------------------------------------------------------------------------------
                       ORCA ELECTRIC PROPERTIES CALCULATION
------------------------------------------------------------------------------

Dipole Moment Calculation                       ... on
Quadrupole Moment Calculation                   ... off
Polarizability Calculation                      ... off
GBWName                                         ... 12h2o.su.etal.mol0,3,5,6,10-orca.engrad-mp2.def2tzvp.frozencore.gbw
Electron density file                           ... 12h2o.su.etal.mol0,3,5,6,10-orca.engrad-mp2.def2tzvp.frozencore.scfp
The origin for moment calculation is the CENTER OF MASS  = ( 0.644933,  0.442933 -1.077204)

-------------
DIPOLE MOMENT
-------------
                                X             Y             Z
Electronic contribution:      0.12533      -0.11623       0.14401
Nuclear contribution   :     -0.53361       0.71285       0.68611
                        -----------------------------------------
Total Dipole Moment    :     -0.40828       0.59662       0.83012
                        -----------------------------------------
Magnitude (a.u.)       :      1.10080
Magnitude (Debye)      :      2.79800



--------------------
Rotational spectrum 
--------------------
 
Rotational constants in cm-1:     0.095211     0.028442     0.023581 
Rotational constants in MHz :  2854.360055   852.679708   706.943428 

 Dipole components along the rotational axes: 
x,y,z [a.u.] :     0.499285     0.524008     0.829385 
x,y,z [Debye]:     1.269082     1.331924     2.108129 

 

                         *** MP2 UNRELAXED DENSITY ***

------------------------------------------------------------------------------
                       ORCA ELECTRIC PROPERTIES CALCULATION
------------------------------------------------------------------------------

Dipole Moment Calculation                       ... on
Quadrupole Moment Calculation                   ... off
Polarizability Calculation                      ... off
GBWName                                         ... 12h2o.su.etal.mol0,3,5,6,10-orca.engrad-mp2.def2tzvp.frozencore.gbw
Electron density file                           ... 12h2o.su.etal.mol0,3,5,6,10-orca.engrad-mp2.def2tzvp.frozencore.pmp2ur
The origin for moment calculation is the CENTER OF MASS  = ( 0.644933,  0.442933 -1.077204)

-------------
DIPOLE MOMENT
-------------
                                X             Y             Z
Electronic contribution:      0.13222      -0.12303       0.13939
Nuclear contribution   :     -0.53361       0.71285       0.68611
                        -----------------------------------------
Total Dipole Moment    :     -0.40139       0.58982       0.82550
                        -----------------------------------------
Magnitude (a.u.)       :      1.09108
Magnitude (Debye)      :      2.77330



--------------------
Rotational spectrum 
--------------------
 
Rotational constants in cm-1:     0.095211     0.028442     0.023581 
Rotational constants in MHz :  2854.360055   852.679708   706.943428 

 Dipole components along the rotational axes: 
x,y,z [a.u.] :     0.498862     0.517746     0.820687 
x,y,z [Debye]:     1.268007     1.316006     2.086021 

 

                           *** MP2 RELAXED DENSITY ***

------------------------------------------------------------------------------
                       ORCA ELECTRIC PROPERTIES CALCULATION
------------------------------------------------------------------------------

Dipole Moment Calculation                       ... on
Quadrupole Moment Calculation                   ... off
Polarizability Calculation                      ... off
GBWName                                         ... 12h2o.su.etal.mol0,3,5,6,10-orca.engrad-mp2.def2tzvp.frozencore.gbw
Electron density file                           ... 12h2o.su.etal.mol0,3,5,6,10-orca.engrad-mp2.def2tzvp.frozencore.pmp2re
The origin for moment calculation is the CENTER OF MASS  = ( 0.644933,  0.442933 -1.077204)

-------------
DIPOLE MOMENT
-------------
                                X             Y             Z
Electronic contribution:      0.13825      -0.12839       0.13800
Nuclear contribution   :     -0.53361       0.71285       0.68611
                        -----------------------------------------
Total Dipole Moment    :     -0.39536       0.58446       0.82411
                        -----------------------------------------
Magnitude (a.u.)       :      1.08492
Magnitude (Debye)      :      2.75765



--------------------
Rotational spectrum 
--------------------
 
Rotational constants in cm-1:     0.095211     0.028442     0.023581 
Rotational constants in MHz :  2854.360055   852.679708   706.943428 

 Dipole components along the rotational axes: 
x,y,z [a.u.] :     0.500739     0.512664     0.814550 
x,y,z [Debye]:     1.272778     1.303087     2.070421 

 

Timings for individual modules:

Sum of individual times         ...       26.678 sec (=   0.445 min)
GTO integral calculation        ...        0.822 sec (=   0.014 min)   3.1 %
SCF iterations                  ...        6.803 sec (=   0.113 min)  25.5 %
MP2 module                      ...       19.053 sec (=   0.318 min)  71.4 %
                             ****ORCA TERMINATED NORMALLY****
TOTAL RUN TIME: 0 days 0 hours 0 minutes 27 seconds 527 msec
