15
Energy:   -142.73188135
O    0.60395672  -1.17619862   1.84551778
H    0.45026762  -1.84464587   2.51319269
H   -0.17678011  -1.20541464   1.29250035
O   -0.21672925  -1.02409651  -2.30873862
H   -0.16814584  -0.87962138  -3.25372456
H   -0.10936922  -0.15292730  -1.92694040
O   -0.42823092   1.59493154  -0.77955475
H   -0.93611376   2.35483335  -0.49523781
H    0.30641268   1.55454807  -0.16726412
O   -1.57325786  -0.91162378   0.11110505
H   -1.40586120   0.01356373  -0.06844516
H   -1.35482849  -1.35818213  -0.70688401
O    1.48040648   1.30937766   1.11873268
H    2.39141091   1.39244665   1.40051682
H    1.20995518   0.44637683   1.43228891
