15
Energy:   -142.38060497
O    2.20635676  -0.59201945  -0.03092478
H    2.71248619  -1.37695312   0.17870343
H    1.92965509  -0.25067442   0.81945843
O   -1.20812235   0.92282307   0.69000974
H   -1.83036910   0.23947317   0.44086373
H   -0.65749800   1.03985584  -0.08416595
O    0.23739713   0.40457543  -1.62979126
H    0.97223323  -0.00502033  -1.17319617
H    0.62219559   0.76535924  -2.42853843
O    1.02009954   0.49253790   2.19873624
H    0.80935614   0.62823161   3.12253616
H    0.19440711   0.64534408   1.73926466
O   -2.38977238  -1.11456445  -0.96617115
H   -3.01416774  -0.86958443  -1.64906724
H   -1.53106243  -0.99128155  -1.37070840
