15
Energy:   -142.57241139
O    0.47631395   2.11409031   0.72175718
H    0.06257462   1.91142444  -0.11727688
H    1.15984242   1.45104143   0.81864302
O   -0.58946631  -0.79256116   1.75160718
H    0.30162000  -0.75209035   1.40439091
H   -0.77429666   0.10030088   2.04292651
O   -1.78879730  -1.07290147  -0.64990267
H   -1.38311528  -1.07814117   0.21706128
H   -2.72670608  -1.15341218  -0.47647548
O    1.76129798  -0.44066353   0.33939260
H    1.37808842  -0.20154047  -0.50452828
H    2.46586889  -1.04996311   0.11901633
O    0.14632785   0.46086117  -1.74461053
H    0.09184696   0.43953917  -2.70002094
H   -0.58449898  -0.08277908  -1.45036698
