
                                 *****************
                                 * O   R   C   A *
                                 *****************

           --- An Ab Initio, DFT and Semiempirical electronic structure package ---

                  #######################################################
                  #                        -***-                        #
                  #          Department of theory and spectroscopy      #
                  #               Directorship: Frank Neese             #
                  #        Max Planck Institute fuer Kohlenforschung    #
                  #                Kaiser Wilhelm Platz 1               #
                  #                 D-45470 Muelheim/Ruhr               #
                  #                      Germany                        #
                  #                                                     #
                  #                  All rights reserved                #
                  #                        -***-                        #
                  #######################################################


                         Program Version 4.2.0 -  RELEASE  -


 With contributions from (in alphabetic order):
   Daniel Aravena         : Magnetic Suceptibility
   Michael Atanasov       : Ab Initio Ligand Field Theory (pilot matlab implementation)
   Alexander A. Auer      : GIAO ZORA, VPT2
   Ute Becker             : Parallelization
   Giovanni Bistoni       : ED, misc. LED, open-shell LED, HFLED
   Martin Brehm           : Molecular dynamics
   Dmytro Bykov           : SCF Hessian
   Vijay G. Chilkuri      : MRCI spin determinant printing, contributions to CSF-ICE
   Dipayan Datta          : RHF DLPNO-CCSD density
   Achintya Kumar Dutta   : EOM-CC, STEOM-CC
   Dmitry Ganyushin       : Spin-Orbit,Spin-Spin,Magnetic field MRCI
   Miquel Garcia          : C-PCM Hessian, Gaussian charge scheme
   Yang Guo               : DLPNO-NEVPT2, CIM, IAO-localization
   Andreas Hansen         : Spin unrestricted coupled pair/coupled cluster methods
   Benjamin Helmich-Paris : CASSCF linear response (MC-RPA)
   Lee Huntington         : MR-EOM, pCC
   Robert Izsak           : Overlap fitted RIJCOSX, COSX-SCS-MP3, EOM
   Christian Kollmar      : KDIIS, OOCD, Brueckner-CCSD(T), CCSD density
   Simone Kossmann        : Meta GGA functionals, TD-DFT gradient, OOMP2, MP2 Hessian
   Martin Krupicka        : AUTO-CI
   Lucas Lang             : DCDCAS
   Dagmar Lenk            : GEPOL surface, SMD
   Dimitrios Liakos       : Extrapolation schemes; Compound Job, initial MDCI parallelization
   Dimitrios Manganas     : Further ROCIS development; embedding schemes
   Dimitrios Pantazis     : SARC Basis sets
   Taras Petrenko         : DFT Hessian,TD-DFT gradient, ASA, ECA, R-Raman, ABS, FL, XAS/XES, NRVS
   Peter Pinski           : DLPNO-MP2, DLPNO-MP2 Gradient
   Christoph Reimann      : Effective Core Potentials
   Marius Retegan         : Local ZFS, SOC
   Christoph Riplinger    : Optimizer, TS searches, QM/MM, DLPNO-CCSD(T), (RO)-DLPNO pert. Triples
   Tobias Risthaus        : Range-separated hybrids, TD-DFT gradient, RPA, STAB
   Michael Roemelt        : Original ROCIS implementation
   Masaaki Saitow         : Open-shell DLPNO-CCSD energy and density
   Barbara Sandhoefer     : DKH picture change effects
   Avijit Sen             : IP-ROCIS
   Kantharuban Sivalingam : CASSCF convergence, NEVPT2, FIC-MRCI
   Bernardo de Souza      : ESD, SOC TD-DFT
   Georgi Stoychev        : AutoAux, RI-MP2 NMR
   Willem Van den Heuvel  : Paramagnetic NMR
   Boris Wezisla          : Elementary symmetry handling
   Frank Wennmohs         : Technical directorship


 We gratefully acknowledge several colleagues who have allowed us to
 interface, adapt or use parts of their codes:
   Stefan Grimme, W. Hujo, H. Kruse,             : VdW corrections, initial TS optimization,
                  C. Bannwarth                     DFT functionals, gCP, sTDA/sTD-DF
   Ed Valeev, F. Pavosevic, A. Kumar             : LibInt (2-el integral package), F12 methods
   Garnet Chan, S. Sharma, J. Yang, R. Olivares  : DMRG
   Ulf Ekstrom                                   : XCFun DFT Library
   Mihaly Kallay                                 : mrcc  (arbitrary order and MRCC methods)
   Andreas Klamt, Michael Diedenhofen            : otool_cosmo (COSMO solvation model)
   Jiri Pittner, Ondrej Demel                    : Mk-CCSD
   Frank Weinhold                                : gennbo (NPA and NBO analysis)
   Christopher J. Cramer and Donald G. Truhlar   : smd solvation model
   Lars Goerigk                                  : TD-DFT with DH, B97 family of functionals
   V. Asgeirsson, H. Jonsson                     : NEB implementation
   FAccTs GmbH                                   : IRC, NEB, NEB-TS, Multilevel, MM, QM/MM, CI optimization
   S Lehtola, MJT Oliveira, MAL Marques          : LibXC Library


 Your calculation uses the libint2 library for the computation of 2-el integrals
 For citations please refer to: http://libint.valeyev.net

 Your ORCA version has been built with support for libXC version: 4.2.3
 For citations please refer to: https://tddft.org/programs/libxc/

 This ORCA versions uses:
   CBLAS   interface :  Fast vector & matrix operations
   LAPACKE interface :  Fast linear algebra routines
   SCALAPACK package :  Parallel linear algebra routines


----- Orbital basis set information -----
Your calculation utilizes the basis: def2-TZVP
   F. Weigend and R. Ahlrichs, Phys. Chem. Chem. Phys. 7, 3297 (2005).

================================================================================
                                        WARNINGS
                       Please study these warnings very carefully!
================================================================================


WARNING: The frozen-core approximation for MP2-gradient calculations is turned on by default.

INFO   : the flag for use of LIBINT has been found!

================================================================================
                                       INPUT FILE
================================================================================
NAME = 12h2o.su.etal.mol4,6,7,8,9,10-orca.engrad-mp2.def2tzvp.frozencore.inp
|  1> # 12h2o.su.etal.mol4,6,7,8,9,10
|  2> ! MP2 def2-TZVP EnGrad TightSCF
|  3> 
|  4> %pal
|  5>     nprocs 6
|  6> end
|  7> 
|  8> %maxcore 8000
|  9> 
| 10> %scf
| 11>     ConvForced true
| 12> end
| 13> 
| 14> *xyz 0 1
| 15> O  -0.885520000   1.737840000   0.052730000
| 16> H  -1.032320000   2.090180000  -0.841890000
| 17> H  -1.284090000   0.839590000   0.017130000
| 18> O   1.737840000   0.885520000  -0.052730000
| 19> H   2.090180000   1.032320000   0.841890000
| 20> H   0.839590000   1.284090000  -0.017130000
| 21> O  -1.737840000  -0.885520000  -0.052730000
| 22> H  -2.090180000  -1.032320000   0.841890000
| 23> H  -0.839590000  -1.284090000  -0.017130000
| 24> O   1.752130000   0.741530000  -2.896280000
| 25> H   2.036450000   0.920500000  -1.984040000
| 26> H   0.921210000   1.242140000  -2.984230000
| 27> O   0.741530000  -1.752130000   2.896280000
| 28> H   0.920500000  -2.036450000   1.984040000
| 29> H   1.242140000  -0.921210000   2.984230000
| 30> O  -0.923410000   1.794470000  -2.768350000
| 31> H  -1.359750000   2.338250000  -3.430940000
| 32> H  -1.303000000   0.879480000  -2.865760000
| 33> *
| 34> 
| 35>                          ****END OF INPUT****
================================================================================

                     *******************************
                     * Energy+Gradient Calculation *
                     *******************************

---------------------------------
CARTESIAN COORDINATES (ANGSTROEM)
---------------------------------
  O     -0.885520    1.737840    0.052730
  H     -1.032320    2.090180   -0.841890
  H     -1.284090    0.839590    0.017130
  O      1.737840    0.885520   -0.052730
  H      2.090180    1.032320    0.841890
  H      0.839590    1.284090   -0.017130
  O     -1.737840   -0.885520   -0.052730
  H     -2.090180   -1.032320    0.841890
  H     -0.839590   -1.284090   -0.017130
  O      1.752130    0.741530   -2.896280
  H      2.036450    0.920500   -1.984040
  H      0.921210    1.242140   -2.984230
  O      0.741530   -1.752130    2.896280
  H      0.920500   -2.036450    1.984040
  H      1.242140   -0.921210    2.984230
  O     -0.923410    1.794470   -2.768350
  H     -1.359750    2.338250   -3.430940
  H     -1.303000    0.879480   -2.865760

----------------------------
CARTESIAN COORDINATES (A.U.)
----------------------------
  NO LB      ZA    FRAG     MASS         X           Y           Z
   0 O     8.0000    0    15.999   -1.673390    3.284042    0.099645
   1 H     1.0000    0     1.008   -1.950802    3.949868   -1.590942
   2 H     1.0000    0     1.008   -2.426578    1.586595    0.032371
   3 O     8.0000    0    15.999    3.284042    1.673390   -0.099645
   4 H     1.0000    0     1.008    3.949868    1.950802    1.590942
   5 H     1.0000    0     1.008    1.586595    2.426578   -0.032371
   6 O     8.0000    0    15.999   -3.284042   -1.673390   -0.099645
   7 H     1.0000    0     1.008   -3.949868   -1.950802    1.590942
   8 H     1.0000    0     1.008   -1.586595   -2.426578   -0.032371
   9 O     8.0000    0    15.999    3.311046    1.401289   -5.473176
  10 H     1.0000    0     1.008    3.848333    1.739493   -3.749292
  11 H     1.0000    0     1.008    1.740835    2.347304   -5.639377
  12 O     8.0000    0    15.999    1.401289   -3.311046    5.473176
  13 H     1.0000    0     1.008    1.739493   -3.848333    3.749292
  14 H     1.0000    0     1.008    2.347304   -1.740835    5.639377
  15 O     8.0000    0    15.999   -1.744992    3.391057   -5.231423
  16 H     1.0000    0     1.008   -2.569555    4.418652   -6.483537
  17 H     1.0000    0     1.008   -2.462313    1.661976   -5.415502

--------------------------------
INTERNAL COORDINATES (ANGSTROEM)
--------------------------------
 O      0   0   0     0.000000000000     0.00000000     0.00000000
 H      1   0   0     0.972645187106     0.00000000     0.00000000
 H      1   2   0     0.983350632989   103.67575169     0.00000000
 O      1   2   3     2.760360281485   102.71782308    99.33971870
 H      4   1   2     0.972645187106   105.22009255   146.86623798
 H      4   1   2     0.983350632989     5.92595386    71.22039070
 O      3   1   2     1.785153773264   170.81379649   105.82965911
 H      7   3   1     0.972645187106   101.65007623   109.44492584
 H      7   3   1     0.983350632989    99.09581498     3.33484705
 O      4   1   2     2.847229166523    93.35605850   339.54666523
 H     10   4   1     0.972136791249    19.08819947   137.47046308
 H     10   4   1     0.974050112161    93.43428486    13.37418319
 O      9   7   3     3.347679752321   121.30565948    83.11460775
 H     13   9   7     0.972136791249    46.46358234   170.36223581
 H     13   9   7     0.974050112161   101.65702229   268.49406050
 O     12  10   4     1.937600461318   161.54375213   306.34627465
 H     16  12  10     0.961828878803   121.08403650   202.75419110
 H     16  12  10     0.995381322057    95.17003195   315.21089530

---------------------------
INTERNAL COORDINATES (A.U.)
---------------------------
 O      0   0   0     0.000000000000     0.00000000     0.00000000
 H      1   0   0     1.838033029106     0.00000000     0.00000000
 H      1   2   0     1.858263389967   103.67575169     0.00000000
 O      1   2   3     5.216324962960   102.71782308    99.33971870
 H      4   1   2     1.838033029106   105.22009255   146.86623798
 H      4   1   2     1.858263389967     5.92595386    71.22039070
 O      3   1   2     3.373451738406   170.81379649   105.82965911
 H      7   3   1     1.838033029106   101.65007623   109.44492584
 H      7   3   1     1.858263389967    99.09581498     3.33484705
 O      4   1   2     5.380483365242    93.35605850   339.54666523
 H     10   4   1     1.837072300170    19.08819947   137.47046308
 H     10   4   1     1.840687952699    93.43428486    13.37418319
 O      9   7   3     6.326197915960   121.30565948    83.11460775
 H     13   9   7     1.837072300170    46.46358234   170.36223581
 H     13   9   7     1.840687952699   101.65702229   268.49406050
 O     12  10   4     3.661534228851   161.54375213   306.34627465
 H     16  12  10     1.817593168635   121.08403650   202.75419110
 H     16  12  10     1.880998097508    95.17003195   315.21089530

---------------------
BASIS SET INFORMATION
---------------------
There are 2 groups of distinct atoms

 Group   1 Type O   : 11s6p2d1f contracted to 5s3p2d1f pattern {62111/411/11/1}
 Group   2 Type H   : 5s1p contracted to 3s1p pattern {311/1}

Atom   0O    basis set group =>   1
Atom   1H    basis set group =>   2
Atom   2H    basis set group =>   2
Atom   3O    basis set group =>   1
Atom   4H    basis set group =>   2
Atom   5H    basis set group =>   2
Atom   6O    basis set group =>   1
Atom   7H    basis set group =>   2
Atom   8H    basis set group =>   2
Atom   9O    basis set group =>   1
Atom  10H    basis set group =>   2
Atom  11H    basis set group =>   2
Atom  12O    basis set group =>   1
Atom  13H    basis set group =>   2
Atom  14H    basis set group =>   2
Atom  15O    basis set group =>   1
Atom  16H    basis set group =>   2
Atom  17H    basis set group =>   2


           ************************************************************
           *        Program running with 6 parallel MPI-processes     *
           *              working on a common directory               *
           ************************************************************
------------------------------------------------------------------------------
                           ORCA GTO INTEGRAL CALCULATION
------------------------------------------------------------------------------

                         BASIS SET STATISTICS AND STARTUP INFO

 # of primitive gaussian shells          ...  192
 # of primitive gaussian functions       ...  372
 # of contracted shells                  ...  114
 # of contracted basis functions         ...  258
 Highest angular momentum                ...    3
 Maximum contraction depth               ...    6
 Integral package used                   ... LIBINT
 Integral threshhold            Thresh   ...  2.500e-11
 Primitive cut-off              TCut     ...  2.500e-12


------------------------------ INTEGRAL EVALUATION ----------------------------


 * One electron integrals 
 Pre-screening matrix                    ... done
 Shell pair data                         ... done (   0.001 sec)



           ************************************************************
           *        Program running with 6 parallel MPI-processes     *
           *              working on a common directory               *
           ************************************************************
-------------------------------------------------------------------------------
                                 ORCA SCF
-------------------------------------------------------------------------------

------------
SCF SETTINGS
------------
Hamiltonian:
 Ab initio Hamiltonian  Method          .... Hartree-Fock(GTOs)


General Settings:
 Integral files         IntName         .... 12h2o.su.etal.mol4,6,7,8,9,10-orca.engrad-mp2.def2tzvp.frozencore
 Hartree-Fock type      HFTyp           .... RHF
 Total Charge           Charge          ....    0
 Multiplicity           Mult            ....    1
 Number of Electrons    NEL             ....   60
 Basis Dimension        Dim             ....  258
 Nuclear Repulsion      ENuc            ....    268.4723376975 Eh

Convergence Acceleration:
 DIIS                   CNVDIIS         .... on
   Start iteration      DIISMaxIt       ....    12
   Startup error        DIISStart       ....  0.200000
   # of expansion vecs  DIISMaxEq       ....     5
   Bias factor          DIISBfac        ....   1.050
   Max. coefficient     DIISMaxC        ....  10.000
 Newton-Raphson         CNVNR           .... off
 SOSCF                  CNVSOSCF        .... on
   Start iteration      SOSCFMaxIt      ....   150
   Startup grad/error   SOSCFStart      ....  0.003300
 Level Shifting         CNVShift        .... on
   Level shift para.    LevelShift      ....    0.2500
   Turn off err/grad.   ShiftErr        ....    0.0010
 Zerner damping         CNVZerner       .... off
 Static damping         CNVDamp         .... on
   Fraction old density DampFac         ....    0.7000
   Max. Damping (<1)    DampMax         ....    0.9800
   Min. Damping (>=0)   DampMin         ....    0.0000
   Turn off err/grad.   DampErr         ....    0.1000
 Fernandez-Rico         CNVRico         .... off

SCF Procedure:
 Maximum # iterations   MaxIter         ....   125
 SCF integral mode      SCFMode         .... Direct
   Integral package                     .... LIBINT
 Reset frequency        DirectResetFreq ....    20
 Integral Threshold     Thresh          ....  2.500e-11 Eh
 Primitive CutOff       TCut            ....  2.500e-12 Eh

Convergence Tolerance:
 Convergence Check Mode ConvCheckMode   .... Total+1el-Energy
 Convergence forced     ConvForced      .... 1
 Energy Change          TolE            ....  1.000e-08 Eh
 1-El. energy change                    ....  1.000e-05 Eh
 Orbital Gradient       TolG            ....  1.000e-05
 Orbital Rotation angle TolX            ....  1.000e-05
 DIIS Error             TolErr          ....  5.000e-07


Diagonalization of the overlap matrix:
Smallest eigenvalue                        ... 3.921e-03
Time for diagonalization                   ...    0.011 sec
Threshold for overlap eigenvalues          ... 1.000e-08
Number of eigenvalues below threshold      ... 0
Time for construction of square roots      ...    0.005 sec
Total time needed                          ...    0.016 sec

-------------------
DFT GRID GENERATION
-------------------

General Integration Accuracy     IntAcc      ...  4.340
Radial Grid Type                 RadialGrid  ... Gauss-Chebyshev
Angular Grid (max. acc.)         AngularGrid ... Lebedev-110
Angular grid pruning method      GridPruning ... 3 (G Style)
Weight generation scheme         WeightScheme... Becke
Basis function cutoff            BFCut       ...    1.0000e-11
Integration weight cutoff        WCut        ...    1.0000e-14
Grids for H and He will be reduced by one unit

# of grid points (after initial pruning)     ...  19824 (   0.0 sec)
# of grid points (after weights+screening)   ...  18714 (   0.0 sec)
nearest neighbour list constructed           ...    0.0 sec
Grid point re-assignment to atoms done       ...    0.0 sec
Grid point division into batches done        ...    0.0 sec
Reduced shell lists constructed in    0.0 sec

Total number of grid points                  ...    18714
Total number of batches                      ...      301
Average number of points per batch           ...       62
Average number of grid points per atom       ...     1040
Average number of shells per batch           ...    69.63 (61.08%)
Average number of basis functions per batch  ...   147.60 (57.21%)
Average number of large shells per batch     ...    51.73 (74.29%)
Average number of large basis fcns per batch ...   105.50 (71.48%)
Maximum spatial batch extension              ...  15.94, 14.06, 10.47 au
Average spatial batch extension              ...   0.55,  0.49,  0.44 au

Time for grid setup =    0.056 sec

------------------------------
INITIAL GUESS: MODEL POTENTIAL
------------------------------
Loading Hartree-Fock densities                     ... done
Calculating cut-offs                               ... done
Setting up the integral package                    ... done
Initializing the effective Hamiltonian             ... done
Starting the Coulomb interaction                   ... done (   0.0 sec)
Reading the grid                                   ... done
Mapping shells                                     ... done
Starting the XC term evaluation                    ... done (   0.0 sec)
Transforming the Hamiltonian                       ... done (   0.0 sec)
Diagonalizing the Hamiltonian                      ... done (   0.0 sec)
Back transforming the eigenvectors                 ... done (   0.0 sec)
Now organizing SCF variables                       ... done
                      ------------------
                      INITIAL GUESS DONE (   0.2 sec)
                      ------------------
--------------
SCF ITERATIONS
--------------
ITER       Energy         Delta-E        Max-DP      RMS-DP      [F,P]     Damp
               ***  Starting incremental Fock matrix formation  ***
  0   -455.8322766493   0.000000000000 0.04384189  0.00097134  0.3403200 0.7000
  1   -456.0436493989  -0.211372749561 0.02903817  0.00067243  0.2167365 0.7000
                               ***Turning on DIIS***
  2   -456.1553619980  -0.111712599097 0.01611835  0.00037477  0.1638041 0.7000
  3   -457.1504962461  -0.995134248091 0.00763016  0.00017096  0.1218557 0.7000
  4   -456.9475988014   0.202897444651 0.01734132  0.00039648  0.0861778 0.0000
  5   -456.4118535852   0.535745216277 0.00224072  0.00006444  0.0053978 0.0000
                      *** Initiating the SOSCF procedure ***
                           *** Shutting down DIIS ***
                      *** Re-Reading the Fockian *** 
                      *** Removing any level shift *** 
ITER      Energy       Delta-E        Grad      Rot      Max-DP    RMS-DP
  6   -456.37999535   0.0318582316  0.000966  0.000966  0.001463  0.000039
               *** Restarting incremental Fock matrix formation ***
  7   -456.37090917   0.0090861838  0.000291  0.000384  0.000707  0.000017
  8   -456.37091829  -0.0000091245  0.000157  0.000325  0.000560  0.000015
  9   -456.37092048  -0.0000021895  0.000084  0.000049  0.000118  0.000003
 10   -456.37092067  -0.0000001833  0.000011  0.000007  0.000019  0.000000
                  ***Gradient check signals convergence***
              ***Rediagonalizing the Fockian in SOSCF/NRSCF***

               *****************************************************
               *                     SUCCESS                       *
               *           SCF CONVERGED AFTER  11 CYCLES          *
               *****************************************************


----------------
TOTAL SCF ENERGY
----------------

Total Energy       :         -456.37092067 Eh          -12418.48409 eV

Components:
Nuclear Repulsion  :          268.47233770 Eh            7305.50371 eV
Electronic Energy  :         -724.84325837 Eh          -19723.98781 eV
One Electron Energy:        -1164.87184526 Eh          -31697.77439 eV
Two Electron Energy:          440.02858689 Eh           11973.78658 eV

Virial components:
Potential Energy   :         -912.11001986 Eh          -24819.77545 eV
Kinetic Energy     :          455.73909919 Eh           12401.29136 eV
Virial Ratio       :            2.00138637


---------------
SCF CONVERGENCE
---------------

  Last Energy change         ...   -3.7272e-09  Tolerance :   1.0000e-08
  Last MAX-Density change    ...    6.5448e-06  Tolerance :   1.0000e-07
  Last RMS-Density change    ...    1.5301e-07  Tolerance :   5.0000e-09
  Last Orbital Gradient      ...    2.4405e-06  Tolerance :   1.0000e-05
  Last Orbital Rotation      ...    3.7275e-06  Tolerance :   1.0000e-05

             **** THE GBW FILE WAS UPDATED (12h2o.su.etal.mol4,6,7,8,9,10-orca.engrad-mp2.def2tzvp.frozencore.gbw) ****
             **** DENSITY FILE WAS UPDATED (12h2o.su.etal.mol4,6,7,8,9,10-orca.engrad-mp2.def2tzvp.frozencore.scfp) ****
             **** ENERGY FILE WAS UPDATED (12h2o.su.etal.mol4,6,7,8,9,10-orca.engrad-mp2.def2tzvp.frozencore.en.tmp) ****
             **** THE GBW FILE WAS UPDATED (12h2o.su.etal.mol4,6,7,8,9,10-orca.engrad-mp2.def2tzvp.frozencore.gbw) ****
             **** DENSITY FILE WAS UPDATED (12h2o.su.etal.mol4,6,7,8,9,10-orca.engrad-mp2.def2tzvp.frozencore.scfp) ****
----------------
ORBITAL ENERGIES
----------------

  NO   OCC          E(Eh)            E(eV) 
   0   2.0000     -20.609789      -560.8209 
   1   2.0000     -20.606410      -560.7289 
   2   2.0000     -20.578592      -559.9720 
   3   2.0000     -20.550397      -559.2047 
   4   2.0000     -20.548513      -559.1535 
   5   2.0000     -20.504684      -557.9608 
   6   2.0000      -1.390513       -37.8378 
   7   2.0000      -1.386979       -37.7416 
   8   2.0000      -1.357501       -36.9395 
   9   2.0000      -1.343186       -36.5500 
  10   2.0000      -1.327421       -36.1210 
  11   2.0000      -1.289814       -35.0976 
  12   2.0000      -0.755692       -20.5634 
  13   2.0000      -0.744689       -20.2640 
  14   2.0000      -0.720451       -19.6045 
  15   2.0000      -0.713142       -19.4056 
  16   2.0000      -0.704916       -19.1817 
  17   2.0000      -0.669725       -18.2242 
  18   2.0000      -0.639044       -17.3893 
  19   2.0000      -0.621988       -16.9252 
  20   2.0000      -0.595018       -16.1913 
  21   2.0000      -0.588918       -16.0253 
  22   2.0000      -0.586147       -15.9499 
  23   2.0000      -0.549084       -14.9413 
  24   2.0000      -0.533557       -14.5188 
  25   2.0000      -0.522333       -14.2134 
  26   2.0000      -0.520986       -14.1768 
  27   2.0000      -0.500959       -13.6318 
  28   2.0000      -0.492442       -13.4000 
  29   2.0000      -0.454547       -12.3689 
  30   0.0000       0.080286         2.1847 
  31   0.0000       0.107331         2.9206 
  32   0.0000       0.130592         3.5536 
  33   0.0000       0.162394         4.4190 
  34   0.0000       0.177516         4.8304 
  35   0.0000       0.194668         5.2972 
  36   0.0000       0.234438         6.3794 
  37   0.0000       0.243878         6.6362 
  38   0.0000       0.251359         6.8398 
  39   0.0000       0.310952         8.4614 
  40   0.0000       0.327504         8.9118 
  41   0.0000       0.343573         9.3491 
  42   0.0000       0.429975        11.7002 
  43   0.0000       0.475580        12.9412 
  44   0.0000       0.502312        13.6686 
  45   0.0000       0.503320        13.6960 
  46   0.0000       0.507141        13.8000 
  47   0.0000       0.517895        14.0926 
  48   0.0000       0.535313        14.5666 
  49   0.0000       0.548939        14.9374 
  50   0.0000       0.554717        15.0946 
  51   0.0000       0.576202        15.6792 
  52   0.0000       0.586943        15.9715 
  53   0.0000       0.589794        16.0491 
  54   0.0000       0.597268        16.2525 
  55   0.0000       0.620072        16.8730 
  56   0.0000       0.628709        17.1081 
  57   0.0000       0.645193        17.5566 
  58   0.0000       0.655786        17.8448 
  59   0.0000       0.682143        18.5621 
  60   0.0000       0.694147        18.8887 
  61   0.0000       0.728989        19.8368 
  62   0.0000       0.730384        19.8748 
  63   0.0000       0.735535        20.0149 
  64   0.0000       0.741957        20.1897 
  65   0.0000       0.766568        20.8594 
  66   0.0000       0.773723        21.0541 
  67   0.0000       0.797272        21.6949 
  68   0.0000       0.801158        21.8006 
  69   0.0000       0.813155        22.1271 
  70   0.0000       0.840538        22.8722 
  71   0.0000       0.876130        23.8407 
  72   0.0000       0.922714        25.1083 
  73   0.0000       0.942978        25.6597 
  74   0.0000       0.977290        26.5934 
  75   0.0000       1.007413        27.4131 
  76   0.0000       1.048371        28.5276 
  77   0.0000       1.119873        30.4733 
  78   0.0000       1.352904        36.8144 
  79   0.0000       1.362430        37.0736 
  80   0.0000       1.391682        37.8696 
  81   0.0000       1.392890        37.9025 
  82   0.0000       1.406620        38.2761 
  83   0.0000       1.415725        38.5238 
  84   0.0000       1.430233        38.9186 
  85   0.0000       1.441442        39.2236 
  86   0.0000       1.446013        39.3480 
  87   0.0000       1.474019        40.1101 
  88   0.0000       1.516263        41.2596 
  89   0.0000       1.532761        41.7086 
  90   0.0000       1.539550        41.8933 
  91   0.0000       1.559431        42.4343 
  92   0.0000       1.577876        42.9362 
  93   0.0000       1.584109        43.1058 
  94   0.0000       1.627235        44.2793 
  95   0.0000       1.668622        45.4055 
  96   0.0000       1.773220        48.2518 
  97   0.0000       1.781128        48.4670 
  98   0.0000       1.807086        49.1733 
  99   0.0000       1.814995        49.3885 
 100   0.0000       1.856722        50.5240 
 101   0.0000       1.875438        51.0333 
 102   0.0000       1.919207        52.2243 
 103   0.0000       1.944540        52.9136 
 104   0.0000       1.959203        53.3126 
 105   0.0000       1.977471        53.8097 
 106   0.0000       1.984598        54.0037 
 107   0.0000       2.003170        54.5090 
 108   0.0000       2.011534        54.7366 
 109   0.0000       2.031324        55.2751 
 110   0.0000       2.080755        56.6202 
 111   0.0000       2.138245        58.1846 
 112   0.0000       2.145593        58.3846 
 113   0.0000       2.213213        60.2246 
 114   0.0000       2.245523        61.1038 
 115   0.0000       2.267510        61.7021 
 116   0.0000       2.289376        62.2971 
 117   0.0000       2.296540        62.4920 
 118   0.0000       2.315148        62.9984 
 119   0.0000       2.334013        63.5117 
 120   0.0000       2.341809        63.7239 
 121   0.0000       2.350546        63.9616 
 122   0.0000       2.358230        64.1707 
 123   0.0000       2.365564        64.3703 
 124   0.0000       2.380660        64.7811 
 125   0.0000       2.398896        65.2773 
 126   0.0000       2.420560        65.8668 
 127   0.0000       2.441964        66.4492 
 128   0.0000       2.483362        67.5757 
 129   0.0000       2.504865        68.1608 
 130   0.0000       2.553518        69.4847 
 131   0.0000       2.554893        69.5222 
 132   0.0000       2.578182        70.1559 
 133   0.0000       2.584970        70.3406 
 134   0.0000       2.621885        71.3451 
 135   0.0000       2.635762        71.7227 
 136   0.0000       2.652316        72.1732 
 137   0.0000       2.660674        72.4006 
 138   0.0000       2.668789        72.6214 
 139   0.0000       2.686618        73.1066 
 140   0.0000       2.732464        74.3541 
 141   0.0000       2.736157        74.4546 
 142   0.0000       2.745574        74.7109 
 143   0.0000       2.779237        75.6269 
 144   0.0000       2.886557        78.5472 
 145   0.0000       2.900365        78.9229 
 146   0.0000       2.929316        79.7107 
 147   0.0000       2.933103        79.8138 
 148   0.0000       2.947810        80.2140 
 149   0.0000       2.951907        80.3255 
 150   0.0000       2.960238        80.5522 
 151   0.0000       2.980222        81.0960 
 152   0.0000       2.997714        81.5719 
 153   0.0000       3.025130        82.3180 
 154   0.0000       3.042858        82.8004 
 155   0.0000       3.082478        83.8785 
 156   0.0000       3.085538        83.9618 
 157   0.0000       3.098504        84.3146 
 158   0.0000       3.143095        85.5280 
 159   0.0000       3.161358        86.0249 
 160   0.0000       3.189583        86.7930 
 161   0.0000       3.208097        87.2968 
 162   0.0000       3.289997        89.5254 
 163   0.0000       3.296319        89.6974 
 164   0.0000       3.336222        90.7832 
 165   0.0000       3.372925        91.7820 
 166   0.0000       3.402276        92.5806 
 167   0.0000       3.481173        94.7275 
 168   0.0000       3.975135       108.1689 
 169   0.0000       4.003841       108.9501 
 170   0.0000       4.011161       109.1493 
 171   0.0000       4.075270       110.8937 
 172   0.0000       4.097498       111.4986 
 173   0.0000       4.156889       113.1147 
 174   0.0000       4.257009       115.8391 
 175   0.0000       4.273595       116.2904 
 176   0.0000       4.293486       116.8317 
 177   0.0000       4.348293       118.3231 
 178   0.0000       4.356677       118.5512 
 179   0.0000       4.383235       119.2739 
 180   0.0000       5.500448       149.6748 
 181   0.0000       5.504588       149.7875 
 182   0.0000       5.532223       150.5394 
 183   0.0000       5.549699       151.0150 
 184   0.0000       5.555986       151.1861 
 185   0.0000       5.598492       152.3427 
 186   0.0000       5.599072       152.3585 
 187   0.0000       5.627556       153.1336 
 188   0.0000       5.636732       153.3833 
 189   0.0000       5.664543       154.1400 
 190   0.0000       5.683053       154.6437 
 191   0.0000       5.706184       155.2731 
 192   0.0000       5.767022       156.9286 
 193   0.0000       5.775838       157.1685 
 194   0.0000       5.801472       157.8661 
 195   0.0000       5.805585       157.9780 
 196   0.0000       5.809156       158.0752 
 197   0.0000       5.829062       158.6168 
 198   0.0000       5.837336       158.8420 
 199   0.0000       5.840688       158.9332 
 200   0.0000       5.843849       159.0192 
 201   0.0000       5.862295       159.5212 
 202   0.0000       5.870611       159.7475 
 203   0.0000       5.878404       159.9595 
 204   0.0000       5.879174       159.9805 
 205   0.0000       5.888860       160.2440 
 206   0.0000       5.905135       160.6869 
 207   0.0000       5.906961       160.7366 
 208   0.0000       5.931216       161.3966 
 209   0.0000       5.956454       162.0833 
 210   0.0000       6.385346       173.7541 
 211   0.0000       6.425401       174.8441 
 212   0.0000       6.472562       176.1274 
 213   0.0000       6.476503       176.2346 
 214   0.0000       6.487224       176.5263 
 215   0.0000       6.536950       177.8795 
 216   0.0000       6.644015       180.7929 
 217   0.0000       6.673402       181.5925 
 218   0.0000       6.679186       181.7499 
 219   0.0000       6.703618       182.4147 
 220   0.0000       6.730418       183.1440 
 221   0.0000       6.766108       184.1152 
 222   0.0000       6.813456       185.4036 
 223   0.0000       6.833607       185.9519 
 224   0.0000       6.842644       186.1978 
 225   0.0000       6.854120       186.5101 
 226   0.0000       6.865454       186.8185 
 227   0.0000       6.869592       186.9311 
 228   0.0000       6.871936       186.9949 
 229   0.0000       6.879419       187.1985 
 230   0.0000       6.899513       187.7453 
 231   0.0000       6.914174       188.1442 
 232   0.0000       6.919910       188.3003 
 233   0.0000       6.930989       188.6018 
 234   0.0000       6.945484       188.9962 
 235   0.0000       6.972703       189.7369 
 236   0.0000       6.993440       190.3012 
 237   0.0000       7.008311       190.7058 
 238   0.0000       7.025888       191.1841 
 239   0.0000       7.067758       192.3235 
 240   0.0000       7.338018       199.6776 
 241   0.0000       7.346920       199.9199 
 242   0.0000       7.358411       200.2325 
 243   0.0000       7.402420       201.4301 
 244   0.0000       7.449368       202.7076 
 245   0.0000       7.462981       203.0780 
 246   0.0000       7.476606       203.4488 
 247   0.0000       7.491102       203.8433 
 248   0.0000       7.510913       204.3823 
 249   0.0000       7.587384       206.4632 
 250   0.0000       7.603878       206.9120 
 251   0.0000       7.630146       207.6268 
 252   0.0000      44.839182      1220.1362 
 253   0.0000      44.885884      1221.4070 
 254   0.0000      44.907813      1222.0037 
 255   0.0000      44.995840      1224.3991 
 256   0.0000      45.026330      1225.2287 
 257   0.0000      45.086177      1226.8572 

                    ********************************
                    * MULLIKEN POPULATION ANALYSIS *
                    ********************************

-----------------------
MULLIKEN ATOMIC CHARGES
-----------------------
   0 O :   -0.766666
   1 H :    0.391206
   2 H :    0.380456
   3 O :   -0.759524
   4 H :    0.336099
   5 H :    0.389640
   6 O :   -0.720912
   7 H :    0.376479
   8 H :    0.370199
   9 O :   -0.753340
  10 H :    0.384851
  11 H :    0.356074
  12 O :   -0.691307
  13 H :    0.342854
  14 H :    0.349299
  15 O :   -0.743105
  16 H :    0.372888
  17 H :    0.384810
Sum of atomic charges:   -0.0000000

--------------------------------
MULLIKEN REDUCED ORBITAL CHARGES
--------------------------------
  0 O s       :     3.797362  s :     3.797362
      pz      :     1.596098  p :     4.943952
      px      :     1.837470
      py      :     1.510384
      dz2     :     0.011237  d :     0.024034
      dxz     :     0.002143
      dyz     :     0.002821
      dx2y2   :     0.003275
      dxy     :     0.004559
      f0      :     0.000152  f :     0.001317
      f+1     :     0.000107
      f-1     :     0.000450
      f+2     :     0.000067
      f-2     :     0.000039
      f+3     :     0.000408
      f-3     :     0.000095
  1 H s       :     0.560518  s :     0.560518
      pz      :     0.024428  p :     0.048277
      px      :     0.012770
      py      :     0.011079
  2 H s       :     0.566095  s :     0.566095
      pz      :     0.009685  p :     0.053449
      px      :     0.014947
      py      :     0.028818
  3 O s       :     3.811016  s :     3.811016
      pz      :     1.528137  p :     4.923734
      px      :     1.516384
      py      :     1.879213
      dz2     :     0.010527  d :     0.023339
      dxz     :     0.002671
      dyz     :     0.002368
      dx2y2   :     0.002855
      dxy     :     0.004918
      f0      :     0.000204  f :     0.001435
      f+1     :     0.000436
      f-1     :     0.000124
      f+2     :     0.000077
      f-2     :     0.000037
      f+3     :     0.000114
      f-3     :     0.000444
  4 H s       :     0.618731  s :     0.618731
      pz      :     0.018340  p :     0.045170
      px      :     0.012434
      py      :     0.014395
  5 H s       :     0.556759  s :     0.556759
      pz      :     0.008842  p :     0.053601
      px      :     0.029417
      py      :     0.015342
  6 O s       :     3.807047  s :     3.807047
      pz      :     1.562505  p :     4.886510
      px      :     1.476764
      py      :     1.847241
      dz2     :     0.012079  d :     0.025923
      dxz     :     0.002931
      dyz     :     0.002284
      dx2y2   :     0.003614
      dxy     :     0.005016
      f0      :     0.000169  f :     0.001431
      f+1     :     0.000471
      f-1     :     0.000119
      f+2     :     0.000069
      f-2     :     0.000042
      f+3     :     0.000109
      f-3     :     0.000454
  7 H s       :     0.579922  s :     0.579922
      pz      :     0.019163  p :     0.043599
      px      :     0.011339
      py      :     0.013097
  8 H s       :     0.587444  s :     0.587444
      pz      :     0.009698  p :     0.042357
      px      :     0.018772
      py      :     0.013887
  9 O s       :     3.804944  s :     3.804944
      pz      :     1.552112  p :     4.922263
      px      :     1.551312
      py      :     1.818838
      dz2     :     0.011332  d :     0.024686
      dxz     :     0.001198
      dyz     :     0.002891
      dx2y2   :     0.002095
      dxy     :     0.007170
      f0      :     0.000251  f :     0.001447
      f+1     :     0.000371
      f-1     :     0.000161
      f+2     :     0.000056
      f-2     :     0.000055
      f+3     :     0.000066
      f-3     :     0.000487
 10 H s       :     0.566615  s :     0.566615
      pz      :     0.024141  p :     0.048534
      px      :     0.011547
      py      :     0.012846
 11 H s       :     0.593300  s :     0.593300
      pz      :     0.010546  p :     0.050626
      px      :     0.023262
      py      :     0.016818
 12 O s       :     3.814374  s :     3.814374
      pz      :     1.499237  p :     4.848977
      px      :     1.816317
      py      :     1.533423
      dz2     :     0.012348  d :     0.026421
      dxz     :     0.003086
      dyz     :     0.001271
      dx2y2   :     0.002152
      dxy     :     0.007565
      f0      :     0.000269  f :     0.001535
      f+1     :     0.000175
      f-1     :     0.000384
      f+2     :     0.000056
      f-2     :     0.000057
      f+3     :     0.000525
      f-3     :     0.000070
 13 H s       :     0.612081  s :     0.612081
      pz      :     0.018849  p :     0.045065
      px      :     0.013862
      py      :     0.012354
 14 H s       :     0.606188  s :     0.606188
      pz      :     0.010571  p :     0.044513
      px      :     0.015653
      py      :     0.018289
 15 O s       :     3.807446  s :     3.807446
      pz      :     1.731025  p :     4.910183
      px      :     1.796441
      py      :     1.382717
      dz2     :     0.004000  d :     0.023996
      dxz     :     0.005465
      dyz     :     0.004461
      dx2y2   :     0.002547
      dxy     :     0.007523
      f0      :     0.000085  f :     0.001480
      f+1     :     0.000180
      f-1     :     0.000334
      f+2     :     0.000063
      f-2     :     0.000349
      f+3     :     0.000375
      f-3     :     0.000094
 16 H s       :     0.582104  s :     0.582104
      pz      :     0.016968  p :     0.045008
      px      :     0.014733
      py      :     0.013306
 17 H s       :     0.574703  s :     0.574703
      pz      :     0.010415  p :     0.040487
      px      :     0.012063
      py      :     0.018009


                     *******************************
                     * LOEWDIN POPULATION ANALYSIS *
                     *******************************

----------------------
LOEWDIN ATOMIC CHARGES
----------------------
   0 O :   -0.327247
   1 H :    0.154448
   2 H :    0.148436
   3 O :   -0.347732
   4 H :    0.156220
   5 H :    0.153320
   6 O :   -0.299527
   7 H :    0.177302
   8 H :    0.179395
   9 O :   -0.358984
  10 H :    0.155740
  11 H :    0.144089
  12 O :   -0.328351
  13 H :    0.161698
  14 H :    0.167239
  15 O :   -0.297178
  16 H :    0.167123
  17 H :    0.194010

-------------------------------
LOEWDIN REDUCED ORBITAL CHARGES
-------------------------------
  0 O s       :     3.456320  s :     3.456320
      pz      :     1.572138  p :     4.839687
      px      :     1.782782
      py      :     1.484767
      dz2     :     0.013727  d :     0.029321
      dxz     :     0.001274
      dyz     :     0.003768
      dx2y2   :     0.004830
      dxy     :     0.005723
      f0      :     0.000333  f :     0.001919
      f+1     :     0.000195
      f-1     :     0.000702
      f+2     :     0.000037
      f-2     :     0.000044
      f+3     :     0.000543
      f-3     :     0.000066
  1 H s       :     0.672387  s :     0.672387
      pz      :     0.092633  p :     0.173166
      px      :     0.042988
      py      :     0.037544
  2 H s       :     0.665826  s :     0.665826
      pz      :     0.030537  p :     0.185738
      px      :     0.052598
      py      :     0.102604
  3 O s       :     3.464538  s :     3.464538
      pz      :     1.520465  p :     4.850740
      px      :     1.489859
      py      :     1.840416
      dz2     :     0.015110  d :     0.030426
      dxz     :     0.004340
      dyz     :     0.001653
      dx2y2   :     0.003611
      dxy     :     0.005712
      f0      :     0.000412  f :     0.002029
      f+1     :     0.000743
      f-1     :     0.000187
      f+2     :     0.000047
      f-2     :     0.000046
      f+3     :     0.000063
      f-3     :     0.000531
  4 H s       :     0.684975  s :     0.684975
      pz      :     0.078228  p :     0.158805
      px      :     0.036979
      py      :     0.043599
  5 H s       :     0.658698  s :     0.658698
      pz      :     0.028768  p :     0.187982
      px      :     0.106546
      py      :     0.052668
  6 O s       :     3.467677  s :     3.467677
      pz      :     1.553012  p :     4.797159
      px      :     1.458240
      py      :     1.785907
      dz2     :     0.015293  d :     0.032598
      dxz     :     0.004031
      dyz     :     0.001407
      dx2y2   :     0.005381
      dxy     :     0.006485
      f0      :     0.000358  f :     0.002094
      f+1     :     0.000749
      f-1     :     0.000211
      f+2     :     0.000041
      f-2     :     0.000045
      f+3     :     0.000073
      f-3     :     0.000616
  7 H s       :     0.663827  s :     0.663827
      pz      :     0.080850  p :     0.158871
      px      :     0.035430
      py      :     0.042590
  8 H s       :     0.666710  s :     0.666710
      pz      :     0.029216  p :     0.153894
      px      :     0.075344
      py      :     0.049335
  9 O s       :     3.460624  s :     3.460624
      pz      :     1.535266  p :     4.866034
      px      :     1.538596
      py      :     1.792172
      dz2     :     0.014777  d :     0.030282
      dxz     :     0.001847
      dyz     :     0.002236
      dx2y2   :     0.002195
      dxy     :     0.009226
      f0      :     0.000440  f :     0.002045
      f+1     :     0.000547
      f-1     :     0.000307
      f+2     :     0.000023
      f-2     :     0.000047
      f+3     :     0.000002
      f-3     :     0.000679
 10 H s       :     0.673400  s :     0.673400
      pz      :     0.092229  p :     0.170860
      px      :     0.036611
      py      :     0.042021
 11 H s       :     0.683495  s :     0.683495
      pz      :     0.031560  p :     0.172416
      px      :     0.083052
      py      :     0.057803
 12 O s       :     3.472947  s :     3.472947
      pz      :     1.506856  p :     4.819383
      px      :     1.787560
      py      :     1.524967
      dz2     :     0.016926  d :     0.033793
      dxz     :     0.002515
      dyz     :     0.002129
      dx2y2   :     0.002352
      dxy     :     0.009870
      f0      :     0.000495  f :     0.002228
      f+1     :     0.000328
      f-1     :     0.000599
      f+2     :     0.000026
      f-2     :     0.000048
      f+3     :     0.000729
      f-3     :     0.000003
 13 H s       :     0.680582  s :     0.680582
      pz      :     0.080155  p :     0.157720
      px      :     0.042242
      py      :     0.035322
 14 H s       :     0.676268  s :     0.676268
      pz      :     0.029691  p :     0.156494
      px      :     0.054781
      py      :     0.072022
 15 O s       :     3.462434  s :     3.462434
      pz      :     1.686856  p :     4.801146
      px      :     1.749100
      py      :     1.365190
      dz2     :     0.005433  d :     0.031529
      dxz     :     0.005349
      dyz     :     0.006671
      dx2y2   :     0.004194
      dxy     :     0.009882
      f0      :     0.000090  f :     0.002070
      f+1     :     0.000273
      f-1     :     0.000448
      f+2     :     0.000033
      f-2     :     0.000600
      f+3     :     0.000536
      f-3     :     0.000090
 16 H s       :     0.668686  s :     0.668686
      pz      :     0.066699  p :     0.164191
      px      :     0.052929
      py      :     0.044563
 17 H s       :     0.656906  s :     0.656906
      pz      :     0.033230  p :     0.149084
      px      :     0.043483
      py      :     0.072370


                      *****************************
                      * MAYER POPULATION ANALYSIS *
                      *****************************

  NA   - Mulliken gross atomic population
  ZA   - Total nuclear charge
  QA   - Mulliken gross atomic charge
  VA   - Mayer's total valence
  BVA  - Mayer's bonded valence
  FA   - Mayer's free valence

  ATOM       NA         ZA         QA         VA         BVA        FA
  0 O      8.7667     8.0000    -0.7667     1.7096     1.7096     0.0000
  1 H      0.6088     1.0000     0.3912     0.8722     0.8722    -0.0000
  2 H      0.6195     1.0000     0.3805     0.8925     0.8925     0.0000
  3 O      8.7595     8.0000    -0.7595     1.6977     1.6977     0.0000
  4 H      0.6639     1.0000     0.3361     0.9047     0.9047     0.0000
  5 H      0.6104     1.0000     0.3896     0.8926     0.8926     0.0000
  6 O      8.7209     8.0000    -0.7209     1.7745     1.7745    -0.0000
  7 H      0.6235     1.0000     0.3765     0.8729     0.8729     0.0000
  8 H      0.6298     1.0000     0.3702     0.8826     0.8826    -0.0000
  9 O      8.7533     8.0000    -0.7533     1.7307     1.7307    -0.0000
 10 H      0.6151     1.0000     0.3849     0.8785     0.8785    -0.0000
 11 H      0.6439     1.0000     0.3561     0.9004     0.9004    -0.0000
 12 O      8.6913     8.0000    -0.6913     1.7854     1.7854     0.0000
 13 H      0.6571     1.0000     0.3429     0.8988     0.8988     0.0000
 14 H      0.6507     1.0000     0.3493     0.8949     0.8949     0.0000
 15 O      8.7431     8.0000    -0.7431     1.7537     1.7537    -0.0000
 16 H      0.6271     1.0000     0.3729     0.8770     0.8770    -0.0000
 17 H      0.6152     1.0000     0.3848     0.8666     0.8666    -0.0000

  Mayer bond orders larger than 0.100000
B(  0-O ,  1-H ) :   0.8457 B(  0-O ,  2-H ) :   0.8284 B(  3-O ,  4-H ) :   0.8944 
B(  3-O ,  5-H ) :   0.8006 B(  6-O ,  7-H ) :   0.8662 B(  6-O ,  8-H ) :   0.8665 
B(  9-O , 10-H ) :   0.8538 B(  9-O , 11-H ) :   0.8756 B( 12-O , 13-H ) :   0.8905 
B( 12-O , 14-H ) :   0.8866 B( 15-O , 16-H ) :   0.8675 B( 15-O , 17-H ) :   0.8544 


-------
TIMINGS
-------

Total SCF time: 0 days 0 hours 0 min 11 sec 

Total time                  ....      11.728 sec
Sum of individual times     ....      11.477 sec  ( 97.9%)

Fock matrix formation       ....      11.118 sec  ( 94.8%)
Diagonalization             ....       0.077 sec  (  0.7%)
Density matrix formation    ....       0.010 sec  (  0.1%)
Population analysis         ....       0.008 sec  (  0.1%)
Initial guess               ....       0.147 sec  (  1.3%)
Orbital Transformation      ....       0.000 sec  (  0.0%)
Orbital Orthonormalization  ....       0.000 sec  (  0.0%)
DIIS solution               ....       0.030 sec  (  0.3%)
SOSCF solution              ....       0.031 sec  (  0.3%)


           ************************************************************
           *        Program running with 6 parallel MPI-processes     *
           *              working on a common directory               *
           ************************************************************

------------------------------------------------------------------------------
                                ORCA  MP2 
------------------------------------------------------------------------------

Freezing NCore=12 chemical core electrons
MP2 will be done in the AO integral direct mode
The Q1-step will be done using symmetric double matrices
Dimension of the basis                    ...  258
Memory devoted for MP2                    ... 8000 MB   
Memory needed for all in one shot         ...  264 MB
Number of MOs that can be treated together...  120      
MP2 density construction                  ... relaxed
The MP2 gradient is requested => amplitudes will be stored on disk
Total number of MOs              ...   24
Number of MOs treated per batch  ...    4 
Number of batches necessary      ...    1 
OPERATORS   0/  0 PASS   0
-----------------------------------------------
 MP2 CORRELATION ENERGY   :     -1.549183839 Eh
-----------------------------------------------


---------------------
MP2 DENSITY FORMATION
---------------------

Completing the external part of the density      ... done
Storing the unrelaxed density                    ... done

Calculating G(D)                                 ... done
Completing the Lagrangian                        ... done
Solving the Z-vector equations                   ... 

------------------------------------------------------------------------------
                           ORCA CP-SCF CALCULATION
------------------------------------------------------------------------------

Input orbitals are from        ... 12h2o.su.etal.mol4,6,7,8,9,10-orca.engrad-mp2.def2tzvp.frozencore.gbw
Input Perturbation             ... 12h2o.su.etal.mol4,6,7,8,9,10-orca.engrad-mp2.def2tzvp.frozencore.pin.tmp
Wavefunction output            ... 12h2o.su.etal.mol4,6,7,8,9,10-orca.engrad-mp2.def2tzvp.frozencore.pout.tmp
Perturbation mode              ... Real perturbation (singlet)
Solver                         ... POPLE
Max. number of iterations      ... 128
Convergence tolerance          ... 1.000e-08
Integral handling              ... Direct
Number of perturbations        ... 1
Number of operators            ... 1
Orbital ranges used for CP-SCF:
 Operator 0:  Orbitals   0... 29  to  30...257
Variables per vector in CP-SCF ... 6840
Number of vectors sought       ... 1
     CP-SCF ITERATION   0: 
     CP-SCF ITERATION   1:      0.000779701168
     CP-SCF ITERATION   2:      0.000019502228
     CP-SCF ITERATION   3:      0.000001091806
     CP-SCF ITERATION   4:      0.000000088343
     CP-SCF ITERATION   5:      0.000000007900
                                                 ... done
Finalizing the relaxed density                   ... done
Transforming P to the AO basis                   ... done
Storing the relaxed density                      ... done

------------------------------------
ENERGY WEIGHTED DENSITY FINALIZATION
------------------------------------

Gathering the parts of the W-matrix              ...                                                      done
Forming the Z-density                            ... done
Transforming Z to the AO basis                   ... done
Calculating G(Z)                                 ... done
Finalizing the W-matrix                          ...                                                      done
Transforming W to the AO basis and storing       ... done

                *********************************************
                * UNRELAXED MP2 DENSITY POPULATION ANALYSIS *
                *********************************************

------------------------------------------------------------------------------
                           ORCA POPULATION ANALYSIS
------------------------------------------------------------------------------
Input electron density              ... 12h2o.su.etal.mol4,6,7,8,9,10-orca.engrad-mp2.def2tzvp.frozencore.pmp2ur
BaseName (.gbw .S,...)              ... 12h2o.su.etal.mol4,6,7,8,9,10-orca.engrad-mp2.def2tzvp.frozencore

                    ********************************
                    * MULLIKEN POPULATION ANALYSIS *
                    ********************************

-----------------------
MULLIKEN ATOMIC CHARGES
-----------------------
   0 O :   -0.759234
   1 H :    0.388206
   2 H :    0.376155
   3 O :   -0.753580
   4 H :    0.333632
   5 H :    0.384848
   6 O :   -0.714702
   7 H :    0.374074
   8 H :    0.367354
   9 O :   -0.747643
  10 H :    0.381913
  11 H :    0.352921
  12 O :   -0.686346
  13 H :    0.340385
  14 H :    0.346850
  15 O :   -0.737422
  16 H :    0.370635
  17 H :    0.381955
Sum of atomic charges:   -0.0000000

--------------------------------
MULLIKEN REDUCED ORBITAL CHARGES
--------------------------------
  0 O s       :     3.792075  s :     3.792075
      pz      :     1.586178  p :     4.911477
      px      :     1.824367
      py      :     1.500931
      dz2     :     0.016550  d :     0.051758
      dxz     :     0.007833
      dyz     :     0.008284
      dx2y2   :     0.008961
      dxy     :     0.010131
      f0      :     0.000540  f :     0.003924
      f+1     :     0.000484
      f-1     :     0.000821
      f+2     :     0.000434
      f-2     :     0.000408
      f+3     :     0.000769
      f-3     :     0.000468
  1 H s       :     0.561963  s :     0.561963
      pz      :     0.024544  p :     0.049831
      px      :     0.013602
      py      :     0.011685
  2 H s       :     0.568711  s :     0.568711
      pz      :     0.010519  p :     0.055134
      px      :     0.015638
      py      :     0.028977
  3 O s       :     3.805958  s :     3.805958
      pz      :     1.518913  p :     4.892947
      px      :     1.506930
      py      :     1.867104
      dz2     :     0.015808  d :     0.050664
      dxz     :     0.008111
      dyz     :     0.007963
      dx2y2   :     0.008404
      dxy     :     0.010377
      f0      :     0.000585  f :     0.004011
      f+1     :     0.000804
      f-1     :     0.000495
      f+2     :     0.000440
      f-2     :     0.000404
      f+3     :     0.000482
      f-3     :     0.000802
  4 H s       :     0.619493  s :     0.619493
      pz      :     0.018509  p :     0.046874
      px      :     0.013084
      py      :     0.015281
  5 H s       :     0.559941  s :     0.559941
      pz      :     0.009624  p :     0.055212
      px      :     0.029550
      py      :     0.016037
  6 O s       :     3.801963  s :     3.801963
      pz      :     1.553015  p :     4.855854
      px      :     1.468186
      py      :     1.834653
      dz2     :     0.017168  d :     0.052883
      dxz     :     0.008229
      dyz     :     0.007857
      dx2y2   :     0.009143
      dxy     :     0.010487
      f0      :     0.000551  f :     0.004003
      f+1     :     0.000833
      f-1     :     0.000492
      f+2     :     0.000433
      f-2     :     0.000406
      f+3     :     0.000478
      f-3     :     0.000810
  7 H s       :     0.580798  s :     0.580798
      pz      :     0.019280  p :     0.045129
      px      :     0.011927
      py      :     0.013922
  8 H s       :     0.588744  s :     0.588744
      pz      :     0.010504  p :     0.043902
      px      :     0.018792
      py      :     0.014606
  9 O s       :     3.800137  s :     3.800137
      pz      :     1.542596  p :     4.891833
      px      :     1.541906
      py      :     1.807331
      dz2     :     0.016509  d :     0.051652
      dxz     :     0.006656
      dyz     :     0.008389
      dx2y2   :     0.007657
      dxy     :     0.012441
      f0      :     0.000631  f :     0.004021
      f+1     :     0.000739
      f-1     :     0.000535
      f+2     :     0.000417
      f-2     :     0.000421
      f+3     :     0.000435
      f-3     :     0.000843
 10 H s       :     0.567996  s :     0.567996
      pz      :     0.024190  p :     0.050091
      px      :     0.012220
      py      :     0.013682
 11 H s       :     0.594757  s :     0.594757
      pz      :     0.011374  p :     0.052322
      px      :     0.023485
      py      :     0.017463
 12 O s       :     3.809562  s :     3.809562
      pz      :     1.490406  p :     4.819995
      px      :     1.805045
      py      :     1.524543
      dz2     :     0.017294  d :     0.052710
      dxz     :     0.008483
      dyz     :     0.006586
      dx2y2   :     0.007592
      dxy     :     0.012755
      f0      :     0.000643  f :     0.004080
      f+1     :     0.000545
      f-1     :     0.000746
      f+2     :     0.000413
      f-2     :     0.000420
      f+3     :     0.000877
      f-3     :     0.000437
 13 H s       :     0.612895  s :     0.612895
      pz      :     0.018937  p :     0.046720
      px      :     0.014730
      py      :     0.013053
 14 H s       :     0.607008  s :     0.607008
      pz      :     0.011356  p :     0.046143
      px      :     0.016325
      py      :     0.018461
 15 O s       :     3.802584  s :     3.802584
      pz      :     1.719968  p :     4.879508
      px      :     1.784646
      py      :     1.374895
      dz2     :     0.009567  d :     0.051280
      dxz     :     0.010970
      dyz     :     0.009867
      dx2y2   :     0.008033
      dxy     :     0.012843
      f0      :     0.000457  f :     0.004049
      f+1     :     0.000548
      f-1     :     0.000696
      f+2     :     0.000433
      f-2     :     0.000714
      f+3     :     0.000736
      f-3     :     0.000465
 16 H s       :     0.582835  s :     0.582835
      pz      :     0.017426  p :     0.046531
      px      :     0.015423
      py      :     0.013682
 17 H s       :     0.576072  s :     0.576072
      pz      :     0.011231  p :     0.041973
      px      :     0.012804
      py      :     0.017938


                     *******************************
                     * LOEWDIN POPULATION ANALYSIS *
                     *******************************

----------------------
LOEWDIN ATOMIC CHARGES
----------------------
   0 O :   -0.323033
   1 H :    0.152409
   2 H :    0.145844
   3 O :   -0.344533
   4 H :    0.154585
   5 H :    0.150635
   6 O :   -0.295155
   7 H :    0.175966
   8 H :    0.177640
   9 O :   -0.356138
  10 H :    0.153891
  11 H :    0.141943
  12 O :   -0.325384
  13 H :    0.160200
  14 H :    0.165805
  15 O :   -0.292826
  16 H :    0.165942
  17 H :    0.192210

-------------------------------
LOEWDIN REDUCED ORBITAL CHARGES
-------------------------------
  0 O s       :     3.452602  s :     3.452602
      pz      :     1.562190  p :     4.807569
      px      :     1.769853
      py      :     1.475526
      dz2     :     0.019658  d :     0.058136
      dxz     :     0.006889
      dyz     :     0.009273
      dx2y2   :     0.010685
      dxy     :     0.011631
      f0      :     0.000752  f :     0.004726
      f+1     :     0.000587
      f-1     :     0.001144
      f+2     :     0.000411
      f-2     :     0.000419
      f+3     :     0.000962
      f-3     :     0.000450
  1 H s       :     0.671517  s :     0.671517
      pz      :     0.093977  p :     0.176074
      px      :     0.043760
      py      :     0.038338
  2 H s       :     0.665602  s :     0.665602
      pz      :     0.031372  p :     0.188553
      px      :     0.053456
      py      :     0.103726
  3 O s       :     3.460837  s :     3.460837
      pz      :     1.510381  p :     4.819979
      px      :     1.480695
      py      :     1.828902
      dz2     :     0.021045  d :     0.058915
      dxz     :     0.009811
      dyz     :     0.007192
      dx2y2   :     0.009352
      dxy     :     0.011514
      f0      :     0.000826  f :     0.004802
      f+1     :     0.001181
      f-1     :     0.000575
      f+2     :     0.000418
      f-2     :     0.000419
      f+3     :     0.000442
      f-3     :     0.000943
  4 H s       :     0.683230  s :     0.683230
      pz      :     0.079962  p :     0.162185
      px      :     0.037818
      py      :     0.044405
  5 H s       :     0.658744  s :     0.658744
      pz      :     0.029575  p :     0.190621
      px      :     0.107554
      py      :     0.053492
  6 O s       :     3.463789  s :     3.463789
      pz      :     1.543303  p :     4.765918
      px      :     1.449354
      py      :     1.773262
      dz2     :     0.021020  d :     0.060590
      dxz     :     0.009351
      dyz     :     0.006898
      dx2y2   :     0.011083
      dxy     :     0.012238
      f0      :     0.000770  f :     0.004858
      f+1     :     0.001181
      f-1     :     0.000600
      f+2     :     0.000412
      f-2     :     0.000416
      f+3     :     0.000453
      f-3     :     0.001028
  7 H s       :     0.662225  s :     0.662225
      pz      :     0.082296  p :     0.161810
      px      :     0.036157
      py      :     0.043357
  8 H s       :     0.665432  s :     0.665432
      pz      :     0.030003  p :     0.156927
      px      :     0.076664
      py      :     0.050261
  9 O s       :     3.456961  s :     3.456961
      pz      :     1.525718  p :     4.835981
      px      :     1.529130
      py      :     1.781132
      dz2     :     0.020636  d :     0.058381
      dxz     :     0.007259
      dyz     :     0.007680
      dx2y2   :     0.007736
      dxy     :     0.015071
      f0      :     0.000861  f :     0.004815
      f+1     :     0.000970
      f-1     :     0.000704
      f+2     :     0.000389
      f-2     :     0.000420
      f+3     :     0.000376
      f-3     :     0.001094
 10 H s       :     0.672360  s :     0.672360
      pz      :     0.093548  p :     0.173749
      px      :     0.037372
      py      :     0.042828
 11 H s       :     0.682488  s :     0.682488
      pz      :     0.032368  p :     0.175569
      px      :     0.084377
      py      :     0.058824
 12 O s       :     3.469176  s :     3.469176
      pz      :     1.497639  p :     4.790070
      px      :     1.776594
      py      :     1.515837
      dz2     :     0.022593  d :     0.061172
      dxz     :     0.007851
      dyz     :     0.007378
      dx2y2   :     0.007778
      dxy     :     0.015571
      f0      :     0.000910  f :     0.004966
      f+1     :     0.000721
      f-1     :     0.001016
      f+2     :     0.000388
      f-2     :     0.000417
      f+3     :     0.001138
      f-3     :     0.000375
 13 H s       :     0.678852  s :     0.678852
      pz      :     0.081806  p :     0.160948
      px      :     0.043071
      py      :     0.036071
 14 H s       :     0.674543  s :     0.674543
      pz      :     0.030427  p :     0.159651
      px      :     0.055825
      py      :     0.073399
 15 O s       :     3.458665  s :     3.458665
      pz      :     1.675354  p :     4.769421
      px      :     1.737069
      py      :     1.356998
      dz2     :     0.011131  d :     0.059907
      dxz     :     0.011142
      dyz     :     0.012286
      dx2y2   :     0.009782
      dxy     :     0.015565
      f0      :     0.000474  f :     0.004833
      f+1     :     0.000660
      f-1     :     0.000858
      f+2     :     0.000409
      f-2     :     0.001008
      f+3     :     0.000950
      f-3     :     0.000475
 16 H s       :     0.666934  s :     0.666934
      pz      :     0.067862  p :     0.167124
      px      :     0.053901
      py      :     0.045361
 17 H s       :     0.655743  s :     0.655743
      pz      :     0.034060  p :     0.152047
      px      :     0.044456
      py      :     0.073531


                      *****************************
                      * MAYER POPULATION ANALYSIS *
                      *****************************

  NA   - Mulliken gross atomic population
  ZA   - Total nuclear charge
  QA   - Mulliken gross atomic charge
  VA   - Mayer's total valence
  BVA  - Mayer's bonded valence
  FA   - Mayer's free valence

  ATOM       NA         ZA         QA         VA         BVA        FA
  0 O      8.7592     8.0000    -0.7592     2.0249     1.6315     0.3934
  1 H      0.6118     1.0000     0.3882     0.8781     0.8339     0.0443
  2 H      0.6238     1.0000     0.3762     0.9001     0.8532     0.0470
  3 O      8.7536     8.0000    -0.7536     2.0123     1.6184     0.3939
  4 H      0.6664     1.0000     0.3336     0.9109     0.8618     0.0491
  5 H      0.6152     1.0000     0.3848     0.9007     0.8537     0.0469
  6 O      8.7147     8.0000    -0.7147     2.0827     1.6937     0.3890
  7 H      0.6259     1.0000     0.3741     0.8785     0.8334     0.0451
  8 H      0.6326     1.0000     0.3674     0.8889     0.8418     0.0471
  9 O      8.7476     8.0000    -0.7476     2.0420     1.6520     0.3900
 10 H      0.6181     1.0000     0.3819     0.8845     0.8401     0.0444
 11 H      0.6471     1.0000     0.3529     0.9071     0.8599     0.0471
 12 O      8.6863     8.0000    -0.6863     2.0884     1.7030     0.3854
 13 H      0.6596     1.0000     0.3404     0.9050     0.8571     0.0479
 14 H      0.6532     1.0000     0.3468     0.9009     0.8536     0.0474
 15 O      8.7374     8.0000    -0.7374     2.0663     1.6741     0.3922
 16 H      0.6294     1.0000     0.3706     0.8825     0.8378     0.0447
 17 H      0.6180     1.0000     0.3820     0.8726     0.8259     0.0467

  Mayer bond orders larger than 0.100000
B(  0-O ,  1-H ) :   0.8082 B(  0-O ,  2-H ) :   0.7909 B(  3-O ,  4-H ) :   0.8523 
B(  3-O ,  5-H ) :   0.7645 B(  6-O ,  7-H ) :   0.8271 B(  6-O ,  8-H ) :   0.8265 
B(  9-O , 10-H ) :   0.8161 B(  9-O , 11-H ) :   0.8358 B( 12-O , 13-H ) :   0.8493 
B( 12-O , 14-H ) :   0.8458 B( 15-O , 16-H ) :   0.8289 B( 15-O , 17-H ) :   0.8143 



                *******************************************
                * RELAXED MP2 DENSITY POPULATION ANALYSIS *
                *******************************************

------------------------------------------------------------------------------
                           ORCA POPULATION ANALYSIS
------------------------------------------------------------------------------
Input electron density              ... 12h2o.su.etal.mol4,6,7,8,9,10-orca.engrad-mp2.def2tzvp.frozencore.pmp2re
BaseName (.gbw .S,...)              ... 12h2o.su.etal.mol4,6,7,8,9,10-orca.engrad-mp2.def2tzvp.frozencore

                    ********************************
                    * MULLIKEN POPULATION ANALYSIS *
                    ********************************

-----------------------
MULLIKEN ATOMIC CHARGES
-----------------------
   0 O :   -0.724034
   1 H :    0.374470
   2 H :    0.355257
   3 O :   -0.730025
   4 H :    0.325902
   5 H :    0.358535
   6 O :   -0.691378
   7 H :    0.367488
   8 H :    0.359098
   9 O :   -0.726201
  10 H :    0.368998
  11 H :    0.338293
  12 O :   -0.671875
  13 H :    0.333446
  14 H :    0.339667
  15 O :   -0.715383
  16 H :    0.363550
  17 H :    0.374191
Sum of atomic charges:   -0.0000000

--------------------------------
MULLIKEN REDUCED ORBITAL CHARGES
--------------------------------
  0 O s       :     3.788289  s :     3.788289
      pz      :     1.582718  p :     4.881828
      px      :     1.803866
      py      :     1.495244
      dz2     :     0.015562  d :     0.050061
      dxz     :     0.007887
      dyz     :     0.008076
      dx2y2   :     0.008758
      dxy     :     0.009777
      f0      :     0.000528  f :     0.003856
      f+1     :     0.000478
      f-1     :     0.000795
      f+2     :     0.000433
      f-2     :     0.000406
      f+3     :     0.000750
      f-3     :     0.000465
  1 H s       :     0.575148  s :     0.575148
      pz      :     0.023894  p :     0.050381
      px      :     0.014490
      py      :     0.011997
  2 H s       :     0.589151  s :     0.589151
      pz      :     0.011223  p :     0.055591
      px      :     0.016209
      py      :     0.028159
  3 O s       :     3.807858  s :     3.807858
      pz      :     1.508985  p :     4.869608
      px      :     1.500853
      py      :     1.859770
      dz2     :     0.014623  d :     0.048615
      dxz     :     0.007822
      dyz     :     0.007987
      dx2y2   :     0.008204
      dxy     :     0.009980
      f0      :     0.000573  f :     0.003943
      f+1     :     0.000775
      f-1     :     0.000489
      f+2     :     0.000439
      f-2     :     0.000403
      f+3     :     0.000480
      f-3     :     0.000784
  4 H s       :     0.626415  s :     0.626415
      pz      :     0.017790  p :     0.047683
      px      :     0.013598
      py      :     0.016294
  5 H s       :     0.585952  s :     0.585952
      pz      :     0.010300  p :     0.055513
      px      :     0.028645
      py      :     0.016569
  6 O s       :     3.804927  s :     3.804927
      pz      :     1.546764  p :     4.831794
      px      :     1.465247
      py      :     1.819783
      dz2     :     0.015956  d :     0.050730
      dxz     :     0.007982
      dyz     :     0.007915
      dx2y2   :     0.008851
      dxy     :     0.010027
      f0      :     0.000536  f :     0.003927
      f+1     :     0.000805
      f-1     :     0.000486
      f+2     :     0.000432
      f-2     :     0.000405
      f+3     :     0.000476
      f-3     :     0.000788
  7 H s       :     0.586790  s :     0.586790
      pz      :     0.018588  p :     0.045722
      px      :     0.012293
      py      :     0.014841
  8 H s       :     0.596404  s :     0.596404
      pz      :     0.011212  p :     0.044498
      px      :     0.017986
      py      :     0.015300
  9 O s       :     3.798144  s :     3.798144
      pz      :     1.537916  p :     4.874434
      px      :     1.536254
      py      :     1.800264
      dz2     :     0.015318  d :     0.049670
      dxz     :     0.006624
      dyz     :     0.008351
      dx2y2   :     0.007615
      dxy     :     0.011762
      f0      :     0.000615  f :     0.003952
      f+1     :     0.000718
      f-1     :     0.000525
      f+2     :     0.000417
      f-2     :     0.000420
      f+3     :     0.000436
      f-3     :     0.000821
 10 H s       :     0.580449  s :     0.580449
      pz      :     0.023347  p :     0.050553
      px      :     0.012691
      py      :     0.014516
 11 H s       :     0.608698  s :     0.608698
      pz      :     0.012113  p :     0.053008
      px      :     0.022939
      py      :     0.017956
 12 O s       :     3.814336  s :     3.814336
      pz      :     1.484142  p :     4.803190
      px      :     1.799290
      py      :     1.519758
      dz2     :     0.015877  d :     0.050346
      dxz     :     0.008452
      dyz     :     0.006521
      dx2y2   :     0.007502
      dxy     :     0.011993
      f0      :     0.000624  f :     0.004003
      f+1     :     0.000534
      f-1     :     0.000723
      f+2     :     0.000414
      f-2     :     0.000418
      f+3     :     0.000852
      f-3     :     0.000438
 13 H s       :     0.619043  s :     0.619043
      pz      :     0.018149  p :     0.047510
      px      :     0.015712
      py      :     0.013650
 14 H s       :     0.613472  s :     0.613472
      pz      :     0.012050  p :     0.046861
      px      :     0.016862
      py      :     0.017949
 15 O s       :     3.806357  s :     3.806357
      pz      :     1.710674  p :     4.855897
      px      :     1.773631
      py      :     1.371591
      dz2     :     0.009349  d :     0.049154
      dxz     :     0.010715
      dyz     :     0.009278
      dx2y2   :     0.007800
      dxy     :     0.012011
      f0      :     0.000456  f :     0.003976
      f+1     :     0.000539
      f-1     :     0.000677
      f+2     :     0.000432
      f-2     :     0.000693
      f+3     :     0.000715
      f-3     :     0.000463
 16 H s       :     0.589230  s :     0.589230
      pz      :     0.017528  p :     0.047221
      px      :     0.016088
      py      :     0.013605
 17 H s       :     0.583309  s :     0.583309
      pz      :     0.012047  p :     0.042500
      px      :     0.013491
      py      :     0.016962


                     *******************************
                     * LOEWDIN POPULATION ANALYSIS *
                     *******************************

----------------------
LOEWDIN ATOMIC CHARGES
----------------------
   0 O :   -0.315323
   1 H :    0.148572
   2 H :    0.139417
   3 O :   -0.343801
   4 H :    0.155894
   5 H :    0.142801
   6 O :   -0.290053
   7 H :    0.177362
   8 H :    0.178125
   9 O :   -0.356015
  10 H :    0.150942
  11 H :    0.138302
  12 O :   -0.327653
  13 H :    0.161305
  14 H :    0.167113
  15 O :   -0.287426
  16 H :    0.167530
  17 H :    0.192910

-------------------------------
LOEWDIN REDUCED ORBITAL CHARGES
-------------------------------
  0 O s       :     3.453308  s :     3.453308
      pz      :     1.563392  p :     4.799609
      px      :     1.758168
      py      :     1.478049
      dz2     :     0.019300  d :     0.057648
      dxz     :     0.006961
      dyz     :     0.009105
      dx2y2   :     0.010699
      dxy     :     0.011583
      f0      :     0.000753  f :     0.004758
      f+1     :     0.000589
      f-1     :     0.001155
      f+2     :     0.000413
      f-2     :     0.000418
      f+3     :     0.000975
      f-3     :     0.000453
  1 H s       :     0.674975  s :     0.674975
      pz      :     0.093438  p :     0.176453
      px      :     0.044419
      py      :     0.038596
  2 H s       :     0.671206  s :     0.671206
      pz      :     0.031925  p :     0.189378
      px      :     0.053948
      py      :     0.103504
  3 O s       :     3.462553  s :     3.462553
      pz      :     1.509467  p :     4.818257
      px      :     1.483101
      py      :     1.825688
      dz2     :     0.020550  d :     0.058155
      dxz     :     0.009585
      dyz     :     0.007262
      dx2y2   :     0.009319
      dxy     :     0.011438
      f0      :     0.000827  f :     0.004837
      f+1     :     0.001195
      f-1     :     0.000575
      f+2     :     0.000420
      f-2     :     0.000418
      f+3     :     0.000445
      f-3     :     0.000958
  4 H s       :     0.681501  s :     0.681501
      pz      :     0.079394  p :     0.162605
      px      :     0.037896
      py      :     0.045315
  5 H s       :     0.666000  s :     0.666000
      pz      :     0.029889  p :     0.191199
      px      :     0.107172
      py      :     0.054138
  6 O s       :     3.465276  s :     3.465276
      pz      :     1.544493  p :     4.760444
      px      :     1.452954
      py      :     1.762997
      dz2     :     0.020380  d :     0.059459
      dxz     :     0.009122
      dyz     :     0.006971
      dx2y2   :     0.010954
      dxy     :     0.012032
      f0      :     0.000766  f :     0.004873
      f+1     :     0.001188
      f-1     :     0.000601
      f+2     :     0.000414
      f-2     :     0.000414
      f+3     :     0.000455
      f-3     :     0.001035
  7 H s       :     0.661054  s :     0.661054
      pz      :     0.081463  p :     0.161584
      px      :     0.036044
      py      :     0.044077
  8 H s       :     0.664973  s :     0.664973
      pz      :     0.030447  p :     0.156903
      px      :     0.075575
      py      :     0.050881
  9 O s       :     3.457626  s :     3.457626
      pz      :     1.526745  p :     4.836148
      px      :     1.530281
      py      :     1.779122
      dz2     :     0.020083  d :     0.057403
      dxz     :     0.007141
      dyz     :     0.007699
      dx2y2   :     0.007704
      dxy     :     0.014776
      f0      :     0.000865  f :     0.004838
      f+1     :     0.000979
      f-1     :     0.000703
      f+2     :     0.000390
      f-2     :     0.000420
      f+3     :     0.000376
      f-3     :     0.001104
 10 H s       :     0.675043  s :     0.675043
      pz      :     0.092637  p :     0.174016
      px      :     0.037757
      py      :     0.043621
 11 H s       :     0.685277  s :     0.685277
      pz      :     0.032940  p :     0.176421
      px      :     0.083994
      py      :     0.059488
 12 O s       :     3.471336  s :     3.471336
      pz      :     1.499321  p :     4.791578
      px      :     1.774449
      py      :     1.517807
      dz2     :     0.021764  d :     0.059759
      dxz     :     0.007879
      dyz     :     0.007228
      dx2y2   :     0.007699
      dxy     :     0.015189
      f0      :     0.000910  f :     0.004980
      f+1     :     0.000718
      f-1     :     0.001024
      f+2     :     0.000390
      f-2     :     0.000417
      f+3     :     0.001146
      f-3     :     0.000375
 13 H s       :     0.677451  s :     0.677451
      pz      :     0.081048  p :     0.161243
      px      :     0.043998
      py      :     0.036197
 14 H s       :     0.673159  s :     0.673159
      pz      :     0.030718  p :     0.159728
      px      :     0.056326
      py      :     0.072684
 15 O s       :     3.460532  s :     3.460532
      pz      :     1.670387  p :     4.763136
      px      :     1.730702
      py      :     1.362046
      dz2     :     0.011089  d :     0.058906
      dxz     :     0.011141
      dyz     :     0.011928
      dx2y2   :     0.009599
      dxy     :     0.015149
      f0      :     0.000477  f :     0.004853
      f+1     :     0.000660
      f-1     :     0.000864
      f+2     :     0.000410
      f-2     :     0.001008
      f+3     :     0.000956
      f-3     :     0.000478
 16 H s       :     0.665582  s :     0.665582
      pz      :     0.067844  p :     0.166889
      px      :     0.054455
      py      :     0.044589
 17 H s       :     0.655175  s :     0.655175
      pz      :     0.034743  p :     0.151915
      px      :     0.045129
      py      :     0.072044


                      *****************************
                      * MAYER POPULATION ANALYSIS *
                      *****************************

  NA   - Mulliken gross atomic population
  ZA   - Total nuclear charge
  QA   - Mulliken gross atomic charge
  VA   - Mayer's total valence
  BVA  - Mayer's bonded valence
  FA   - Mayer's free valence

  ATOM       NA         ZA         QA         VA         BVA        FA
  0 O      8.7240     8.0000    -0.7240     2.0658     1.6786     0.3872
  1 H      0.6255     1.0000     0.3745     0.8961     0.8521     0.0440
  2 H      0.6447     1.0000     0.3553     0.9281     0.8820     0.0461
  3 O      8.7300     8.0000    -0.7300     2.0305     1.6423     0.3882
  4 H      0.6741     1.0000     0.3259     0.9164     0.8673     0.0491
  5 H      0.6415     1.0000     0.3585     0.9348     0.8893     0.0456
  6 O      8.6914     8.0000    -0.6914     2.1140     1.7310     0.3831
  7 H      0.6325     1.0000     0.3675     0.8841     0.8389     0.0452
  8 H      0.6409     1.0000     0.3591     0.8989     0.8522     0.0467
  9 O      8.7262     8.0000    -0.7262     2.0598     1.6749     0.3849
 10 H      0.6310     1.0000     0.3690     0.9019     0.8576     0.0443
 11 H      0.6617     1.0000     0.3383     0.9273     0.8805     0.0468
 12 O      8.6719     8.0000    -0.6719     2.0961     1.7158     0.3803
 13 H      0.6666     1.0000     0.3334     0.9112     0.8633     0.0479
 14 H      0.6603     1.0000     0.3397     0.9076     0.8603     0.0473
 15 O      8.7154     8.0000    -0.7154     2.1048     1.7190     0.3858
 16 H      0.6365     1.0000     0.3635     0.8881     0.8434     0.0447
 17 H      0.6258     1.0000     0.3742     0.8807     0.8341     0.0466

  Mayer bond orders larger than 0.100000
B(  0-O ,  1-H ) :   0.8125 B(  0-O ,  2-H ) :   0.7909 B(  0-O ,  5-H ) :   0.1121 
B(  3-O ,  4-H ) :   0.8548 B(  3-O ,  5-H ) :   0.7623 B(  6-O ,  7-H ) :   0.8311 
B(  6-O ,  8-H ) :   0.8298 B(  9-O , 10-H ) :   0.8214 B(  9-O , 11-H ) :   0.8396 
B( 12-O , 13-H ) :   0.8532 B( 12-O , 14-H ) :   0.8502 B( 15-O , 16-H ) :   0.8323 
B( 15-O , 17-H ) :   0.8179 


----------------------------------
MP2 DERIVATIVE INTEGRAL GENERATION
----------------------------------


Input Wavefunction Amplitudes       ... 12h2o.su.etal.mol4,6,7,8,9,10-orca.engrad-mp2.def2tzvp.frozencore.mp2tsaa.tmp
Input Correlated Electron Density   ... 12h2o.su.etal.mol4,6,7,8,9,10-orca.engrad-mp2.def2tzvp.frozencore.pmp2re
Input Energy Weighted Density       ... 12h2o.su.etal.mol4,6,7,8,9,10-orca.engrad-mp2.def2tzvp.frozencore.wmp2.tmp
Input SCF Electron Density          ... 12h2o.su.etal.mol4,6,7,8,9,10-orca.engrad-mp2.def2tzvp.frozencore.scfp

One-Electron Terms    ...
                        ... One-Electron Terms done
Prescreening matrices              ... done

Batch handling in the gradient evaluation:
Memory available                      ... 8000.0 MB
Memory per occupied orbital in Q2     ...   12.2 MB
Memory per occupied orbital in Q3     ...    0.1 MB
Total memory requirement per |i>      ...   12.3 MB
Max. Number of orbitals possible      ...    651
Number of orbitals treated per batch  ...     24
Number of batches to be done          ...      1
Batch   0: i=    6 ...    29

---------------------------------------
MP2 TOTAL ENERGY:     -457.920104510 Eh
---------------------------------------

The final MP2 gradient
  0:   0.00101293   0.00355184   0.00236957
  1:  -0.00080488   0.00159413  -0.00330955
  2:  -0.00122691  -0.00873275   0.00040820
  3:  -0.00068982   0.00037235  -0.01375863
  4:   0.00106342  -0.00073597   0.01111350
  5:   0.00020801   0.00002371  -0.00131738
  6:  -0.01436873   0.00833606  -0.00902315
  7:  -0.00129655   0.00078132   0.00607293
  8:   0.01525448  -0.00591450   0.00200122
  9:   0.00519537  -0.00435110  -0.00044000
 10:   0.00136737   0.00280421   0.00339985
 11:  -0.00971161   0.00297836  -0.00171189
 12:  -0.00432809  -0.00726124   0.00933693
 13:  -0.00132307  -0.00219820  -0.00884749
 14:   0.00542209   0.00936530   0.00084149
 15:   0.01100132   0.02462756   0.00050108
 16:   0.00219487   0.00016791   0.00295838
 17:  -0.00897021  -0.02540901  -0.00059506

-----------------------------------
NORM OF THE MP2 GRADIENT:  0.055670
-----------------------------------

-------------------------   --------------------
FINAL SINGLE POINT ENERGY      -457.920104510156
-------------------------   --------------------


                            ***************************************
                            *     ORCA property calculations      *
                            ***************************************

                                    ---------------------
                                    Active property flags
                                    ---------------------
   (+) Dipole Moment


------------------------------------------------------------------------------
                       ORCA ELECTRIC PROPERTIES CALCULATION
------------------------------------------------------------------------------

Dipole Moment Calculation                       ... on
Quadrupole Moment Calculation                   ... off
Polarizability Calculation                      ... off
GBWName                                         ... 12h2o.su.etal.mol4,6,7,8,9,10-orca.engrad-mp2.def2tzvp.frozencore.gbw
Electron density file                           ... 12h2o.su.etal.mol4,6,7,8,9,10-orca.engrad-mp2.def2tzvp.frozencore.scfp
The origin for moment calculation is the CENTER OF MASS  = ( 0.194012,  0.799670 -0.885512)

-------------
DIPOLE MOMENT
-------------
                                X             Y             Z
Electronic contribution:     -0.33242      -0.11039      -0.01613
Nuclear contribution   :     -1.02241       0.25725       0.14168
                        -----------------------------------------
Total Dipole Moment    :     -1.35482       0.14686       0.12555
                        -----------------------------------------
Magnitude (a.u.)       :      1.36853
Magnitude (Debye)      :      3.47853



--------------------
Rotational spectrum 
--------------------
 
Rotational constants in cm-1:     0.060746     0.027928     0.023002 
Rotational constants in MHz :  1821.122945   837.271778   689.581824 

 Dipole components along the rotational axes: 
x,y,z [a.u.] :    -0.004315     1.359770    -0.154552 
x,y,z [Debye]:    -0.010967     3.456260    -0.392841 

 

                         *** MP2 UNRELAXED DENSITY ***

------------------------------------------------------------------------------
                       ORCA ELECTRIC PROPERTIES CALCULATION
------------------------------------------------------------------------------

Dipole Moment Calculation                       ... on
Quadrupole Moment Calculation                   ... off
Polarizability Calculation                      ... off
GBWName                                         ... 12h2o.su.etal.mol4,6,7,8,9,10-orca.engrad-mp2.def2tzvp.frozencore.gbw
Electron density file                           ... 12h2o.su.etal.mol4,6,7,8,9,10-orca.engrad-mp2.def2tzvp.frozencore.pmp2ur
The origin for moment calculation is the CENTER OF MASS  = ( 0.194012,  0.799670 -0.885512)

-------------
DIPOLE MOMENT
-------------
                                X             Y             Z
Electronic contribution:     -0.32730      -0.11353      -0.01766
Nuclear contribution   :     -1.02241       0.25725       0.14168
                        -----------------------------------------
Total Dipole Moment    :     -1.34971       0.14372       0.12402
                        -----------------------------------------
Magnitude (a.u.)       :      1.36299
Magnitude (Debye)      :      3.46445



--------------------
Rotational spectrum 
--------------------
 
Rotational constants in cm-1:     0.060746     0.027928     0.023002 
Rotational constants in MHz :  1821.122945   837.271778   689.581824 

 Dipole components along the rotational axes: 
x,y,z [a.u.] :    -0.003923     1.354574    -0.151207 
x,y,z [Debye]:    -0.009972     3.443054    -0.384338 

 

                           *** MP2 RELAXED DENSITY ***

------------------------------------------------------------------------------
                       ORCA ELECTRIC PROPERTIES CALCULATION
------------------------------------------------------------------------------

Dipole Moment Calculation                       ... on
Quadrupole Moment Calculation                   ... off
Polarizability Calculation                      ... off
GBWName                                         ... 12h2o.su.etal.mol4,6,7,8,9,10-orca.engrad-mp2.def2tzvp.frozencore.gbw
Electron density file                           ... 12h2o.su.etal.mol4,6,7,8,9,10-orca.engrad-mp2.def2tzvp.frozencore.pmp2re
The origin for moment calculation is the CENTER OF MASS  = ( 0.194012,  0.799670 -0.885512)

-------------
DIPOLE MOMENT
-------------
                                X             Y             Z
Electronic contribution:     -0.33936      -0.12829      -0.01728
Nuclear contribution   :     -1.02241       0.25725       0.14168
                        -----------------------------------------
Total Dipole Moment    :     -1.36176       0.12896       0.12441
                        -----------------------------------------
Magnitude (a.u.)       :      1.37350
Magnitude (Debye)      :      3.49116



--------------------
Rotational spectrum 
--------------------
 
Rotational constants in cm-1:     0.060746     0.027928     0.023002 
Rotational constants in MHz :  1821.122945   837.271778   689.581824 

 Dipole components along the rotational axes: 
x,y,z [a.u.] :     0.003436     1.366517    -0.138295 
x,y,z [Debye]:     0.008733     3.473410    -0.351517 

 

Timings for individual modules:

Sum of individual times         ...       61.591 sec (=   1.027 min)
GTO integral calculation        ...        0.955 sec (=   0.016 min)   1.6 %
SCF iterations                  ...       12.401 sec (=   0.207 min)  20.1 %
MP2 module                      ...       48.235 sec (=   0.804 min)  78.3 %
                             ****ORCA TERMINATED NORMALLY****
TOTAL RUN TIME: 0 days 0 hours 1 minutes 2 seconds 522 msec
