
                                 *****************
                                 * O   R   C   A *
                                 *****************

           --- An Ab Initio, DFT and Semiempirical electronic structure package ---

                  #######################################################
                  #                        -***-                        #
                  #          Department of theory and spectroscopy      #
                  #               Directorship: Frank Neese             #
                  #        Max Planck Institute fuer Kohlenforschung    #
                  #                Kaiser Wilhelm Platz 1               #
                  #                 D-45470 Muelheim/Ruhr               #
                  #                      Germany                        #
                  #                                                     #
                  #                  All rights reserved                #
                  #                        -***-                        #
                  #######################################################


                         Program Version 4.2.0 -  RELEASE  -


 With contributions from (in alphabetic order):
   Daniel Aravena         : Magnetic Suceptibility
   Michael Atanasov       : Ab Initio Ligand Field Theory (pilot matlab implementation)
   Alexander A. Auer      : GIAO ZORA, VPT2
   Ute Becker             : Parallelization
   Giovanni Bistoni       : ED, misc. LED, open-shell LED, HFLED
   Martin Brehm           : Molecular dynamics
   Dmytro Bykov           : SCF Hessian
   Vijay G. Chilkuri      : MRCI spin determinant printing, contributions to CSF-ICE
   Dipayan Datta          : RHF DLPNO-CCSD density
   Achintya Kumar Dutta   : EOM-CC, STEOM-CC
   Dmitry Ganyushin       : Spin-Orbit,Spin-Spin,Magnetic field MRCI
   Miquel Garcia          : C-PCM Hessian, Gaussian charge scheme
   Yang Guo               : DLPNO-NEVPT2, CIM, IAO-localization
   Andreas Hansen         : Spin unrestricted coupled pair/coupled cluster methods
   Benjamin Helmich-Paris : CASSCF linear response (MC-RPA)
   Lee Huntington         : MR-EOM, pCC
   Robert Izsak           : Overlap fitted RIJCOSX, COSX-SCS-MP3, EOM
   Christian Kollmar      : KDIIS, OOCD, Brueckner-CCSD(T), CCSD density
   Simone Kossmann        : Meta GGA functionals, TD-DFT gradient, OOMP2, MP2 Hessian
   Martin Krupicka        : AUTO-CI
   Lucas Lang             : DCDCAS
   Dagmar Lenk            : GEPOL surface, SMD
   Dimitrios Liakos       : Extrapolation schemes; Compound Job, initial MDCI parallelization
   Dimitrios Manganas     : Further ROCIS development; embedding schemes
   Dimitrios Pantazis     : SARC Basis sets
   Taras Petrenko         : DFT Hessian,TD-DFT gradient, ASA, ECA, R-Raman, ABS, FL, XAS/XES, NRVS
   Peter Pinski           : DLPNO-MP2, DLPNO-MP2 Gradient
   Christoph Reimann      : Effective Core Potentials
   Marius Retegan         : Local ZFS, SOC
   Christoph Riplinger    : Optimizer, TS searches, QM/MM, DLPNO-CCSD(T), (RO)-DLPNO pert. Triples
   Tobias Risthaus        : Range-separated hybrids, TD-DFT gradient, RPA, STAB
   Michael Roemelt        : Original ROCIS implementation
   Masaaki Saitow         : Open-shell DLPNO-CCSD energy and density
   Barbara Sandhoefer     : DKH picture change effects
   Avijit Sen             : IP-ROCIS
   Kantharuban Sivalingam : CASSCF convergence, NEVPT2, FIC-MRCI
   Bernardo de Souza      : ESD, SOC TD-DFT
   Georgi Stoychev        : AutoAux, RI-MP2 NMR
   Willem Van den Heuvel  : Paramagnetic NMR
   Boris Wezisla          : Elementary symmetry handling
   Frank Wennmohs         : Technical directorship


 We gratefully acknowledge several colleagues who have allowed us to
 interface, adapt or use parts of their codes:
   Stefan Grimme, W. Hujo, H. Kruse,             : VdW corrections, initial TS optimization,
                  C. Bannwarth                     DFT functionals, gCP, sTDA/sTD-DF
   Ed Valeev, F. Pavosevic, A. Kumar             : LibInt (2-el integral package), F12 methods
   Garnet Chan, S. Sharma, J. Yang, R. Olivares  : DMRG
   Ulf Ekstrom                                   : XCFun DFT Library
   Mihaly Kallay                                 : mrcc  (arbitrary order and MRCC methods)
   Andreas Klamt, Michael Diedenhofen            : otool_cosmo (COSMO solvation model)
   Jiri Pittner, Ondrej Demel                    : Mk-CCSD
   Frank Weinhold                                : gennbo (NPA and NBO analysis)
   Christopher J. Cramer and Donald G. Truhlar   : smd solvation model
   Lars Goerigk                                  : TD-DFT with DH, B97 family of functionals
   V. Asgeirsson, H. Jonsson                     : NEB implementation
   FAccTs GmbH                                   : IRC, NEB, NEB-TS, Multilevel, MM, QM/MM, CI optimization
   S Lehtola, MJT Oliveira, MAL Marques          : LibXC Library


 Your calculation uses the libint2 library for the computation of 2-el integrals
 For citations please refer to: http://libint.valeyev.net

 Your ORCA version has been built with support for libXC version: 4.2.3
 For citations please refer to: https://tddft.org/programs/libxc/

 This ORCA versions uses:
   CBLAS   interface :  Fast vector & matrix operations
   LAPACKE interface :  Fast linear algebra routines
   SCALAPACK package :  Parallel linear algebra routines


----- Orbital basis set information -----
Your calculation utilizes the basis: def2-TZVP
   F. Weigend and R. Ahlrichs, Phys. Chem. Chem. Phys. 7, 3297 (2005).

================================================================================
                                        WARNINGS
                       Please study these warnings very carefully!
================================================================================


WARNING: The frozen-core approximation for MP2-gradient calculations is turned on by default.

INFO   : the flag for use of LIBINT has been found!

================================================================================
                                       INPUT FILE
================================================================================
NAME = 12mecn.remya.etal.2.mol5,7,9-orca.engrad-mp2.def2tzvp.frozencore.inp
|  1> # 12mecn.remya.etal.2.mol5,7,9
|  2> ! MP2 def2-TZVP EnGrad TightSCF
|  3> 
|  4> %pal
|  5>     nprocs 6
|  6> end
|  7> 
|  8> %maxcore 8000
|  9> 
| 10> %scf
| 11>     ConvForced true
| 12> end
| 13> 
| 14> *xyz 0 1
| 15> C  -1.955700000   2.515080000   1.698463000
| 16> H  -2.923830000   2.883163000   2.049269000
| 17> H  -1.154850000   3.171830000   2.050990000
| 18> H  -1.790380000   1.506115000   2.087896000
| 19> C  -1.948230000   2.482156000   0.253672000
| 20> N  -1.937550000   2.462523000  -0.913150000
| 21> C   1.502241000   0.651296000   1.710523000
| 22> H   1.309219000   1.637164000   2.143202000
| 23> H   2.493408000   0.297996000   2.009069000
| 24> H   0.746597000  -0.059850000   2.055508000
| 25> C   1.447974000   0.738517000   0.269805000
| 26> N   1.405612000   0.808047000  -0.894380000
| 27> C   0.923766000   4.000693000  -1.575910000
| 28> H   0.011949000   4.478423000  -1.939550000
| 29> H   0.947903000   2.966558000  -1.929960000
| 30> H   1.805950000   4.519548000  -1.956520000
| 31> C   0.942834000   3.994846000  -0.131200000
| 32> N   0.960035000   3.982544000   1.035639000
| 33> *
| 34> 
| 35>                          ****END OF INPUT****
================================================================================

                     *******************************
                     * Energy+Gradient Calculation *
                     *******************************

---------------------------------
CARTESIAN COORDINATES (ANGSTROEM)
---------------------------------
  C     -1.955700    2.515080    1.698463
  H     -2.923830    2.883163    2.049269
  H     -1.154850    3.171830    2.050990
  H     -1.790380    1.506115    2.087896
  C     -1.948230    2.482156    0.253672
  N     -1.937550    2.462523   -0.913150
  C      1.502241    0.651296    1.710523
  H      1.309219    1.637164    2.143202
  H      2.493408    0.297996    2.009069
  H      0.746597   -0.059850    2.055508
  C      1.447974    0.738517    0.269805
  N      1.405612    0.808047   -0.894380
  C      0.923766    4.000693   -1.575910
  H      0.011949    4.478423   -1.939550
  H      0.947903    2.966558   -1.929960
  H      1.805950    4.519548   -1.956520
  C      0.942834    3.994846   -0.131200
  N      0.960035    3.982544    1.035639

----------------------------
CARTESIAN COORDINATES (A.U.)
----------------------------
  NO LB      ZA    FRAG     MASS         X           Y           Z
   0 C     6.0000    0    12.011   -3.695737    4.752812    3.209630
   1 H     1.0000    0     1.008   -5.525238    5.448388    3.872557
   2 H     1.0000    0     1.008   -2.182350    5.993890    3.875809
   3 H     1.0000    0     1.008   -3.383328    2.846145    3.945552
   4 C     6.0000    0    12.011   -3.681621    4.690595    0.479371
   5 N     7.0000    0    14.007   -3.661439    4.653494   -1.725603
   6 C     6.0000    0    12.011    2.838824    1.230771    3.232420
   7 H     1.0000    0     1.008    2.474065    3.093792    4.050065
   8 H     1.0000    0     1.008    4.711858    0.563131    3.796590
   9 H     1.0000    0     1.008    1.410864   -0.113100    3.884347
  10 C     6.0000    0    12.011    2.736274    1.395595    0.509858
  11 N     7.0000    0    14.007    2.656222    1.526988   -1.690133
  12 C     6.0000    0    12.011    1.745665    7.560214   -2.978038
  13 H     1.0000    0     1.008    0.022580    8.462993   -3.665218
  14 H     1.0000    0     1.008    1.791277    5.605982   -3.647096
  15 H     1.0000    0     1.008    3.412751    8.540708   -3.697287
  16 C     6.0000    0    12.011    1.781698    7.549165   -0.247932
  17 N     7.0000    0    14.007    1.814203    7.525917    1.957074

--------------------------------
INTERNAL COORDINATES (ANGSTROEM)
--------------------------------
 C      0   0   0     0.000000000000     0.00000000     0.00000000
 H      1   0   0     1.093538129845     0.00000000     0.00000000
 H      1   2   0     1.094055104064   110.03720822     0.00000000
 H      1   2   3     1.094074556470   109.26890953   119.84628146
 C      1   2   3     1.445185394459   109.44828841   239.76279971
 N      5   1   2     1.167036030623   179.58931694   103.32135777
 C      4   1   2     3.422642101291   109.66037449   194.63763705
 H      7   4   1     1.093802689222    63.99250012    47.70531260
 H      7   4   1     1.093783628514   157.26989584   127.52823072
 H      7   4   1     1.093499491667    57.51074760   187.03164997
 C      7   4   1     1.444375562537    93.36822762   297.64440640
 N     11   7   4     1.167028566132   179.91347457   197.68323012
 C     12  11   7     3.299946543496   105.60274867   229.32363354
 H     13  12  11     1.091728099844   127.88707385   252.90176912
 H     13  12  11     1.093329408501    31.63054775   191.54508597
 H     13  12  11     1.091935480228   114.43998318   105.57391644
 C     13  12  11     1.444847659836    77.73988840   359.12327057
 N     17  13  12     1.167030618933   179.61752891     4.93048756

---------------------------
INTERNAL COORDINATES (A.U.)
---------------------------
 C      0   0   0     0.000000000000     0.00000000     0.00000000
 H      1   0   0     2.066487582408     0.00000000     0.00000000
 H      1   2   0     2.067464522100   110.03720822     0.00000000
 H      1   2   3     2.067501281819   109.26890953   119.84628146
 C      1   2   3     2.731004608270   109.44828841   239.76279971
 N      5   1   2     2.205378486297   179.58931694   103.32135777
 C      4   1   2     6.467856225869   109.66037449   194.63763705
 H      7   4   1     2.066987527176    63.99250012    47.70531260
 H      7   4   1     2.066951507658   157.26989584   127.52823072
 H      7   4   1     2.066414566834    57.51074760   187.03164997
 C      7   4   1     2.729474247723    93.36822762   297.64440640
 N     11   7   4     2.205364380453   179.91347457   197.68323012
 C     12  11   7     6.235995223788   105.60274867   229.32363354
 H     13  12  11     2.063067121411   127.88707385   252.90176912
 H     13  12  11     2.066093156230    31.63054775   191.54508597
 H     13  12  11     2.063459013543   114.43998318   105.57391644
 C     13  12  11     2.730366382327    77.73988840   359.12327057
 N     17  13  12     2.205368259683   179.61752891     4.93048756

---------------------
BASIS SET INFORMATION
---------------------
There are 3 groups of distinct atoms

 Group   1 Type C   : 11s6p2d1f contracted to 5s3p2d1f pattern {62111/411/11/1}
 Group   2 Type H   : 5s1p contracted to 3s1p pattern {311/1}
 Group   3 Type N   : 11s6p2d1f contracted to 5s3p2d1f pattern {62111/411/11/1}

Atom   0C    basis set group =>   1
Atom   1H    basis set group =>   2
Atom   2H    basis set group =>   2
Atom   3H    basis set group =>   2
Atom   4C    basis set group =>   1
Atom   5N    basis set group =>   3
Atom   6C    basis set group =>   1
Atom   7H    basis set group =>   2
Atom   8H    basis set group =>   2
Atom   9H    basis set group =>   2
Atom  10C    basis set group =>   1
Atom  11N    basis set group =>   3
Atom  12C    basis set group =>   1
Atom  13H    basis set group =>   2
Atom  14H    basis set group =>   2
Atom  15H    basis set group =>   2
Atom  16C    basis set group =>   1
Atom  17N    basis set group =>   3


           ************************************************************
           *        Program running with 6 parallel MPI-processes     *
           *              working on a common directory               *
           ************************************************************
------------------------------------------------------------------------------
                           ORCA GTO INTEGRAL CALCULATION
------------------------------------------------------------------------------

                         BASIS SET STATISTICS AND STARTUP INFO

 # of primitive gaussian shells          ...  234
 # of primitive gaussian functions       ...  486
 # of contracted shells                  ...  135
 # of contracted basis functions         ...  333
 Highest angular momentum                ...    3
 Maximum contraction depth               ...    6
 Integral package used                   ... LIBINT
 Integral threshhold            Thresh   ...  2.500e-11
 Primitive cut-off              TCut     ...  2.500e-12


------------------------------ INTEGRAL EVALUATION ----------------------------


 * One electron integrals 
 Pre-screening matrix                    ... done
 Shell pair data                         ... done (   0.002 sec)



           ************************************************************
           *        Program running with 6 parallel MPI-processes     *
           *              working on a common directory               *
           ************************************************************
-------------------------------------------------------------------------------
                                 ORCA SCF
-------------------------------------------------------------------------------

------------
SCF SETTINGS
------------
Hamiltonian:
 Ab initio Hamiltonian  Method          .... Hartree-Fock(GTOs)


General Settings:
 Integral files         IntName         .... 12mecn.remya.etal.2.mol5,7,9-orca.engrad-mp2.def2tzvp.frozencore
 Hartree-Fock type      HFTyp           .... RHF
 Total Charge           Charge          ....    0
 Multiplicity           Mult            ....    1
 Number of Electrons    NEL             ....   66
 Basis Dimension        Dim             ....  333
 Nuclear Repulsion      ENuc            ....    376.3210088287 Eh

Convergence Acceleration:
 DIIS                   CNVDIIS         .... on
   Start iteration      DIISMaxIt       ....    12
   Startup error        DIISStart       ....  0.200000
   # of expansion vecs  DIISMaxEq       ....     5
   Bias factor          DIISBfac        ....   1.050
   Max. coefficient     DIISMaxC        ....  10.000
 Newton-Raphson         CNVNR           .... off
 SOSCF                  CNVSOSCF        .... on
   Start iteration      SOSCFMaxIt      ....   150
   Startup grad/error   SOSCFStart      ....  0.003300
 Level Shifting         CNVShift        .... on
   Level shift para.    LevelShift      ....    0.2500
   Turn off err/grad.   ShiftErr        ....    0.0010
 Zerner damping         CNVZerner       .... off
 Static damping         CNVDamp         .... on
   Fraction old density DampFac         ....    0.7000
   Max. Damping (<1)    DampMax         ....    0.9800
   Min. Damping (>=0)   DampMin         ....    0.0000
   Turn off err/grad.   DampErr         ....    0.1000
 Fernandez-Rico         CNVRico         .... off

SCF Procedure:
 Maximum # iterations   MaxIter         ....   125
 SCF integral mode      SCFMode         .... Direct
   Integral package                     .... LIBINT
 Reset frequency        DirectResetFreq ....    20
 Integral Threshold     Thresh          ....  2.500e-11 Eh
 Primitive CutOff       TCut            ....  2.500e-12 Eh

Convergence Tolerance:
 Convergence Check Mode ConvCheckMode   .... Total+1el-Energy
 Convergence forced     ConvForced      .... 1
 Energy Change          TolE            ....  1.000e-08 Eh
 1-El. energy change                    ....  1.000e-05 Eh
 Orbital Gradient       TolG            ....  1.000e-05
 Orbital Rotation angle TolX            ....  1.000e-05
 DIIS Error             TolErr          ....  5.000e-07


Diagonalization of the overlap matrix:
Smallest eigenvalue                        ... 1.422e-04
Time for diagonalization                   ...    0.467 sec
Threshold for overlap eigenvalues          ... 1.000e-08
Number of eigenvalues below threshold      ... 0
Time for construction of square roots      ...    0.009 sec
Total time needed                          ...    0.476 sec

-------------------
DFT GRID GENERATION
-------------------

General Integration Accuracy     IntAcc      ...  4.340
Radial Grid Type                 RadialGrid  ... Gauss-Chebyshev
Angular Grid (max. acc.)         AngularGrid ... Lebedev-110
Angular grid pruning method      GridPruning ... 3 (G Style)
Weight generation scheme         WeightScheme... Becke
Basis function cutoff            BFCut       ...    1.0000e-11
Integration weight cutoff        WCut        ...    1.0000e-14
Grids for H and He will be reduced by one unit

# of grid points (after initial pruning)     ...  22188 (   0.0 sec)
# of grid points (after weights+screening)   ...  20566 (   0.0 sec)
nearest neighbour list constructed           ...    0.0 sec
Grid point re-assignment to atoms done       ...    0.0 sec
Grid point division into batches done        ...    0.0 sec
Reduced shell lists constructed in    0.0 sec

Total number of grid points                  ...    20566
Total number of batches                      ...      332
Average number of points per batch           ...       61
Average number of grid points per atom       ...     1143
Average number of shells per batch           ...    76.37 (56.57%)
Average number of basis functions per batch  ...   184.58 (55.43%)
Average number of large shells per batch     ...    56.09 (73.44%)
Average number of large basis fcns per batch ...   130.23 (70.55%)
Maximum spatial batch extension              ...  14.23, 20.92, 19.63 au
Average spatial batch extension              ...   0.59,  0.72,  0.81 au

Time for grid setup =    0.114 sec

------------------------------
INITIAL GUESS: MODEL POTENTIAL
------------------------------
Loading Hartree-Fock densities                     ... done
Calculating cut-offs                               ... done
Setting up the integral package                    ... done
Initializing the effective Hamiltonian             ... done
Starting the Coulomb interaction                   ... done (   0.0 sec)
Reading the grid                                   ... done
Mapping shells                                     ... done
Starting the XC term evaluation                    ... done (   0.1 sec)
Transforming the Hamiltonian                       ... done (   0.0 sec)
Diagonalizing the Hamiltonian                      ... done (   0.0 sec)
Back transforming the eigenvectors                 ... done (   0.0 sec)
Now organizing SCF variables                       ... done
                      ------------------
                      INITIAL GUESS DONE (   0.3 sec)
                      ------------------
--------------
SCF ITERATIONS
--------------
ITER       Energy         Delta-E        Max-DP      RMS-DP      [F,P]     Damp
               ***  Starting incremental Fock matrix formation  ***
  0   -395.4538389606   0.000000000000 0.03718539  0.00085567  0.2753265 0.7000
  1   -395.6224994205  -0.168660459911 0.02661932  0.00067668  0.1879159 0.7000
                               ***Turning on DIIS***
  2   -395.7218832494  -0.099383828945 0.01588501  0.00045881  0.1419556 0.7000
  3   -396.6896357907  -0.967752541236 0.01142722  0.00031253  0.1053960 0.7000
  4   -396.6306721135   0.058963677171 0.03042522  0.00076650  0.0742730 0.0000
  5   -395.9552600603   0.675412053171 0.00537426  0.00010984  0.0060916 0.0000
                      *** Initiating the SOSCF procedure ***
                           *** Shutting down DIIS ***
                      *** Re-Reading the Fockian *** 
                      *** Removing any level shift *** 
ITER      Energy       Delta-E        Grad      Rot      Max-DP    RMS-DP
  6   -395.93645541   0.0188046491  0.001077  0.001077  0.003724  0.000066
               *** Restarting incremental Fock matrix formation ***
  7   -395.92744239   0.0090130196  0.000382  0.000612  0.002471  0.000046
  8   -395.92746176  -0.0000193695  0.000309  0.000433  0.002143  0.000039
  9   -395.92746664  -0.0000048830  0.000120  0.000138  0.000664  0.000011
 10   -395.92746727  -0.0000006290  0.000020  0.000036  0.000098  0.000002
 11   -395.92746731  -0.0000000344  0.000015  0.000050  0.000035  0.000001
 12   -395.92746733  -0.0000000207  0.000006  0.000019  0.000035  0.000001
                  ***Gradient check signals convergence***
              ***Rediagonalizing the Fockian in SOSCF/NRSCF***

               *****************************************************
               *                     SUCCESS                       *
               *           SCF CONVERGED AFTER  13 CYCLES          *
               *****************************************************


----------------
TOTAL SCF ENERGY
----------------

Total Energy       :         -395.92746733 Eh          -10773.73411 eV

Components:
Nuclear Repulsion  :          376.32100883 Eh           10240.21525 eV
Electronic Energy  :         -772.24847616 Eh          -21013.94936 eV
One Electron Energy:        -1281.83007529 Eh          -34880.36963 eV
Two Electron Energy:          509.58159913 Eh           13866.42027 eV

Virial components:
Potential Energy   :         -791.11688841 Eh          -21527.38496 eV
Kinetic Energy     :          395.18942107 Eh           10753.65085 eV
Virial Ratio       :            2.00186758


---------------
SCF CONVERGENCE
---------------

  Last Energy change         ...   -3.8892e-09  Tolerance :   1.0000e-08
  Last MAX-Density change    ...    1.3653e-05  Tolerance :   1.0000e-07
  Last RMS-Density change    ...    2.4781e-07  Tolerance :   5.0000e-09
  Last Orbital Gradient      ...    2.0797e-06  Tolerance :   1.0000e-05
  Last Orbital Rotation      ...    6.3461e-06  Tolerance :   1.0000e-05

             **** THE GBW FILE WAS UPDATED (12mecn.remya.etal.2.mol5,7,9-orca.engrad-mp2.def2tzvp.frozencore.gbw) ****
             **** DENSITY FILE WAS UPDATED (12mecn.remya.etal.2.mol5,7,9-orca.engrad-mp2.def2tzvp.frozencore.scfp) ****
             **** ENERGY FILE WAS UPDATED (12mecn.remya.etal.2.mol5,7,9-orca.engrad-mp2.def2tzvp.frozencore.en.tmp) ****
             **** THE GBW FILE WAS UPDATED (12mecn.remya.etal.2.mol5,7,9-orca.engrad-mp2.def2tzvp.frozencore.gbw) ****
             **** DENSITY FILE WAS UPDATED (12mecn.remya.etal.2.mol5,7,9-orca.engrad-mp2.def2tzvp.frozencore.scfp) ****
----------------
ORBITAL ENERGIES
----------------

  NO   OCC          E(Eh)            E(eV) 
   0   2.0000     -15.570943      -423.7069 
   1   2.0000     -15.568896      -423.6512 
   2   2.0000     -15.568321      -423.6356 
   3   2.0000     -11.284606      -307.0697 
   4   2.0000     -11.281182      -306.9766 
   5   2.0000     -11.278814      -306.9121 
   6   2.0000     -11.278205      -306.8956 
   7   2.0000     -11.275790      -306.8298 
   8   2.0000     -11.260054      -306.4016 
   9   2.0000      -1.218403       -33.1544 
  10   2.0000      -1.213502       -33.0211 
  11   2.0000      -1.211152       -32.9571 
  12   2.0000      -1.041179       -28.3319 
  13   2.0000      -1.037063       -28.2199 
  14   2.0000      -1.026627       -27.9359 
  15   2.0000      -0.697359       -18.9761 
  16   2.0000      -0.693426       -18.8691 
  17   2.0000      -0.685416       -18.6511 
  18   2.0000      -0.636803       -17.3283 
  19   2.0000      -0.631052       -17.1718 
  20   2.0000      -0.627175       -17.0663 
  21   2.0000      -0.621550       -16.9132 
  22   2.0000      -0.611715       -16.6456 
  23   2.0000      -0.609659       -16.5897 
  24   2.0000      -0.559188       -15.2163 
  25   2.0000      -0.554489       -15.0884 
  26   2.0000      -0.553144       -15.0518 
  27   2.0000      -0.464509       -12.6399 
  28   2.0000      -0.460019       -12.5177 
  29   2.0000      -0.458284       -12.4705 
  30   2.0000      -0.453796       -12.3484 
  31   2.0000      -0.452574       -12.3152 
  32   2.0000      -0.448484       -12.2039 
  33   0.0000       0.111942         3.0461 
  34   0.0000       0.148312         4.0358 
  35   0.0000       0.155241         4.2243 
  36   0.0000       0.160110         4.3568 
  37   0.0000       0.165507         4.5037 
  38   0.0000       0.176938         4.8147 
  39   0.0000       0.187548         5.1034 
  40   0.0000       0.189336         5.1521 
  41   0.0000       0.198788         5.4093 
  42   0.0000       0.204237         5.5576 
  43   0.0000       0.210017         5.7148 
  44   0.0000       0.220093         5.9890 
  45   0.0000       0.224170         6.1000 
  46   0.0000       0.240172         6.5354 
  47   0.0000       0.250269         6.8102 
  48   0.0000       0.257345         7.0027 
  49   0.0000       0.268245         7.2993 
  50   0.0000       0.280002         7.6192 
  51   0.0000       0.290258         7.8983 
  52   0.0000       0.304486         8.2855 
  53   0.0000       0.310763         8.4563 
  54   0.0000       0.317388         8.6366 
  55   0.0000       0.334842         9.1115 
  56   0.0000       0.339531         9.2391 
  57   0.0000       0.351694         9.5701 
  58   0.0000       0.369867        10.0646 
  59   0.0000       0.383534        10.4365 
  60   0.0000       0.400748        10.9049 
  61   0.0000       0.416277        11.3275 
  62   0.0000       0.452349        12.3090 
  63   0.0000       0.456905        12.4330 
  64   0.0000       0.466680        12.6990 
  65   0.0000       0.475824        12.9478 
  66   0.0000       0.491828        13.3833 
  67   0.0000       0.502541        13.6748 
  68   0.0000       0.511554        13.9201 
  69   0.0000       0.530610        14.4386 
  70   0.0000       0.539291        14.6749 
  71   0.0000       0.543396        14.7866 
  72   0.0000       0.555796        15.1240 
  73   0.0000       0.566172        15.4063 
  74   0.0000       0.570285        15.5182 
  75   0.0000       0.598854        16.2956 
  76   0.0000       0.601533        16.3685 
  77   0.0000       0.610406        16.6100 
  78   0.0000       0.623922        16.9778 
  79   0.0000       0.633376        17.2350 
  80   0.0000       0.638812        17.3830 
  81   0.0000       0.644546        17.5390 
  82   0.0000       0.654822        17.8186 
  83   0.0000       0.661665        18.0048 
  84   0.0000       0.681532        18.5454 
  85   0.0000       0.701044        19.0764 
  86   0.0000       0.721892        19.6437 
  87   0.0000       0.727427        19.7943 
  88   0.0000       0.734953        19.9991 
  89   0.0000       0.755641        20.5620 
  90   0.0000       0.765078        20.8188 
  91   0.0000       0.789869        21.4934 
  92   0.0000       0.798845        21.7377 
  93   0.0000       0.811823        22.0908 
  94   0.0000       0.825773        22.4704 
  95   0.0000       0.834638        22.7117 
  96   0.0000       0.846125        23.0242 
  97   0.0000       0.890585        24.2341 
  98   0.0000       0.898428        24.4475 
  99   0.0000       0.915935        24.9239 
 100   0.0000       0.926543        25.2125 
 101   0.0000       0.927843        25.2479 
 102   0.0000       0.949847        25.8467 
 103   0.0000       0.957180        26.0462 
 104   0.0000       0.981154        26.6986 
 105   0.0000       0.998505        27.1707 
 106   0.0000       1.031021        28.0555 
 107   0.0000       1.056389        28.7458 
 108   0.0000       1.077669        29.3249 
 109   0.0000       1.089545        29.6480 
 110   0.0000       1.124033        30.5865 
 111   0.0000       1.138660        30.9845 
 112   0.0000       1.154068        31.4038 
 113   0.0000       1.168882        31.8069 
 114   0.0000       1.182230        32.1701 
 115   0.0000       1.199865        32.6500 
 116   0.0000       1.228317        33.4242 
 117   0.0000       1.336638        36.3718 
 118   0.0000       1.338001        36.4089 
 119   0.0000       1.345860        36.6227 
 120   0.0000       1.388806        37.7913 
 121   0.0000       1.409202        38.3463 
 122   0.0000       1.421236        38.6738 
 123   0.0000       1.442486        39.2520 
 124   0.0000       1.448533        39.4166 
 125   0.0000       1.456763        39.6405 
 126   0.0000       1.463950        39.8361 
 127   0.0000       1.473001        40.0824 
 128   0.0000       1.483705        40.3737 
 129   0.0000       1.489898        40.5422 
 130   0.0000       1.496023        40.7088 
 131   0.0000       1.504130        40.9295 
 132   0.0000       1.523831        41.4656 
 133   0.0000       1.527364        41.5617 
 134   0.0000       1.534004        41.7424 
 135   0.0000       1.548683        42.1418 
 136   0.0000       1.596197        43.4347 
 137   0.0000       1.620841        44.1053 
 138   0.0000       1.723944        46.9109 
 139   0.0000       1.726583        46.9827 
 140   0.0000       1.735436        47.2236 
 141   0.0000       1.750749        47.6403 
 142   0.0000       1.752919        47.6993 
 143   0.0000       1.762514        47.9605 
 144   0.0000       1.780047        48.4375 
 145   0.0000       1.784060        48.5467 
 146   0.0000       1.801184        49.0127 
 147   0.0000       1.806957        49.1698 
 148   0.0000       1.816610        49.4325 
 149   0.0000       1.817676        49.4615 
 150   0.0000       1.845786        50.2264 
 151   0.0000       1.854994        50.4769 
 152   0.0000       1.860854        50.6364 
 153   0.0000       1.879520        51.1443 
 154   0.0000       1.925103        52.3847 
 155   0.0000       1.937342        52.7177 
 156   0.0000       1.947623        52.9975 
 157   0.0000       1.966409        53.5087 
 158   0.0000       1.974653        53.7330 
 159   0.0000       1.990693        54.1695 
 160   0.0000       1.993366        54.2423 
 161   0.0000       2.012929        54.7746 
 162   0.0000       2.029575        55.2275 
 163   0.0000       2.045808        55.6693 
 164   0.0000       2.061582        56.0985 
 165   0.0000       2.221688        60.4552 
 166   0.0000       2.236859        60.8680 
 167   0.0000       2.243852        61.0583 
 168   0.0000       2.247651        61.1617 
 169   0.0000       2.270818        61.7921 
 170   0.0000       2.279065        62.0165 
 171   0.0000       2.291624        62.3583 
 172   0.0000       2.307185        62.7817 
 173   0.0000       2.345905        63.8353 
 174   0.0000       2.402040        65.3628 
 175   0.0000       2.435483        66.2729 
 176   0.0000       2.443077        66.4795 
 177   0.0000       2.542300        69.1795 
 178   0.0000       2.555203        69.5306 
 179   0.0000       2.582772        70.2808 
 180   0.0000       2.585032        70.3423 
 181   0.0000       2.595139        70.6173 
 182   0.0000       2.607017        70.9405 
 183   0.0000       2.617867        71.2358 
 184   0.0000       2.624696        71.4216 
 185   0.0000       2.634656        71.6926 
 186   0.0000       2.648540        72.0704 
 187   0.0000       2.652925        72.1898 
 188   0.0000       2.668840        72.6228 
 189   0.0000       2.677723        72.8645 
 190   0.0000       2.694865        73.3310 
 191   0.0000       2.706600        73.6503 
 192   0.0000       2.726315        74.1868 
 193   0.0000       2.750013        74.8316 
 194   0.0000       2.751057        74.8601 
 195   0.0000       2.759980        75.1029 
 196   0.0000       2.769916        75.3732 
 197   0.0000       2.778272        75.6006 
 198   0.0000       2.793466        76.0141 
 199   0.0000       2.827072        76.9286 
 200   0.0000       2.853917        77.6590 
 201   0.0000       2.913906        79.2914 
 202   0.0000       2.915293        79.3291 
 203   0.0000       2.917768        79.3965 
 204   0.0000       2.919215        79.4359 
 205   0.0000       2.919854        79.4533 
 206   0.0000       2.925636        79.6106 
 207   0.0000       2.946531        80.1792 
 208   0.0000       2.965001        80.6818 
 209   0.0000       2.966108        80.7119 
 210   0.0000       2.972640        80.8896 
 211   0.0000       2.993345        81.4531 
 212   0.0000       3.019885        82.1752 
 213   0.0000       3.032287        82.5127 
 214   0.0000       3.057981        83.2119 
 215   0.0000       3.062338        83.3305 
 216   0.0000       3.097033        84.2745 
 217   0.0000       3.105450        84.5036 
 218   0.0000       3.108515        84.5870 
 219   0.0000       3.124771        85.0294 
 220   0.0000       3.135495        85.3211 
 221   0.0000       3.151198        85.7485 
 222   0.0000       3.217334        87.5481 
 223   0.0000       3.228835        87.8611 
 224   0.0000       3.247529        88.3697 
 225   0.0000       3.260747        88.7294 
 226   0.0000       3.271708        89.0277 
 227   0.0000       3.283071        89.3369 
 228   0.0000       3.311018        90.0974 
 229   0.0000       3.319572        90.3302 
 230   0.0000       3.324219        90.4566 
 231   0.0000       3.330225        90.6200 
 232   0.0000       3.357298        91.3567 
 233   0.0000       3.373262        91.7911 
 234   0.0000       3.392860        92.3244 
 235   0.0000       3.414398        92.9105 
 236   0.0000       3.445361        93.7530 
 237   0.0000       3.460892        94.1757 
 238   0.0000       3.465160        94.2918 
 239   0.0000       3.483439        94.7892 
 240   0.0000       3.486281        94.8665 
 241   0.0000       3.494738        95.0967 
 242   0.0000       3.535993        96.2193 
 243   0.0000       3.555296        96.7445 
 244   0.0000       3.586054        97.5815 
 245   0.0000       3.603244        98.0493 
 246   0.0000       3.655192        99.4628 
 247   0.0000       3.668993        99.8384 
 248   0.0000       3.671165        99.8975 
 249   0.0000       3.676852       100.0522 
 250   0.0000       3.685461       100.2865 
 251   0.0000       3.695053       100.5475 
 252   0.0000       3.802696       103.4766 
 253   0.0000       3.807527       103.6081 
 254   0.0000       3.813538       103.7716 
 255   0.0000       3.822050       104.0033 
 256   0.0000       3.836118       104.3861 
 257   0.0000       3.871862       105.3587 
 258   0.0000       3.939710       107.2050 
 259   0.0000       3.945841       107.3718 
 260   0.0000       3.951870       107.5359 
 261   0.0000       3.960712       107.7765 
 262   0.0000       3.967363       107.9574 
 263   0.0000       3.968981       108.0015 
 264   0.0000       3.982941       108.3813 
 265   0.0000       4.002478       108.9130 
 266   0.0000       4.020163       109.3942 
 267   0.0000       4.248033       115.5949 
 268   0.0000       4.253480       115.7431 
 269   0.0000       4.258137       115.8698 
 270   0.0000       4.273400       116.2851 
 271   0.0000       4.298312       116.9630 
 272   0.0000       4.313830       117.3853 
 273   0.0000       4.343170       118.1837 
 274   0.0000       4.346868       118.2843 
 275   0.0000       4.347435       118.2997 
 276   0.0000       4.350502       118.3832 
 277   0.0000       4.354912       118.5032 
 278   0.0000       4.358277       118.5948 
 279   0.0000       4.583963       124.7360 
 280   0.0000       4.589010       124.8733 
 281   0.0000       4.597965       125.1170 
 282   0.0000       4.748486       129.2129 
 283   0.0000       4.759004       129.4991 
 284   0.0000       4.763729       129.6277 
 285   0.0000       4.780036       130.0714 
 286   0.0000       4.790967       130.3688 
 287   0.0000       4.822371       131.2234 
 288   0.0000       4.853088       132.0592 
 289   0.0000       4.878688       132.7558 
 290   0.0000       4.884336       132.9096 
 291   0.0000       4.967079       135.1611 
 292   0.0000       4.972252       135.3019 
 293   0.0000       4.977880       135.4550 
 294   0.0000       4.990657       135.8027 
 295   0.0000       5.016462       136.5049 
 296   0.0000       5.022439       136.6675 
 297   0.0000       5.065252       137.8325 
 298   0.0000       5.075454       138.1101 
 299   0.0000       5.083943       138.3411 
 300   0.0000       5.088368       138.4615 
 301   0.0000       5.112115       139.1077 
 302   0.0000       5.127639       139.5302 
 303   0.0000       5.212530       141.8402 
 304   0.0000       5.241425       142.6264 
 305   0.0000       5.253205       142.9470 
 306   0.0000       5.558516       151.2549 
 307   0.0000       5.574398       151.6871 
 308   0.0000       5.578593       151.8012 
 309   0.0000       5.591168       152.1434 
 310   0.0000       5.609994       152.6557 
 311   0.0000       5.623127       153.0131 
 312   0.0000       6.024756       163.9420 
 313   0.0000       6.027468       164.0158 
 314   0.0000       6.040833       164.3794 
 315   0.0000       6.084165       165.5585 
 316   0.0000       6.090475       165.7302 
 317   0.0000       6.110135       166.2652 
 318   0.0000       6.117368       166.4620 
 319   0.0000       6.161389       167.6599 
 320   0.0000       6.192157       168.4972 
 321   0.0000       6.472059       176.1137 
 322   0.0000       6.482271       176.3916 
 323   0.0000       6.496506       176.7789 
 324   0.0000      23.486750       639.1070 
 325   0.0000      23.533160       640.3698 
 326   0.0000      23.540962       640.5822 
 327   0.0000      24.382784       663.4893 
 328   0.0000      24.413657       664.3294 
 329   0.0000      24.421441       664.5412 
 330   0.0000      33.469505       910.7515 
 331   0.0000      33.505172       911.7221 
 332   0.0000      33.510554       911.8685 

                    ********************************
                    * MULLIKEN POPULATION ANALYSIS *
                    ********************************

-----------------------
MULLIKEN ATOMIC CHARGES
-----------------------
   0 C :   -0.190316
   1 H :    0.160607
   2 H :    0.195572
   3 H :    0.138816
   4 C :   -0.083001
   5 N :   -0.222533
   6 C :   -0.188871
   7 H :    0.189069
   8 H :    0.161140
   9 H :    0.146912
  10 C :   -0.065097
  11 N :   -0.242170
  12 C :   -0.158699
  13 H :    0.157300
  14 H :    0.202683
  15 H :    0.149168
  16 C :   -0.033807
  17 N :   -0.316773
Sum of atomic charges:    0.0000000

--------------------------------
MULLIKEN REDUCED ORBITAL CHARGES
--------------------------------
  0 C s       :     3.158215  s :     3.158215
      pz      :     0.782703  p :     2.966036
      px      :     1.105313
      py      :     1.078020
      dz2     :     0.017856  d :     0.062584
      dxz     :     0.011253
      dyz     :     0.011314
      dx2y2   :     0.011267
      dxy     :     0.010895
      f0      :     0.001732  f :     0.003481
      f+1     :     0.000208
      f-1     :     0.000202
      f+2     :     0.000069
      f-2     :     0.000059
      f+3     :     0.000266
      f-3     :     0.000946
  1 H s       :     0.817088  s :     0.817088
      pz      :     0.004714  p :     0.022305
      px      :     0.012574
      py      :     0.005018
  2 H s       :     0.781229  s :     0.781229
      pz      :     0.004540  p :     0.023199
      px      :     0.010621
      py      :     0.008037
  3 H s       :     0.838941  s :     0.838941
      pz      :     0.005059  p :     0.022243
      px      :     0.004001
      py      :     0.013183
  4 C s       :     3.247739  s :     3.247739
      pz      :     0.955757  p :     2.701647
      px      :     0.869384
      py      :     0.876506
      dz2     :     0.026529  d :     0.116198
      dxz     :     0.044479
      dyz     :     0.044350
      dx2y2   :     0.000331
      dxy     :     0.000508
      f0      :     0.004086  f :     0.017417
      f+1     :     0.006658
      f-1     :     0.006597
      f+2     :     0.000029
      f-2     :     0.000042
      f+3     :     0.000001
      f-3     :     0.000005
  5 N s       :     3.728736  s :     3.728736
      pz      :     1.281299  p :     3.436617
      px      :     1.078823
      py      :     1.076495
      dz2     :     0.011416  d :     0.054240
      dxz     :     0.021321
      dyz     :     0.021416
      dx2y2   :     0.000033
      dxy     :     0.000054
      f0      :     0.000618  f :     0.002940
      f+1     :     0.001157
      f-1     :     0.001162
      f+2     :     0.000001
      f-2     :     0.000001
      f+3     :     0.000000
      f-3     :     0.000001
  6 C s       :     3.157180  s :     3.157180
      pz      :     0.786514  p :     2.965694
      px      :     1.086439
      py      :     1.092741
      dz2     :     0.017959  d :     0.062525
      dxz     :     0.009813
      dyz     :     0.012621
      dx2y2   :     0.010154
      dxy     :     0.011978
      f0      :     0.001675  f :     0.003473
      f+1     :     0.000210
      f-1     :     0.000229
      f+2     :     0.000084
      f-2     :     0.000057
      f+3     :     0.000396
      f-3     :     0.000822
  7 H s       :     0.788069  s :     0.788069
      pz      :     0.005175  p :     0.022862
      px      :     0.003885
      py      :     0.013801
  8 H s       :     0.816451  s :     0.816451
      pz      :     0.004379  p :     0.022410
      px      :     0.013146
      py      :     0.004885
  9 H s       :     0.830881  s :     0.830881
      pz      :     0.004721  p :     0.022206
      px      :     0.008982
      py      :     0.008503
 10 C s       :     3.248163  s :     3.248163
      pz      :     0.950138  p :     2.684853
      px      :     0.876506
      py      :     0.858209
      dz2     :     0.026006  d :     0.114615
      dxz     :     0.042979
      dyz     :     0.044403
      dx2y2   :     0.000523
      dxy     :     0.000705
      f0      :     0.004171  f :     0.017466
      f+1     :     0.006487
      f-1     :     0.006584
      f+2     :     0.000094
      f-2     :     0.000125
      f+3     :     0.000002
      f-3     :     0.000004
 11 N s       :     3.744104  s :     3.744104
      pz      :     1.273859  p :     3.441444
      px      :     1.074944
      py      :     1.092641
      dz2     :     0.011368  d :     0.053679
      dxz     :     0.021032
      dyz     :     0.021040
      dx2y2   :     0.000157
      dxy     :     0.000082
      f0      :     0.000635  f :     0.002944
      f+1     :     0.001147
      f-1     :     0.001129
      f+2     :     0.000016
      f-2     :     0.000015
      f+3     :     0.000001
      f-3     :     0.000001
 12 C s       :     3.137207  s :     3.137207
      pz      :     0.763171  p :     2.957779
      px      :     1.068074
      py      :     1.126534
      dz2     :     0.017218  d :     0.060254
      dxz     :     0.009817
      dyz     :     0.010334
      dx2y2   :     0.011122
      dxy     :     0.011763
      f0      :     0.001772  f :     0.003459
      f+1     :     0.000165
      f-1     :     0.000179
      f+2     :     0.000063
      f-2     :     0.000060
      f+3     :     0.000008
      f-3     :     0.001211
 13 H s       :     0.820063  s :     0.820063
      pz      :     0.004821  p :     0.022637
      px      :     0.012056
      py      :     0.005761
 14 H s       :     0.773693  s :     0.773693
      pz      :     0.004628  p :     0.023624
      px      :     0.003696
      py      :     0.015300
 15 H s       :     0.828531  s :     0.828531
      pz      :     0.005009  p :     0.022301
      px      :     0.011028
      py      :     0.006263
 16 C s       :     3.267530  s :     3.267530
      pz      :     0.960876  p :     2.632367
      px      :     0.841529
      py      :     0.829962
      dz2     :     0.022043  d :     0.116521
      dxz     :     0.046025
      dyz     :     0.047293
      dx2y2   :     0.000593
      dxy     :     0.000567
      f0      :     0.004007  f :     0.017389
      f+1     :     0.006590
      f-1     :     0.006715
      f+2     :     0.000033
      f-2     :     0.000035
      f+3     :     0.000002
      f-3     :     0.000008
 17 N s       :     3.750151  s :     3.750151
      pz      :     1.270882  p :     3.511668
      px      :     1.115758
      py      :     1.125028
      dz2     :     0.010633  d :     0.052031
      dxz     :     0.020652
      dyz     :     0.020579
      dx2y2   :     0.000103
      dxy     :     0.000064
      f0      :     0.000618  f :     0.002923
      f+1     :     0.001152
      f-1     :     0.001148
      f+2     :     0.000002
      f-2     :     0.000001
      f+3     :     0.000000
      f-3     :     0.000002


                     *******************************
                     * LOEWDIN POPULATION ANALYSIS *
                     *******************************

----------------------
LOEWDIN ATOMIC CHARGES
----------------------
   0 C :   -0.249080
   1 H :    0.143024
   2 H :    0.149190
   3 H :    0.139173
   4 C :   -0.193377
   5 N :    0.010529
   6 C :   -0.246904
   7 H :    0.147478
   8 H :    0.145143
   9 H :    0.140819
  10 C :   -0.189009
  11 N :    0.006535
  12 C :   -0.243224
  13 H :    0.146171
  14 H :    0.155078
  15 H :    0.140515
  16 C :   -0.171547
  17 N :   -0.030512

-------------------------------
LOEWDIN REDUCED ORBITAL CHARGES
-------------------------------
  0 C s       :     2.813295  s :     2.813295
      pz      :     1.024687  p :     3.150248
      px      :     1.066259
      py      :     1.059301
      dz2     :     0.078325  d :     0.260210
      dxz     :     0.059082
      dyz     :     0.061861
      dx2y2   :     0.031226
      dxy     :     0.029716
      f0      :     0.007505  f :     0.025327
      f+1     :     0.005197
      f-1     :     0.004982
      f+2     :     0.002339
      f-2     :     0.002036
      f+3     :     0.000715
      f-3     :     0.002553
  1 H s       :     0.796419  s :     0.796419
      pz      :     0.012437  p :     0.060558
      px      :     0.032814
      py      :     0.015306
  2 H s       :     0.786729  s :     0.786729
      pz      :     0.012290  p :     0.064081
      px      :     0.028946
      py      :     0.022846
  3 H s       :     0.800619  s :     0.800619
      pz      :     0.012983  p :     0.060209
      px      :     0.013106
      py      :     0.034119
  4 C s       :     2.839603  s :     2.839603
      pz      :     1.193653  p :     2.839735
      px      :     0.821519
      py      :     0.824563
      dz2     :     0.155456  d :     0.454794
      dxz     :     0.149212
      dyz     :     0.148785
      dx2y2   :     0.000433
      dxy     :     0.000908
      f0      :     0.022999  f :     0.059246
      f+1     :     0.018152
      f-1     :     0.017942
      f+2     :     0.000046
      f-2     :     0.000095
      f+3     :     0.000002
      f-3     :     0.000011
  5 N s       :     3.308707  s :     3.308707
      pz      :     1.495101  p :     3.556322
      px      :     1.030511
      py      :     1.030709
      dz2     :     0.045788  d :     0.110177
      dxz     :     0.032127
      dyz     :     0.032160
      dx2y2   :     0.000043
      dxy     :     0.000059
      f0      :     0.006239  f :     0.014265
      f+1     :     0.004008
      f-1     :     0.004009
      f+2     :     0.000004
      f-2     :     0.000004
      f+3     :     0.000000
      f-3     :     0.000001
  6 C s       :     2.813043  s :     2.813043
      pz      :     1.025977  p :     3.148463
      px      :     1.058146
      py      :     1.064339
      dz2     :     0.078754  d :     0.260007
      dxz     :     0.055834
      dyz     :     0.063656
      dx2y2   :     0.027615
      dxy     :     0.034149
      f0      :     0.007438  f :     0.025391
      f+1     :     0.005567
      f-1     :     0.004753
      f+2     :     0.002262
      f-2     :     0.002047
      f+3     :     0.001087
      f-3     :     0.002237
  7 H s       :     0.789408  s :     0.789408
      pz      :     0.013691  p :     0.063114
      px      :     0.012771
      py      :     0.036652
  8 H s       :     0.794280  s :     0.794280
      pz      :     0.011811  p :     0.060577
      px      :     0.033766
      py      :     0.014999
  9 H s       :     0.798797  s :     0.798797
      pz      :     0.012423  p :     0.060384
      px      :     0.024572
      py      :     0.023389
 10 C s       :     2.838666  s :     2.838666
      pz      :     1.191506  p :     2.835070
      px      :     0.825757
      py      :     0.817807
      dz2     :     0.155305  d :     0.455857
      dxz     :     0.147351
      dyz     :     0.150592
      dx2y2   :     0.001137
      dxy     :     0.001472
      f0      :     0.022896  f :     0.059416
      f+1     :     0.017619
      f-1     :     0.018322
      f+2     :     0.000249
      f-2     :     0.000318
      f+3     :     0.000004
      f-3     :     0.000009
 11 N s       :     3.306817  s :     3.306817
      pz      :     1.492395  p :     3.562565
      px      :     1.031832
      py      :     1.038339
      dz2     :     0.045482  d :     0.109828
      dxz     :     0.032040
      dyz     :     0.031817
      dx2y2   :     0.000313
      dxy     :     0.000176
      f0      :     0.006185  f :     0.014255
      f+1     :     0.004013
      f-1     :     0.003952
      f+2     :     0.000052
      f-2     :     0.000050
      f+3     :     0.000001
      f-3     :     0.000002
 12 C s       :     2.813116  s :     2.813116
      pz      :     1.015371  p :     3.150949
      px      :     1.057583
      py      :     1.077995
      dz2     :     0.080482  d :     0.254199
      dxz     :     0.057579
      dyz     :     0.055102
      dx2y2   :     0.029309
      dxy     :     0.031726
      f0      :     0.007810  f :     0.024960
      f+1     :     0.004776
      f-1     :     0.004776
      f+2     :     0.002138
      f-2     :     0.002183
      f+3     :     0.000026
      f-3     :     0.003251
 13 H s       :     0.792302  s :     0.792302
      pz      :     0.012552  p :     0.061527
      px      :     0.031504
      py      :     0.017471
 14 H s       :     0.780024  s :     0.780024
      pz      :     0.012339  p :     0.064898
      px      :     0.011855
      py      :     0.040703
 15 H s       :     0.798789  s :     0.798789
      pz      :     0.012906  p :     0.060696
      px      :     0.029139
      py      :     0.018651
 16 C s       :     2.843250  s :     2.843250
      pz      :     1.198521  p :     2.801595
      px      :     0.803448
      py      :     0.799626
      dz2     :     0.154688  d :     0.466460
      dxz     :     0.152627
      dyz     :     0.157240
      dx2y2   :     0.000982
      dxy     :     0.000924
      f0      :     0.022769  f :     0.060243
      f+1     :     0.018453
      f-1     :     0.018863
      f+2     :     0.000070
      f-2     :     0.000067
      f+3     :     0.000005
      f-3     :     0.000017
 17 N s       :     3.302191  s :     3.302191
      pz      :     1.495777  p :     3.609017
      px      :     1.053682
      py      :     1.059558
      dz2     :     0.045277  d :     0.105403
      dxz     :     0.030175
      dyz     :     0.029714
      dx2y2   :     0.000145
      dxy     :     0.000092
      f0      :     0.006264  f :     0.013902
      f+1     :     0.003835
      f-1     :     0.003788
      f+2     :     0.000007
      f-2     :     0.000005
      f+3     :     0.000001
      f-3     :     0.000002


                      *****************************
                      * MAYER POPULATION ANALYSIS *
                      *****************************

  NA   - Mulliken gross atomic population
  ZA   - Total nuclear charge
  QA   - Mulliken gross atomic charge
  VA   - Mayer's total valence
  BVA  - Mayer's bonded valence
  FA   - Mayer's free valence

  ATOM       NA         ZA         QA         VA         BVA        FA
  0 C      6.1903     6.0000    -0.1903     3.7911     3.7911     0.0000
  1 H      0.8394     1.0000     0.1606     0.9607     0.9607     0.0000
  2 H      0.8044     1.0000     0.1956     0.9607     0.9607     0.0000
  3 H      0.8612     1.0000     0.1388     0.9630     0.9630     0.0000
  4 C      6.0830     6.0000    -0.0830     3.8752     3.8752     0.0000
  5 N      7.2225     7.0000    -0.2225     3.0079     3.0079    -0.0000
  6 C      6.1889     6.0000    -0.1889     3.7903     3.7903    -0.0000
  7 H      0.8109     1.0000     0.1891     0.9598     0.9598    -0.0000
  8 H      0.8389     1.0000     0.1611     0.9618     0.9618    -0.0000
  9 H      0.8531     1.0000     0.1469     0.9627     0.9627    -0.0000
 10 C      6.0651     6.0000    -0.0651     3.8533     3.8533    -0.0000
 11 N      7.2422     7.0000    -0.2422     2.9818     2.9818     0.0000
 12 C      6.1587     6.0000    -0.1587     3.7768     3.7768    -0.0000
 13 H      0.8427     1.0000     0.1573     0.9686     0.9686     0.0000
 14 H      0.7973     1.0000     0.2027     0.9632     0.9632    -0.0000
 15 H      0.8508     1.0000     0.1492     0.9585     0.9585     0.0000
 16 C      6.0338     6.0000    -0.0338     3.8640     3.8640    -0.0000
 17 N      7.3168     7.0000    -0.3168     2.9475     2.9475     0.0000

  Mayer bond orders larger than 0.100000
B(  0-C ,  1-H ) :   0.9584 B(  0-C ,  2-H ) :   0.9575 B(  0-C ,  3-H ) :   0.9676 
B(  0-C ,  4-C ) :   0.9178 B(  4-C ,  5-N ) :   2.9770 B(  6-C ,  7-H ) :   0.9549 
B(  6-C ,  8-H ) :   0.9562 B(  6-C ,  9-H ) :   0.9715 B(  6-C , 10-C ) :   0.9194 
B( 10-C , 11-N ) :   2.9494 B( 12-C , 13-H ) :   0.9585 B( 12-C , 14-H ) :   0.9485 
B( 12-C , 15-H ) :   0.9557 B( 12-C , 16-C ) :   0.9337 B( 16-C , 17-N ) :   2.9092 


-------
TIMINGS
-------

Total SCF time: 0 days 0 hours 0 min 58 sec 

Total time                  ....      58.206 sec
Sum of individual times     ....      57.441 sec  ( 98.7%)

Fock matrix formation       ....      56.808 sec  ( 97.6%)
Diagonalization             ....       0.136 sec  (  0.2%)
Density matrix formation    ....       0.020 sec  (  0.0%)
Population analysis         ....       0.027 sec  (  0.0%)
Initial guess               ....       0.202 sec  (  0.3%)
Orbital Transformation      ....       0.000 sec  (  0.0%)
Orbital Orthonormalization  ....       0.000 sec  (  0.0%)
DIIS solution               ....       0.049 sec  (  0.1%)
SOSCF solution              ....       0.085 sec  (  0.1%)


           ************************************************************
           *        Program running with 6 parallel MPI-processes     *
           *              working on a common directory               *
           ************************************************************

------------------------------------------------------------------------------
                                ORCA  MP2 
------------------------------------------------------------------------------

Freezing NCore=18 chemical core electrons
MP2 will be done in the AO integral direct mode
The Q1-step will be done using symmetric double matrices
Dimension of the basis                    ...  333
Memory devoted for MP2                    ... 8000 MB   
Memory needed for all in one shot         ...  566 MB
Number of MOs that can be treated together...   55      
MP2 density construction                  ... relaxed
The MP2 gradient is requested => amplitudes will be stored on disk
Total number of MOs              ...   24
Number of MOs treated per batch  ...    4 
Number of batches necessary      ...    1 
OPERATORS   0/  0 PASS   0
-----------------------------------------------
 MP2 CORRELATION ENERGY   :     -1.539117326 Eh
-----------------------------------------------


---------------------
MP2 DENSITY FORMATION
---------------------

Completing the external part of the density      ... done
Storing the unrelaxed density                    ... done

Calculating G(D)                                 ... done
Completing the Lagrangian                        ... done
Solving the Z-vector equations                   ... 

------------------------------------------------------------------------------
                           ORCA CP-SCF CALCULATION
------------------------------------------------------------------------------

Input orbitals are from        ... 12mecn.remya.etal.2.mol5,7,9-orca.engrad-mp2.def2tzvp.frozencore.gbw
Input Perturbation             ... 12mecn.remya.etal.2.mol5,7,9-orca.engrad-mp2.def2tzvp.frozencore.pin.tmp
Wavefunction output            ... 12mecn.remya.etal.2.mol5,7,9-orca.engrad-mp2.def2tzvp.frozencore.pout.tmp
Perturbation mode              ... Real perturbation (singlet)
Solver                         ... POPLE
Max. number of iterations      ... 128
Convergence tolerance          ... 1.000e-08
Integral handling              ... Direct
Number of perturbations        ... 1
Number of operators            ... 1
Orbital ranges used for CP-SCF:
 Operator 0:  Orbitals   0... 32  to  33...332
Variables per vector in CP-SCF ... 9900
Number of vectors sought       ... 1
     CP-SCF ITERATION   0: 
     CP-SCF ITERATION   1:      0.001685995004
     CP-SCF ITERATION   2:      0.000262299121
     CP-SCF ITERATION   3:      0.000012382363
     CP-SCF ITERATION   4:      0.000004618551
     CP-SCF ITERATION   5:      0.000001427032
     CP-SCF ITERATION   6:      0.000000187110
     CP-SCF ITERATION   7:      0.000000017106
     CP-SCF ITERATION   8:      0.000000000820
                                                 ... done
Finalizing the relaxed density                   ... done
Transforming P to the AO basis                   ... done
Storing the relaxed density                      ... done

------------------------------------
ENERGY WEIGHTED DENSITY FINALIZATION
------------------------------------

Gathering the parts of the W-matrix              ...                                                      done
Forming the Z-density                            ... done
Transforming Z to the AO basis                   ... done
Calculating G(Z)                                 ... done
Finalizing the W-matrix                          ...                                                      done
Transforming W to the AO basis and storing       ... done

                *********************************************
                * UNRELAXED MP2 DENSITY POPULATION ANALYSIS *
                *********************************************

------------------------------------------------------------------------------
                           ORCA POPULATION ANALYSIS
------------------------------------------------------------------------------
Input electron density              ... 12mecn.remya.etal.2.mol5,7,9-orca.engrad-mp2.def2tzvp.frozencore.pmp2ur
BaseName (.gbw .S,...)              ... 12mecn.remya.etal.2.mol5,7,9-orca.engrad-mp2.def2tzvp.frozencore

                    ********************************
                    * MULLIKEN POPULATION ANALYSIS *
                    ********************************

-----------------------
MULLIKEN ATOMIC CHARGES
-----------------------
   0 C :   -0.203289
   1 H :    0.163419
   2 H :    0.197579
   3 H :    0.141596
   4 C :   -0.092993
   5 N :   -0.206966
   6 C :   -0.201719
   7 H :    0.191029
   8 H :    0.163928
   9 H :    0.149680
  10 C :   -0.075239
  11 N :   -0.226501
  12 C :   -0.171654
  13 H :    0.160078
  14 H :    0.204523
  15 H :    0.151995
  16 C :   -0.046501
  17 N :   -0.298964
Sum of atomic charges:    0.0000000

--------------------------------
MULLIKEN REDUCED ORBITAL CHARGES
--------------------------------
  0 C s       :     3.156579  s :     3.156579
      pz      :     0.781367  p :     2.950817
      px      :     1.098345
      py      :     1.071105
      dz2     :     0.020348  d :     0.088541
      dxz     :     0.017474
      dyz     :     0.017416
      dx2y2   :     0.016843
      dxy     :     0.016459
      f0      :     0.002130  f :     0.007352
      f+1     :     0.000877
      f-1     :     0.000869
      f+2     :     0.000610
      f-2     :     0.000601
      f+3     :     0.000825
      f-3     :     0.001440
  1 H s       :     0.811440  s :     0.811440
      pz      :     0.005719  p :     0.025141
      px      :     0.013394
      py      :     0.006028
  2 H s       :     0.776504  s :     0.776504
      pz      :     0.005532  p :     0.025917
      px      :     0.011459
      py      :     0.008926
  3 H s       :     0.833258  s :     0.833258
      pz      :     0.006072  p :     0.025146
      px      :     0.005069
      py      :     0.014005
  4 C s       :     3.247518  s :     3.247518
      pz      :     0.946783  p :     2.693317
      px      :     0.869880
      py      :     0.876654
      dz2     :     0.028920  d :     0.131780
      dxz     :     0.046521
      dyz     :     0.046416
      dx2y2   :     0.004886
      dxy     :     0.005038
      f0      :     0.004551  f :     0.020378
      f+1     :     0.007089
      f-1     :     0.007033
      f+2     :     0.000586
      f-2     :     0.000601
      f+3     :     0.000257
      f-3     :     0.000261
  5 N s       :     3.715801  s :     3.715801
      pz      :     1.268933  p :     3.408843
      px      :     1.070975
      py      :     1.068936
      dz2     :     0.015676  d :     0.076667
      dxz     :     0.025429
      dyz     :     0.025506
      dx2y2   :     0.005020
      dxy     :     0.005037
      f0      :     0.001046  f :     0.005655
      f+1     :     0.001601
      f-1     :     0.001608
      f+2     :     0.000419
      f-2     :     0.000419
      f+3     :     0.000281
      f-3     :     0.000281
  6 C s       :     3.155532  s :     3.155532
      pz      :     0.785165  p :     2.950443
      px      :     1.079960
      py      :     1.085319
      dz2     :     0.020489  d :     0.088400
      dxz     :     0.016015
      dyz     :     0.018655
      dx2y2   :     0.015761
      dxy     :     0.017479
      f0      :     0.002081  f :     0.007344
      f+1     :     0.000868
      f-1     :     0.000897
      f+2     :     0.000622
      f-2     :     0.000603
      f+3     :     0.000944
      f-3     :     0.001328
  7 H s       :     0.783363  s :     0.783363
      pz      :     0.006151  p :     0.025608
      px      :     0.004918
      py      :     0.014539
  8 H s       :     0.810843  s :     0.810843
      pz      :     0.005392  p :     0.025228
      px      :     0.013934
      py      :     0.005902
  9 H s       :     0.825231  s :     0.825231
      pz      :     0.005738  p :     0.025089
      px      :     0.009911
      py      :     0.009440
 10 C s       :     3.247650  s :     3.247650
      pz      :     0.941090  p :     2.677002
      px      :     0.876631
      py      :     0.859281
      dz2     :     0.028407  d :     0.130165
      dxz     :     0.045079
      dyz     :     0.046417
      dx2y2   :     0.005023
      dxy     :     0.005240
      f0      :     0.004634  f :     0.020422
      f+1     :     0.006926
      f-1     :     0.007014
      f+2     :     0.000649
      f-2     :     0.000678
      f+3     :     0.000260
      f-3     :     0.000262
 11 N s       :     3.731373  s :     3.731373
      pz      :     1.261415  p :     3.413137
      px      :     1.067439
      py      :     1.084283
      dz2     :     0.015645  d :     0.076325
      dxz     :     0.025143
      dyz     :     0.025249
      dx2y2   :     0.005183
      dxy     :     0.005104
      f0      :     0.001065  f :     0.005665
      f+1     :     0.001591
      f-1     :     0.001575
      f+2     :     0.000434
      f-2     :     0.000432
      f+3     :     0.000283
      f-3     :     0.000284
 12 C s       :     3.135720  s :     3.135720
      pz      :     0.762208  p :     2.942279
      px      :     1.061634
      py      :     1.118438
      dz2     :     0.019691  d :     0.086326
      dxz     :     0.015939
      dyz     :     0.016560
      dx2y2   :     0.016729
      dxy     :     0.017407
      f0      :     0.002167  f :     0.007329
      f+1     :     0.000831
      f-1     :     0.000845
      f+2     :     0.000607
      f-2     :     0.000601
      f+3     :     0.000599
      f-3     :     0.001679
 13 H s       :     0.814487  s :     0.814487
      pz      :     0.005813  p :     0.025435
      px      :     0.012860
      py      :     0.006762
 14 H s       :     0.769191  s :     0.769191
      pz      :     0.005601  p :     0.026286
      px      :     0.004712
      py      :     0.015973
 15 H s       :     0.822845  s :     0.822845
      pz      :     0.006012  p :     0.025161
      px      :     0.011891
      py      :     0.007258
 16 C s       :     3.266531  s :     3.266531
      pz      :     0.951858  p :     2.628203
      px      :     0.843548
      py      :     0.832796
      dz2     :     0.024378  d :     0.131451
      dxz     :     0.047933
      dyz     :     0.049132
      dx2y2   :     0.005008
      dxy     :     0.005000
      f0      :     0.004475  f :     0.020317
      f+1     :     0.007014
      f-1     :     0.007135
      f+2     :     0.000591
      f-2     :     0.000590
      f+3     :     0.000253
      f-3     :     0.000259
 17 N s       :     3.737620  s :     3.737620
      pz      :     1.258527  p :     3.480148
      px      :     1.106390
      py      :     1.115230
      dz2     :     0.015046  d :     0.075515
      dxz     :     0.025009
      dyz     :     0.024944
      dx2y2   :     0.005280
      dxy     :     0.005237
      f0      :     0.001051  f :     0.005681
      f+1     :     0.001603
      f-1     :     0.001599
      f+2     :     0.000425
      f-2     :     0.000424
      f+3     :     0.000289
      f-3     :     0.000291


                     *******************************
                     * LOEWDIN POPULATION ANALYSIS *
                     *******************************

----------------------
LOEWDIN ATOMIC CHARGES
----------------------
   0 C :   -0.257169
   1 H :    0.144721
   2 H :    0.150737
   3 H :    0.140815
   4 C :   -0.199039
   5 N :    0.019416
   6 C :   -0.255018
   7 H :    0.149032
   8 H :    0.146841
   9 H :    0.142464
  10 C :   -0.194739
  11 N :    0.015523
  12 C :   -0.251267
  13 H :    0.147866
  14 H :    0.156620
  15 H :    0.142202
  16 C :   -0.178385
  17 N :   -0.020619

-------------------------------
LOEWDIN REDUCED ORBITAL CHARGES
-------------------------------
  0 C s       :     2.811547  s :     2.811547
      pz      :     1.016090  p :     3.125068
      px      :     1.057911
      py      :     1.051067
      dz2     :     0.083575  d :     0.289168
      dxz     :     0.065097
      dyz     :     0.067805
      dx2y2   :     0.037065
      dxy     :     0.035627
      f0      :     0.008626  f :     0.031386
      f+1     :     0.006271
      f-1     :     0.006045
      f+2     :     0.003016
      f-2     :     0.002708
      f+3     :     0.001385
      f-3     :     0.003335
  1 H s       :     0.789930  s :     0.789930
      pz      :     0.013845  p :     0.065349
      px      :     0.034887
      py      :     0.016617
  2 H s       :     0.780512  s :     0.780512
      pz      :     0.013700  p :     0.068751
      px      :     0.030679
      py      :     0.024371
  3 H s       :     0.794079  s :     0.794079
      pz      :     0.014441  p :     0.065106
      px      :     0.014351
      py      :     0.036314
  4 C s       :     2.836278  s :     2.836278
      pz      :     1.181006  p :     2.821537
      px      :     0.818833
      py      :     0.821698
      dz2     :     0.162835  d :     0.474278
      dxz     :     0.150670
      dyz     :     0.150274
      dx2y2   :     0.005014
      dxy     :     0.005485
      f0      :     0.024619  f :     0.066945
      f+1     :     0.020250
      f-1     :     0.020053
      f+2     :     0.000722
      f-2     :     0.000772
      f+3     :     0.000259
      f-3     :     0.000270
  5 N s       :     3.300846  s :     3.300846
      pz      :     1.478983  p :     3.520538
      px      :     1.020580
      py      :     1.020976
      dz2     :     0.052724  d :     0.140471
      dxz     :     0.038891
      dyz     :     0.038877
      dx2y2   :     0.004977
      dxy     :     0.005002
      f0      :     0.007312  f :     0.018728
      f+1     :     0.004989
      f-1     :     0.004983
      f+2     :     0.000441
      f-2     :     0.000441
      f+3     :     0.000281
      f-3     :     0.000282
  6 C s       :     2.811291  s :     2.811291
      pz      :     1.017368  p :     3.123385
      px      :     1.050091
      py      :     1.055926
      dz2     :     0.083994  d :     0.288894
      dxz     :     0.061768
      dyz     :     0.069669
      dx2y2   :     0.033503
      dxy     :     0.039960
      f0      :     0.008555  f :     0.031448
      f+1     :     0.006635
      f-1     :     0.005819
      f+2     :     0.002940
      f-2     :     0.002721
      f+3     :     0.001779
      f-3     :     0.002997
  7 H s       :     0.783170  s :     0.783170
      pz      :     0.015156  p :     0.067798
      px      :     0.014004
      py      :     0.038639
  8 H s       :     0.787814  s :     0.787814
      pz      :     0.013180  p :     0.065345
      px      :     0.035855
      py      :     0.016311
  9 H s       :     0.792292  s :     0.792292
      pz      :     0.013839  p :     0.065243
      px      :     0.026328
      py      :     0.025077
 10 C s       :     2.835324  s :     2.835324
      pz      :     1.178893  p :     2.817114
      px      :     0.822853
      py      :     0.815368
      dz2     :     0.162594  d :     0.475195
      dxz     :     0.148882
      dyz     :     0.152007
      dx2y2   :     0.005708
      dxy     :     0.006004
      f0      :     0.024528  f :     0.067106
      f+1     :     0.019714
      f-1     :     0.020386
      f+2     :     0.000937
      f-2     :     0.001008
      f+3     :     0.000264
      f-3     :     0.000271
 11 N s       :     3.298960  s :     3.298960
      pz      :     1.476249  p :     3.526454
      px      :     1.022071
      py      :     1.028134
      dz2     :     0.052450  d :     0.140337
      dxz     :     0.038763
      dyz     :     0.038682
      dx2y2   :     0.005301
      dxy     :     0.005140
      f0      :     0.007256  f :     0.018726
      f+1     :     0.004980
      f-1     :     0.004933
      f+2     :     0.000495
      f-2     :     0.000491
      f+3     :     0.000284
      f-3     :     0.000285
 12 C s       :     2.811367  s :     2.811367
      pz      :     1.006838  p :     3.125501
      px      :     1.049435
      py      :     1.069228
      dz2     :     0.085637  d :     0.283379
      dxz     :     0.063621
      dyz     :     0.061261
      dx2y2   :     0.035299
      dxy     :     0.037562
      f0      :     0.008927  f :     0.031021
      f+1     :     0.005846
      f-1     :     0.005852
      f+2     :     0.002814
      f-2     :     0.002851
      f+3     :     0.000658
      f-3     :     0.004072
 13 H s       :     0.785889  s :     0.785889
      pz      :     0.013955  p :     0.066246
      px      :     0.033408
      py      :     0.018883
 14 H s       :     0.773906  s :     0.773906
      pz      :     0.013732  p :     0.069475
      px      :     0.013043
      py      :     0.042700
 15 H s       :     0.792270  s :     0.792270
      pz      :     0.014339  p :     0.065529
      px      :     0.031078
      py      :     0.020112
 16 C s       :     2.839727  s :     2.839727
      pz      :     1.185868  p :     2.786035
      px      :     0.801815
      py      :     0.798352
      dz2     :     0.161942  d :     0.484823
      dxz     :     0.153797
      dyz     :     0.158212
      dx2y2   :     0.005469
      dxy     :     0.005402
      f0      :     0.024400  f :     0.067801
      f+1     :     0.020487
      f-1     :     0.020890
      f+2     :     0.000750
      f-2     :     0.000747
      f+3     :     0.000256
      f-3     :     0.000271
 17 N s       :     3.294496  s :     3.294496
      pz      :     1.479543  p :     3.570730
      px      :     1.042817
      py      :     1.048369
      dz2     :     0.052387  d :     0.136969
      dxz     :     0.037260
      dyz     :     0.036854
      dx2y2   :     0.005268
      dxy     :     0.005200
      f0      :     0.007337  f :     0.018424
      f+1     :     0.004825
      f-1     :     0.004786
      f+2     :     0.000448
      f-2     :     0.000445
      f+3     :     0.000289
      f-3     :     0.000292


                      *****************************
                      * MAYER POPULATION ANALYSIS *
                      *****************************

  NA   - Mulliken gross atomic population
  ZA   - Total nuclear charge
  QA   - Mulliken gross atomic charge
  VA   - Mayer's total valence
  BVA  - Mayer's bonded valence
  FA   - Mayer's free valence

  ATOM       NA         ZA         QA         VA         BVA        FA
  0 C      6.2033     6.0000    -0.2033     3.9115     3.6238     0.2877
  1 H      0.8366     1.0000     0.1634     0.9680     0.9207     0.0473
  2 H      0.8024     1.0000     0.1976     0.9672     0.9202     0.0471
  3 H      0.8584     1.0000     0.1416     0.9710     0.9220     0.0490
  4 C      6.0930     6.0000    -0.0930     3.9785     3.5373     0.4412
  5 N      7.2070     7.0000    -0.2070     3.2077     2.7167     0.4910
  6 C      6.2017     6.0000    -0.2017     3.9101     3.6236     0.2866
  7 H      0.8090     1.0000     0.1910     0.9667     0.9191     0.0476
  8 H      0.8361     1.0000     0.1639     0.9690     0.9217     0.0473
  9 H      0.8503     1.0000     0.1497     0.9704     0.9221     0.0483
 10 C      6.0752     6.0000    -0.0752     3.9556     3.5159     0.4397
 11 N      7.2265     7.0000    -0.2265     3.1846     2.6914     0.4931
 12 C      6.1717     6.0000    -0.1717     3.8962     3.6101     0.2861
 13 H      0.8399     1.0000     0.1601     0.9757     0.9280     0.0477
 14 H      0.7955     1.0000     0.2045     0.9696     0.9227     0.0470
 15 H      0.8480     1.0000     0.1520     0.9662     0.9180     0.0482
 16 C      6.0465     6.0000    -0.0465     3.9649     3.5310     0.4339
 17 N      7.2990     7.0000    -0.2990     3.1601     2.6630     0.4971

  Mayer bond orders larger than 0.100000
B(  0-C ,  1-H ) :   0.9211 B(  0-C ,  2-H ) :   0.9198 B(  0-C ,  3-H ) :   0.9292 
B(  0-C ,  4-C ) :   0.8659 B(  4-C ,  5-N ) :   2.6933 B(  6-C ,  7-H ) :   0.9171 
B(  6-C ,  8-H ) :   0.9189 B(  6-C ,  9-H ) :   0.9335 B(  6-C , 10-C ) :   0.8675 
B( 10-C , 11-N ) :   2.6666 B( 12-C , 13-H ) :   0.9210 B( 12-C , 14-H ) :   0.9109 
B( 12-C , 15-H ) :   0.9181 B( 12-C , 16-C ) :   0.8813 B( 16-C , 17-N ) :   2.6328 



                *******************************************
                * RELAXED MP2 DENSITY POPULATION ANALYSIS *
                *******************************************

------------------------------------------------------------------------------
                           ORCA POPULATION ANALYSIS
------------------------------------------------------------------------------
Input electron density              ... 12mecn.remya.etal.2.mol5,7,9-orca.engrad-mp2.def2tzvp.frozencore.pmp2re
BaseName (.gbw .S,...)              ... 12mecn.remya.etal.2.mol5,7,9-orca.engrad-mp2.def2tzvp.frozencore

                    ********************************
                    * MULLIKEN POPULATION ANALYSIS *
                    ********************************

-----------------------
MULLIKEN ATOMIC CHARGES
-----------------------
   0 C :   -0.297527
   1 H :    0.176129
   2 H :    0.203047
   3 H :    0.158088
   4 C :   -0.127372
   5 N :   -0.114027
   6 C :   -0.296212
   7 H :    0.198435
   8 H :    0.177106
   9 H :    0.164402
  10 C :   -0.106304
  11 N :   -0.135229
  12 C :   -0.269364
  13 H :    0.173722
  14 H :    0.210908
  15 H :    0.166090
  16 C :   -0.087293
  17 N :   -0.194599
Sum of atomic charges:    0.0000000

--------------------------------
MULLIKEN REDUCED ORBITAL CHARGES
--------------------------------
  0 C s       :     3.192286  s :     3.192286
      pz      :     0.826833  p :     3.020553
      px      :     1.109066
      py      :     1.084654
      dz2     :     0.016000  d :     0.077613
      dxz     :     0.017530
      dyz     :     0.017417
      dx2y2   :     0.013475
      dxy     :     0.013191
      f0      :     0.001883  f :     0.007075
      f+1     :     0.000934
      f-1     :     0.000928
      f+2     :     0.000598
      f-2     :     0.000589
      f+3     :     0.000798
      f-3     :     0.001345
  1 H s       :     0.799813  s :     0.799813
      pz      :     0.005785  p :     0.024058
      px      :     0.012227
      py      :     0.006046
  2 H s       :     0.772207  s :     0.772207
      pz      :     0.005641  p :     0.024747
      px      :     0.010633
      py      :     0.008472
  3 H s       :     0.817831  s :     0.817831
      pz      :     0.006080  p :     0.024081
      px      :     0.005253
      py      :     0.012747
  4 C s       :     3.228523  s :     3.228523
      pz      :     0.973817  p :     2.772601
      px      :     0.898936
      py      :     0.899847
      dz2     :     0.025187  d :     0.107241
      dxz     :     0.036002
      dyz     :     0.036160
      dx2y2   :     0.004869
      dxy     :     0.005023
      f0      :     0.004381  f :     0.019007
      f+1     :     0.006478
      f-1     :     0.006450
      f+2     :     0.000582
      f-2     :     0.000596
      f+3     :     0.000257
      f-3     :     0.000261
  5 N s       :     3.661681  s :     3.661681
      pz      :     1.258851  p :     3.379340
      px      :     1.058595
      py      :     1.061893
      dz2     :     0.014677  d :     0.067822
      dxz     :     0.021522
      dyz     :     0.021562
      dx2y2   :     0.005021
      dxy     :     0.005041
      f0      :     0.000928  f :     0.005184
      f+1     :     0.001425
      f-1     :     0.001432
[...]
      f+1     :     0.006347
      f-1     :     0.006409
      f+2     :     0.000639
      f-2     :     0.000664
      f+3     :     0.000259
      f-3     :     0.000262
 11 N s       :     3.684289  s :     3.684289
      pz      :     1.247128  p :     3.378328
      px      :     1.062992
      py      :     1.068208
      dz2     :     0.014530  d :     0.067419
      dxz     :     0.021211
      dyz     :     0.021400
      dx2y2   :     0.005187
      dxy     :     0.005091
      f0      :     0.000943  f :     0.005193
      f+1     :     0.001418
      f-1     :     0.001403
      f+2     :     0.000432
      f-2     :     0.000431
      f+3     :     0.000283
      f-3     :     0.000284
 12 C s       :     3.174878  s :     3.174878
      pz      :     0.809115  p :     3.011946
      px      :     1.076106
      py      :     1.126725
      dz2     :     0.015443  d :     0.075491
      dxz     :     0.016051
      dyz     :     0.016609
      dx2y2   :     0.013514
      dxy     :     0.013873
      f0      :     0.001912  f :     0.007048
      f+1     :     0.000893
      f-1     :     0.000901
      f+2     :     0.000598
      f-2     :     0.000591
      f+3     :     0.000598
      f-3     :     0.001555
 13 H s       :     0.802008  s :     0.802008
      pz      :     0.005830  p :     0.024271
      px      :     0.011740
      py      :     0.006701
 14 H s       :     0.764013  s :     0.764013
      pz      :     0.005691  p :     0.025079
      px      :     0.004917
      py      :     0.014472
 15 H s       :     0.809806  s :     0.809806
      pz      :     0.006018  p :     0.024104
      px      :     0.010944
      py      :     0.007142
 16 C s       :     3.245152  s :     3.245152
      pz      :     0.968094  p :     2.716863
      px      :     0.876469
      py      :     0.872300
      dz2     :     0.020405  d :     0.106345
      dxz     :     0.037548
      dyz     :     0.038415
      dx2y2   :     0.004998
      dxy     :     0.004980
      f0      :     0.004330  f :     0.018932
      f+1     :     0.006411
      f-1     :     0.006509
      f+2     :     0.000586
      f-2     :     0.000585
      f+3     :     0.000252
      f-3     :     0.000258
 17 N s       :     3.693638  s :     3.693638
      pz      :     1.245192  p :     3.428850
      px      :     1.089935
      py      :     1.093722
      dz2     :     0.013914  d :     0.066894
      dxz     :     0.021185
      dyz     :     0.021242
      dx2y2   :     0.005304
      dxy     :     0.005249
      f0      :     0.000925  f :     0.005218
      f+1     :     0.001433
      f-1     :     0.001432
      f+2     :     0.000425
      f-2     :     0.000424
      f+3     :     0.000289
      f-3     :     0.000291


                     *******************************
                     * LOEWDIN POPULATION ANALYSIS *
                     *******************************

----------------------
LOEWDIN ATOMIC CHARGES
----------------------
   0 C :   -0.287523
   1 H :    0.151779
   2 H :    0.155255
   3 H :    0.148439
   4 C :   -0.216330
   5 N :    0.047515
   6 C :   -0.285465
   7 H :    0.154075
   8 H :    0.153874
   9 H :    0.149790
  10 C :   -0.211928
  11 N :    0.044112
  12 C :   -0.282370
  13 H :    0.154402
  14 H :    0.160841
  15 H :    0.149525
  16 C :   -0.201127
  17 N :    0.015135

-------------------------------
LOEWDIN REDUCED ORBITAL CHARGES
-------------------------------
  0 C s       :     2.816731  s :     2.816731
      pz      :     1.034320  p :     3.160907
      px      :     1.066186
      py      :     1.060401
      dz2     :     0.075790  d :     0.278302
      dxz     :     0.067070
      dyz     :     0.069211
      dx2y2   :     0.033618
      dxy     :     0.032612
      f0      :     0.008089  f :     0.031583
      f+1     :     0.006732
      f-1     :     0.006463
      f+2     :     0.002993
      f-2     :     0.002694
      f+3     :     0.001360
      f-3     :     0.003252
  1 H s       :     0.782455  s :     0.782455
      pz      :     0.014387  p :     0.065766
      px      :     0.034424
      py      :     0.016955
  2 H s       :     0.775980  s :     0.775980
      pz      :     0.014253  p :     0.068766
      px      :     0.030255
      py      :     0.024258
  3 H s       :     0.785941  s :     0.785941
      pz      :     0.014961  p :     0.065620
      px      :     0.014815
      py      :     0.035845
  4 C s       :     2.841035  s :     2.841035
      pz      :     1.170554  p :     2.851164
      px      :     0.840652
      py      :     0.839958
      dz2     :     0.165215  d :     0.457413
      dxz     :     0.140795
      dyz     :     0.141038
      dx2y2   :     0.004963
      dxy     :     0.005401
      f0      :     0.025668  f :     0.066718
      f+1     :     0.019551
      f-1     :     0.019507
      f+2     :     0.000712
      f-2     :     0.000753
      f+3     :     0.000259
      f-3     :     0.000269
  5 N s       :     3.301550  s :     3.301550
      pz      :     1.466285  p :     3.495220
      px      :     1.012618
      py      :     1.016317
      dz2     :     0.053390  d :     0.136598
      dxz     :     0.036721
      dyz     :     0.036506
      dx2y2   :     0.004976
      dxy     :     0.005005
      f0      :     0.007405  f :     0.019116
      f+1     :     0.005148
      f-1     :     0.005118
      f+2     :     0.000441
      f-2     :     0.000441
      f+3     :     0.000281
      f-3     :     0.000282
  6 C s       :     2.816413  s :     2.816413
      pz      :     1.035426  p :     3.159345
      px      :     1.059502
      py      :     1.064418
      dz2     :     0.076322  d :     0.278055
      dxz     :     0.063332
      dyz     :     0.071430
      dx2y2   :     0.030602
      dxy     :     0.036369
      f0      :     0.008050  f :     0.031652
      f+1     :     0.007020
      f-1     :     0.006273
      f+2     :     0.002935
      f-2     :     0.002708
      f+3     :     0.001743
      f-3     :     0.002923
  7 H s       :     0.778030  s :     0.778030
      pz      :     0.015611  p :     0.067895
      px      :     0.014479
      py      :     0.037805
  8 H s       :     0.780391  s :     0.780391
      pz      :     0.013769  p :     0.065735
      px      :     0.035276
      py      :     0.016690
  9 H s       :     0.784491  s :     0.784491
      pz      :     0.014397  p :     0.065719
      px      :     0.026259
      py      :     0.025063
 10 C s       :     2.839938  s :     2.839938
      pz      :     1.168266  p :     2.846990
      px      :     0.839351
      py      :     0.839374
      dz2     :     0.164810  d :     0.458145
      dxz     :     0.139990
      dyz     :     0.141815
      dx2y2   :     0.005640
      dxy     :     0.005890
      f0      :     0.025533  f :     0.066854
      f+1     :     0.019270
      f-1     :     0.019621
      f+2     :     0.000923
      f-2     :     0.000976
      f+3     :     0.000263
      f-3     :     0.000269
 11 N s       :     3.299665  s :     3.299665
      pz      :     1.463501  p :     3.500610
      px      :     1.019114
      py      :     1.017994
      dz2     :     0.053039  d :     0.136494
      dxz     :     0.036254
      dyz     :     0.036772
      dx2y2   :     0.005299
      dxy     :     0.005129
      f0      :     0.007350  f :     0.019120
      f+1     :     0.005090
      f-1     :     0.005119
      f+2     :     0.000498
      f-2     :     0.000493
      f+3     :     0.000284
      f-3     :     0.000285
 12 C s       :     2.816680  s :     2.816680
      pz      :     1.026058  p :     3.161401
      px      :     1.058829
      py      :     1.076514
      dz2     :     0.077430  d :     0.273055
      dxz     :     0.065555
      dyz     :     0.063643
      dx2y2   :     0.032378
      dxy     :     0.034050
      f0      :     0.008313  f :     0.031234
      f+1     :     0.006297
      f-1     :     0.006358
      f+2     :     0.002807
      f-2     :     0.002836
      f+3     :     0.000658
      f-3     :     0.003965
 13 H s       :     0.779044  s :     0.779044
      pz      :     0.014469  p :     0.066554
      px      :     0.032884
      py      :     0.019201
 14 H s       :     0.769685  s :     0.769685
      pz      :     0.014264  p :     0.069474
      px      :     0.013564
      py      :     0.041646
 15 H s       :     0.784452  s :     0.784452
      pz      :     0.014836  p :     0.066022
      px      :     0.030804
      py      :     0.020382
 16 C s       :     2.843076  s :     2.843076
      pz      :     1.173160  p :     2.824987
      px      :     0.825476
      py      :     0.826351
      dz2     :     0.164048  d :     0.465918
      dxz     :     0.143734
      dyz     :     0.147457
      dx2y2   :     0.005365
      dxy     :     0.005313
      f0      :     0.025528  f :     0.067146
      f+1     :     0.019734
      f-1     :     0.019892
      f+2     :     0.000737
      f-2     :     0.000730
      f+3     :     0.000255
      f-3     :     0.000268
 17 N s       :     3.295589  s :     3.295589
      pz      :     1.467944  p :     3.536227
      px      :     1.033533
      py      :     1.034750
      dz2     :     0.052830  d :     0.134142
      dxz     :     0.035429
      dyz     :     0.035390
      dx2y2   :     0.005285
      dxy     :     0.005208
      f0      :     0.007409  f :     0.018907
      f+1     :     0.005009
      f-1     :     0.005013
      f+2     :     0.000449
      f-2     :     0.000446
      f+3     :     0.000289
      f-3     :     0.000292


                      *****************************
                      * MAYER POPULATION ANALYSIS *
                      *****************************

  NA   - Mulliken gross atomic population
  ZA   - Total nuclear charge
  QA   - Mulliken gross atomic charge
  VA   - Mayer's total valence
  BVA  - Mayer's bonded valence
  FA   - Mayer's free valence

  ATOM       NA         ZA         QA         VA         BVA        FA
  0 C      6.2975     6.0000    -0.2975     3.9135     3.6272     0.2863
  1 H      0.8239     1.0000     0.1761     0.9622     0.9155     0.0468
  2 H      0.7970     1.0000     0.2030     0.9697     0.9233     0.0464
  3 H      0.8419     1.0000     0.1581     0.9648     0.9165     0.0483
  4 C      6.1274     6.0000    -0.1274     4.0985     3.6683     0.4302
  5 N      7.1140     7.0000    -0.1140     3.3195     2.8409     0.4786
  6 C      6.2962     6.0000    -0.2962     3.9141     3.6289     0.2852
  7 H      0.8016     1.0000     0.1984     0.9676     0.9206     0.0470
  8 H      0.8229     1.0000     0.1771     0.9629     0.9162     0.0467
  9 H      0.8356     1.0000     0.1644     0.9642     0.9165     0.0477
 10 C      6.1063     6.0000    -0.1063     4.0660     3.6371     0.4289
 11 N      7.1352     7.0000    -0.1352     3.2937     2.8132     0.4805
 12 C      6.2694     6.0000    -0.2694     3.9089     3.6240     0.2848
 13 H      0.8263     1.0000     0.1737     0.9701     0.9230     0.0471
 14 H      0.7891     1.0000     0.2109     0.9729     0.9266     0.0463
 15 H      0.8339     1.0000     0.1661     0.9607     0.9131     0.0476
 16 C      6.0873     6.0000    -0.0873     4.0664     3.6433     0.4231
 17 N      7.1946     7.0000    -0.1946     3.2688     2.7852     0.4835

  Mayer bond orders larger than 0.100000
B(  0-C ,  1-H ) :   0.9117 B(  0-C ,  2-H ) :   0.9078 B(  0-C ,  3-H ) :   0.9194 
B(  0-C ,  4-C ) :   0.8935 B(  4-C ,  5-N ) :   2.7958 B(  6-C ,  7-H ) :   0.9062 
B(  6-C ,  8-H ) :   0.9103 B(  6-C ,  9-H ) :   0.9227 B(  6-C , 10-C ) :   0.8944 
B( 10-C , 11-N ) :   2.7603 B( 12-C , 13-H ) :   0.9114 B( 12-C , 14-H ) :   0.8988 
B( 12-C , 15-H ) :   0.9088 B( 12-C , 16-C ) :   0.9107 B( 16-C , 17-N ) :   2.7221 



----------------------------------
MP2 DERIVATIVE INTEGRAL GENERATION
----------------------------------


Input Wavefunction Amplitudes       ... 12mecn.remya.etal.2.mol5,7,9-orca.engrad-mp2.def2tzvp.frozencore.mp2tsaa.tmp
Input Correlated Electron Density   ... 12mecn.remya.etal.2.mol5,7,9-orca.engrad-mp2.def2tzvp.frozencore.pmp2re
Input Energy Weighted Density       ... 12mecn.remya.etal.2.mol5,7,9-orca.engrad-mp2.def2tzvp.frozencore.wmp2.tmp
Input SCF Electron Density          ... 12mecn.remya.etal.2.mol5,7,9-orca.engrad-mp2.def2tzvp.frozencore.scfp

One-Electron Terms    ...
                        ... One-Electron Terms done
Prescreening matrices              ... done

Batch handling in the gradient evaluation:
Memory available                      ... 8000.0 MB
Memory per occupied orbital in Q2     ...   20.3 MB
Memory per occupied orbital in Q3     ...    0.1 MB
Total memory requirement per |i>      ...   20.4 MB
Max. Number of orbitals possible      ...    391
Number of orbitals treated per batch  ...     24
Number of batches to be done          ...      1
Batch   0: i=    9 ...    32

---------------------------------------
MP2 TOTAL ENERGY:     -397.466584658 Eh
---------------------------------------

The final MP2 gradient
  0:   0.00032999   0.00081487  -0.00745380
  1:  -0.00280112   0.00110813  -0.00079718
  2:   0.00230547   0.00118793   0.00049383
  3:   0.00119208  -0.00275554  -0.00015460
  4:  -0.00066881  -0.00017929   0.00290051
  5:  -0.00003442  -0.00060341   0.00486350
  6:   0.00003247   0.00165506  -0.00659903
  7:  -0.00148302   0.00225279   0.00049175
  8:   0.00304490  -0.00138023  -0.00159445
  9:  -0.00235993  -0.00144467  -0.00103474
 10:   0.00058889  -0.00096094   0.00433809
 11:  -0.00048087   0.00014588   0.00422338
 12:  -0.00107815   0.00234253   0.00801706
 13:  -0.00210390   0.00041295  -0.00065490
 14:   0.00121808  -0.00169382  -0.00065308
 15:   0.00200693  -0.00090620  -0.00038917
 16:   0.00031513  -0.00068979  -0.00051475
 17:  -0.00002369   0.00069375  -0.00548243

-----------------------------------
NORM OF THE MP2 GRADIENT:  0.018614
-----------------------------------

-------------------------   --------------------
FINAL SINGLE POINT ENERGY      -397.466584658014
-------------------------   --------------------


                            ***************************************
                            *     ORCA property calculations      *
                            ***************************************

                                    ---------------------
                                    Active property flags
                                    ---------------------
   (+) Dipole Moment


------------------------------------------------------------------------------
                       ORCA ELECTRIC PROPERTIES CALCULATION
------------------------------------------------------------------------------

Dipole Moment Calculation                       ... on
Quadrupole Moment Calculation                   ... off
Polarizability Calculation                      ... off
GBWName                                         ... 12mecn.remya.etal.2.mol5,7,9-orca.engrad-mp2.def2tzvp.frozencore.gbw
Electron density file                           ... 12mecn.remya.etal.2.mol5,7,9-orca.engrad-mp2.def2tzvp.frozencore.scfp
The origin for moment calculation is the CENTER OF MASS  = ( 0.282610,  4.540470  0.345838)

-------------
DIPOLE MOMENT
-------------
                                X             Y             Z
Electronic contribution:     -0.03539       0.14085      -3.13275
Nuclear contribution   :      0.09371      -0.20941       4.61120
                        -----------------------------------------
Total Dipole Moment    :      0.05832      -0.06856       1.47845
                        -----------------------------------------
Magnitude (a.u.)       :      1.48118
Magnitude (Debye)      :      3.76487



--------------------
Rotational spectrum 
--------------------
 
Rotational constants in cm-1:     0.045439     0.038484     0.030859 
Rotational constants in MHz :  1362.234115  1153.719323   925.135792 

 Dipole components along the rotational axes: 
x,y,z [a.u.] :     0.173698    -0.924120     1.144437 
x,y,z [Debye]:     0.441505    -2.348926     2.908926 

 

                         *** MP2 UNRELAXED DENSITY ***

------------------------------------------------------------------------------
                       ORCA ELECTRIC PROPERTIES CALCULATION
------------------------------------------------------------------------------

Dipole Moment Calculation                       ... on
Quadrupole Moment Calculation                   ... off
Polarizability Calculation                      ... off
GBWName                                         ... 12mecn.remya.etal.2.mol5,7,9-orca.engrad-mp2.def2tzvp.frozencore.gbw
Electron density file                           ... 12mecn.remya.etal.2.mol5,7,9-orca.engrad-mp2.def2tzvp.frozencore.pmp2ur
The origin for moment calculation is the CENTER OF MASS  = ( 0.282610,  4.540470  0.345838)

-------------
DIPOLE MOMENT
-------------
                                X             Y             Z
Electronic contribution:     -0.03569       0.14177      -3.16834
Nuclear contribution   :      0.09371      -0.20941       4.61120
                        -----------------------------------------
Total Dipole Moment    :      0.05802      -0.06764       1.44285
                        -----------------------------------------
Magnitude (a.u.)       :      1.44560
Magnitude (Debye)      :      3.67443



--------------------
Rotational spectrum 
--------------------
 
Rotational constants in cm-1:     0.045439     0.038484     0.030859 
Rotational constants in MHz :  1362.234115  1153.719323   925.135792 

 Dipole components along the rotational axes: 
x,y,z [a.u.] :     0.170841    -0.901878     1.116782 
x,y,z [Debye]:     0.434243    -2.292392     2.838634 

 

                           *** MP2 RELAXED DENSITY ***

------------------------------------------------------------------------------
                       ORCA ELECTRIC PROPERTIES CALCULATION
------------------------------------------------------------------------------

Dipole Moment Calculation                       ... on
Quadrupole Moment Calculation                   ... off
Polarizability Calculation                      ... off
GBWName                                         ... 12mecn.remya.etal.2.mol5,7,9-orca.engrad-mp2.def2tzvp.frozencore.gbw
Electron density file                           ... 12mecn.remya.etal.2.mol5,7,9-orca.engrad-mp2.def2tzvp.frozencore.pmp2re
The origin for moment calculation is the CENTER OF MASS  = ( 0.282610,  4.540470  0.345838)

-------------
DIPOLE MOMENT
-------------
                                X             Y             Z
Electronic contribution:     -0.03698       0.14237      -3.25567
Nuclear contribution   :      0.09371      -0.20941       4.61120
                        -----------------------------------------
Total Dipole Moment    :      0.05674      -0.06704       1.35552
                        -----------------------------------------
Magnitude (a.u.)       :      1.35837
Magnitude (Debye)      :      3.45269



--------------------
Rotational spectrum 
--------------------
 
Rotational constants in cm-1:     0.045439     0.038484     0.030859 
Rotational constants in MHz :  1362.234115  1153.719323   925.135792 

 Dipole components along the rotational axes: 
x,y,z [a.u.] :     0.164183    -0.848630     1.047868 
x,y,z [Debye]:     0.417321    -2.157047     2.663468 

 

Timings for individual modules:

Sum of individual times         ...      287.970 sec (=   4.800 min)
GTO integral calculation        ...        3.137 sec (=   0.052 min)   1.1 %
SCF iterations                  ...       62.539 sec (=   1.042 min)  21.7 %
MP2 module                      ...      222.295 sec (=   3.705 min)  77.2 %
                             ****ORCA TERMINATED NORMALLY****
TOTAL RUN TIME: 0 days 0 hours 4 minutes 49 seconds 75 msec
