
                                 *****************
                                 * O   R   C   A *
                                 *****************

           --- An Ab Initio, DFT and Semiempirical electronic structure package ---

                  #######################################################
                  #                        -***-                        #
                  #          Department of theory and spectroscopy      #
                  #               Directorship: Frank Neese             #
                  #        Max Planck Institute fuer Kohlenforschung    #
                  #                Kaiser Wilhelm Platz 1               #
                  #                 D-45470 Muelheim/Ruhr               #
                  #                      Germany                        #
                  #                                                     #
                  #                  All rights reserved                #
                  #                        -***-                        #
                  #######################################################


                         Program Version 4.2.0 -  RELEASE  -


 With contributions from (in alphabetic order):
   Daniel Aravena         : Magnetic Suceptibility
   Michael Atanasov       : Ab Initio Ligand Field Theory (pilot matlab implementation)
   Alexander A. Auer      : GIAO ZORA, VPT2
   Ute Becker             : Parallelization
   Giovanni Bistoni       : ED, misc. LED, open-shell LED, HFLED
   Martin Brehm           : Molecular dynamics
   Dmytro Bykov           : SCF Hessian
   Vijay G. Chilkuri      : MRCI spin determinant printing, contributions to CSF-ICE
   Dipayan Datta          : RHF DLPNO-CCSD density
   Achintya Kumar Dutta   : EOM-CC, STEOM-CC
   Dmitry Ganyushin       : Spin-Orbit,Spin-Spin,Magnetic field MRCI
   Miquel Garcia          : C-PCM Hessian, Gaussian charge scheme
   Yang Guo               : DLPNO-NEVPT2, CIM, IAO-localization
   Andreas Hansen         : Spin unrestricted coupled pair/coupled cluster methods
   Benjamin Helmich-Paris : CASSCF linear response (MC-RPA)
   Lee Huntington         : MR-EOM, pCC
   Robert Izsak           : Overlap fitted RIJCOSX, COSX-SCS-MP3, EOM
   Christian Kollmar      : KDIIS, OOCD, Brueckner-CCSD(T), CCSD density
   Simone Kossmann        : Meta GGA functionals, TD-DFT gradient, OOMP2, MP2 Hessian
   Martin Krupicka        : AUTO-CI
   Lucas Lang             : DCDCAS
   Dagmar Lenk            : GEPOL surface, SMD
   Dimitrios Liakos       : Extrapolation schemes; Compound Job, initial MDCI parallelization
   Dimitrios Manganas     : Further ROCIS development; embedding schemes
   Dimitrios Pantazis     : SARC Basis sets
   Taras Petrenko         : DFT Hessian,TD-DFT gradient, ASA, ECA, R-Raman, ABS, FL, XAS/XES, NRVS
   Peter Pinski           : DLPNO-MP2, DLPNO-MP2 Gradient
   Christoph Reimann      : Effective Core Potentials
   Marius Retegan         : Local ZFS, SOC
   Christoph Riplinger    : Optimizer, TS searches, QM/MM, DLPNO-CCSD(T), (RO)-DLPNO pert. Triples
   Tobias Risthaus        : Range-separated hybrids, TD-DFT gradient, RPA, STAB
   Michael Roemelt        : Original ROCIS implementation
   Masaaki Saitow         : Open-shell DLPNO-CCSD energy and density
   Barbara Sandhoefer     : DKH picture change effects
   Avijit Sen             : IP-ROCIS
   Kantharuban Sivalingam : CASSCF convergence, NEVPT2, FIC-MRCI
   Bernardo de Souza      : ESD, SOC TD-DFT
   Georgi Stoychev        : AutoAux, RI-MP2 NMR
   Willem Van den Heuvel  : Paramagnetic NMR
   Boris Wezisla          : Elementary symmetry handling
   Frank Wennmohs         : Technical directorship


 We gratefully acknowledge several colleagues who have allowed us to
 interface, adapt or use parts of their codes:
   Stefan Grimme, W. Hujo, H. Kruse,             : VdW corrections, initial TS optimization,
                  C. Bannwarth                     DFT functionals, gCP, sTDA/sTD-DF
   Ed Valeev, F. Pavosevic, A. Kumar             : LibInt (2-el integral package), F12 methods
   Garnet Chan, S. Sharma, J. Yang, R. Olivares  : DMRG
   Ulf Ekstrom                                   : XCFun DFT Library
   Mihaly Kallay                                 : mrcc  (arbitrary order and MRCC methods)
   Andreas Klamt, Michael Diedenhofen            : otool_cosmo (COSMO solvation model)
   Jiri Pittner, Ondrej Demel                    : Mk-CCSD
   Frank Weinhold                                : gennbo (NPA and NBO analysis)
   Christopher J. Cramer and Donald G. Truhlar   : smd solvation model
   Lars Goerigk                                  : TD-DFT with DH, B97 family of functionals
   V. Asgeirsson, H. Jonsson                     : NEB implementation
   FAccTs GmbH                                   : IRC, NEB, NEB-TS, Multilevel, MM, QM/MM, CI optimization
   S Lehtola, MJT Oliveira, MAL Marques          : LibXC Library


 Your calculation uses the libint2 library for the computation of 2-el integrals
 For citations please refer to: http://libint.valeyev.net

 Your ORCA version has been built with support for libXC version: 4.2.3
 For citations please refer to: https://tddft.org/programs/libxc/

 This ORCA versions uses:
   CBLAS   interface :  Fast vector & matrix operations
   LAPACKE interface :  Fast linear algebra routines
   SCALAPACK package :  Parallel linear algebra routines


----- Orbital basis set information -----
Your calculation utilizes the basis: def2-TZVP
   F. Weigend and R. Ahlrichs, Phys. Chem. Chem. Phys. 7, 3297 (2005).

================================================================================
                                        WARNINGS
                       Please study these warnings very carefully!
================================================================================


WARNING: The frozen-core approximation for MP2-gradient calculations is turned on by default.

INFO   : the flag for use of LIBINT has been found!

================================================================================
                                       INPUT FILE
================================================================================
NAME = 12mecn.remya.etal.2.mol8,10-orca.engrad-mp2.def2tzvp.frozencore.inp
|  1> # 12mecn.remya.etal.2.mol8,10
|  2> ! MP2 def2-TZVP EnGrad TightSCF
|  3> 
|  4> %pal
|  5>     nprocs 6
|  6> end
|  7> 
|  8> %maxcore 8000
|  9> 
| 10> %scf
| 11>     ConvForced true
| 12> end
| 13> 
| 14> *xyz 0 1
| 15> C   1.912641000  -2.468050000  -1.750510000
| 16> H   2.876947000  -2.793500000  -2.151200000
| 17> H   1.688016000  -1.463720000  -2.122170000
| 18> H   1.123460000  -3.154780000  -2.069590000
| 19> C   1.977850000  -2.444240000  -0.306900000
| 20> N   2.036566000  -2.426130000   0.858249000
| 21> C   4.602033000   0.321019000  -1.784800000
| 22> H   4.827650000  -0.662160000  -2.207910000
| 23> H   5.320558000   1.057980000  -2.148500000
| 24> H   3.601982000   0.643751000  -2.087520000
| 25> C   4.654967000   0.244048000  -0.343060000
| 26> N   4.691648000   0.166590000   0.820757000
| 27> *
| 28> 
| 29>                          ****END OF INPUT****
================================================================================

                     *******************************
                     * Energy+Gradient Calculation *
                     *******************************

---------------------------------
CARTESIAN COORDINATES (ANGSTROEM)
---------------------------------
  C      1.912641   -2.468050   -1.750510
  H      2.876947   -2.793500   -2.151200
  H      1.688016   -1.463720   -2.122170
  H      1.123460   -3.154780   -2.069590
  C      1.977850   -2.444240   -0.306900
  N      2.036566   -2.426130    0.858249
  C      4.602033    0.321019   -1.784800
  H      4.827650   -0.662160   -2.207910
  H      5.320558    1.057980   -2.148500
  H      3.601982    0.643751   -2.087520
  C      4.654967    0.244048   -0.343060
  N      4.691648    0.166590    0.820757

----------------------------
CARTESIAN COORDINATES (A.U.)
----------------------------
  NO LB      ZA    FRAG     MASS         X           Y           Z
   0 C     6.0000    0    12.011    3.614368   -4.663939   -3.307984
   1 H     1.0000    0     1.008    5.436642   -5.278950   -4.065179
   2 H     1.0000    0     1.008    3.189888   -2.766030   -4.010320
   3 H     1.0000    0     1.008    2.123032   -5.961670   -3.910958
   4 C     6.0000    0    12.011    3.737595   -4.618944   -0.579957
   5 N     7.0000    0    14.007    3.848552   -4.584721    1.621856
   6 C     6.0000    0    12.011    8.696582    0.606638   -3.372783
   7 H     1.0000    0     1.008    9.122936   -1.251301   -4.172345
   8 H     1.0000    0     1.008   10.054397    1.999292   -4.060077
   9 H     1.0000    0     1.008    6.806760    1.216513   -3.944841
  10 C     6.0000    0    12.011    8.796613    0.461184   -0.648289
  11 N     7.0000    0    14.007    8.865930    0.314809    1.551006

--------------------------------
INTERNAL COORDINATES (ANGSTROEM)
--------------------------------
 C      0   0   0     0.000000000000     0.00000000     0.00000000
 H      1   0   0     1.093780709391     0.00000000     0.00000000
 H      1   2   0     1.094196643719   109.24840459     0.00000000
 H      1   2   3     1.093716960672   110.02596778   119.88682690
 C      1   2   3     1.445278160729   109.33167490   240.21436120
 N      5   1   2     1.166768071622   179.69652586     7.67184803
 C      3   1   2     3.433745315441   105.63381161   315.31260464
 H      7   3   1     1.093876614994    70.72314739    44.62370906
 H      7   3   1     1.091635186839   151.25176411   141.29093429
 H      7   3   1     1.093570914402    49.46796944   186.10745565
 C      7   3   1     1.444763223091    95.82254614   296.18243263
 N     11   7   3     1.166968400178   179.19159853    36.54643997

---------------------------
INTERNAL COORDINATES (A.U.)
---------------------------
 C      0   0   0     0.000000000000     0.00000000     0.00000000
 H      1   0   0     2.066945991315     0.00000000     0.00000000
 H      1   2   0     2.067731993284   109.24840459     0.00000000
 H      1   2   3     2.066825523694   110.02596778   119.88682690
 C      1   2   3     2.731179911116   109.33167490   240.21436120
 N      5   1   2     2.204872117169   179.69652586     7.67184803
 C      3   1   2     6.488838259818   105.63381161   315.31260464
 H      7   3   1     2.067127226639    70.72314739    44.62370906
 H      7   3   1     2.062891541279   151.25176411   141.29093429
 H      7   3   1     2.066549536241    49.46796944   186.10745565
 C      7   3   1     2.730206820004    95.82254614   296.18243263
 N     11   7   3     2.205250683277   179.19159853    36.54643997

---------------------
BASIS SET INFORMATION
---------------------
There are 3 groups of distinct atoms

 Group   1 Type C   : 11s6p2d1f contracted to 5s3p2d1f pattern {62111/411/11/1}
 Group   2 Type H   : 5s1p contracted to 3s1p pattern {311/1}
 Group   3 Type N   : 11s6p2d1f contracted to 5s3p2d1f pattern {62111/411/11/1}

Atom   0C    basis set group =>   1
Atom   1H    basis set group =>   2
Atom   2H    basis set group =>   2
Atom   3H    basis set group =>   2
Atom   4C    basis set group =>   1
Atom   5N    basis set group =>   3
Atom   6C    basis set group =>   1
Atom   7H    basis set group =>   2
Atom   8H    basis set group =>   2
Atom   9H    basis set group =>   2
Atom  10C    basis set group =>   1
Atom  11N    basis set group =>   3


           ************************************************************
           *        Program running with 6 parallel MPI-processes     *
           *              working on a common directory               *
           ************************************************************
------------------------------------------------------------------------------
                           ORCA GTO INTEGRAL CALCULATION
------------------------------------------------------------------------------

                         BASIS SET STATISTICS AND STARTUP INFO

 # of primitive gaussian shells          ...  156
 # of primitive gaussian functions       ...  324
 # of contracted shells                  ...   90
 # of contracted basis functions         ...  222
 Highest angular momentum                ...    3
 Maximum contraction depth               ...    6
 Integral package used                   ... LIBINT
 Integral threshhold            Thresh   ...  2.500e-11
 Primitive cut-off              TCut     ...  2.500e-12


------------------------------ INTEGRAL EVALUATION ----------------------------


 * One electron integrals 
 Pre-screening matrix                    ... done
 Shell pair data                         ... done (   0.001 sec)



           ************************************************************
           *        Program running with 6 parallel MPI-processes     *
           *              working on a common directory               *
           ************************************************************
-------------------------------------------------------------------------------
                                 ORCA SCF
-------------------------------------------------------------------------------

------------
SCF SETTINGS
------------
Hamiltonian:
 Ab initio Hamiltonian  Method          .... Hartree-Fock(GTOs)


General Settings:
 Integral files         IntName         .... 12mecn.remya.etal.2.mol8,10-orca.engrad-mp2.def2tzvp.frozencore
 Hartree-Fock type      HFTyp           .... RHF
 Total Charge           Charge          ....    0
 Multiplicity           Mult            ....    1
 Number of Electrons    NEL             ....   44
 Basis Dimension        Dim             ....  222
 Nuclear Repulsion      ENuc            ....    179.2928471546 Eh

Convergence Acceleration:
 DIIS                   CNVDIIS         .... on
   Start iteration      DIISMaxIt       ....    12
   Startup error        DIISStart       ....  0.200000
   # of expansion vecs  DIISMaxEq       ....     5
   Bias factor          DIISBfac        ....   1.050
   Max. coefficient     DIISMaxC        ....  10.000
 Newton-Raphson         CNVNR           .... off
 SOSCF                  CNVSOSCF        .... on
   Start iteration      SOSCFMaxIt      ....   150
   Startup grad/error   SOSCFStart      ....  0.003300
 Level Shifting         CNVShift        .... on
   Level shift para.    LevelShift      ....    0.2500
   Turn off err/grad.   ShiftErr        ....    0.0010
 Zerner damping         CNVZerner       .... off
 Static damping         CNVDamp         .... on
   Fraction old density DampFac         ....    0.7000
   Max. Damping (<1)    DampMax         ....    0.9800
   Min. Damping (>=0)   DampMin         ....    0.0000
   Turn off err/grad.   DampErr         ....    0.1000
 Fernandez-Rico         CNVRico         .... off

SCF Procedure:
 Maximum # iterations   MaxIter         ....   125
 SCF integral mode      SCFMode         .... Direct
   Integral package                     .... LIBINT
 Reset frequency        DirectResetFreq ....    20
 Integral Threshold     Thresh          ....  2.500e-11 Eh
 Primitive CutOff       TCut            ....  2.500e-12 Eh

Convergence Tolerance:
 Convergence Check Mode ConvCheckMode   .... Total+1el-Energy
 Convergence forced     ConvForced      .... 1
 Energy Change          TolE            ....  1.000e-08 Eh
 1-El. energy change                    ....  1.000e-05 Eh
 Orbital Gradient       TolG            ....  1.000e-05
 Orbital Rotation angle TolX            ....  1.000e-05
 DIIS Error             TolErr          ....  5.000e-07


Diagonalization of the overlap matrix:
Smallest eigenvalue                        ... 1.385e-04
Time for diagonalization                   ...    0.007 sec
Threshold for overlap eigenvalues          ... 1.000e-08
Number of eigenvalues below threshold      ... 0
Time for construction of square roots      ...    0.004 sec
Total time needed                          ...    0.011 sec

-------------------
DFT GRID GENERATION
-------------------

General Integration Accuracy     IntAcc      ...  4.340
Radial Grid Type                 RadialGrid  ... Gauss-Chebyshev
Angular Grid (max. acc.)         AngularGrid ... Lebedev-110
Angular grid pruning method      GridPruning ... 3 (G Style)
Weight generation scheme         WeightScheme... Becke
Basis function cutoff            BFCut       ...    1.0000e-11
Integration weight cutoff        WCut        ...    1.0000e-14
Grids for H and He will be reduced by one unit

# of grid points (after initial pruning)     ...  14792 (   0.0 sec)
# of grid points (after weights+screening)   ...  14023 (   0.0 sec)
nearest neighbour list constructed           ...    0.0 sec
Grid point re-assignment to atoms done       ...    0.0 sec
Grid point division into batches done        ...    0.0 sec
Reduced shell lists constructed in    0.0 sec

Total number of grid points                  ...    14023
Total number of batches                      ...      225
Average number of points per batch           ...       62
Average number of grid points per atom       ...     1169
Average number of shells per batch           ...    59.85 (66.50%)
Average number of basis functions per batch  ...   146.46 (65.97%)
Average number of large shells per batch     ...    48.18 (80.51%)
Average number of large basis fcns per batch ...   113.87 (77.75%)
Maximum spatial batch extension              ...  15.32, 15.14, 19.42 au
Average spatial batch extension              ...   0.60,  0.60,  0.68 au

Time for grid setup =    0.039 sec

------------------------------
INITIAL GUESS: MODEL POTENTIAL
------------------------------
Loading Hartree-Fock densities                     ... done
Calculating cut-offs                               ... done
Setting up the integral package                    ... done
Initializing the effective Hamiltonian             ... done
Starting the Coulomb interaction                   ... done (   0.0 sec)
Reading the grid                                   ... done
Mapping shells                                     ... done
Starting the XC term evaluation                    ... done (   0.0 sec)
Transforming the Hamiltonian                       ... done (   0.0 sec)
Diagonalizing the Hamiltonian                      ... done (   0.0 sec)
Back transforming the eigenvectors                 ... done (   0.0 sec)
Now organizing SCF variables                       ... done
                      ------------------
                      INITIAL GUESS DONE (   0.2 sec)
                      ------------------
--------------
SCF ITERATIONS
--------------
ITER       Energy         Delta-E        Max-DP      RMS-DP      [F,P]     Damp
               ***  Starting incremental Fock matrix formation  ***
  0   -263.6005977758   0.000000000000 0.03848580  0.00109348  0.2894476 0.7000
  1   -263.7242600135  -0.123662237718 0.02749295  0.00086796  0.1881203 0.7000
                               ***Turning on DIIS***
  2   -263.7957174942  -0.071457480745 0.01625976  0.00056154  0.1423791 0.7000
  3   -264.4213076075  -0.625590113333 0.00997948  0.00036002  0.1057753 0.7000
  4   -264.3981553600   0.023152247566 0.02582934  0.00088580  0.0745136 0.0000
  5   -263.9626019653   0.435553394679 0.00664334  0.00016025  0.0064583 0.0000
                      *** Initiating the SOSCF procedure ***
                           *** Shutting down DIIS ***
                      *** Re-Reading the Fockian *** 
                      *** Removing any level shift *** 
ITER      Energy       Delta-E        Grad      Rot      Max-DP    RMS-DP
  6   -263.95064734   0.0119546243  0.001225  0.001225  0.004442  0.000099
               *** Restarting incremental Fock matrix formation ***
  7   -263.94268346   0.0079638818  0.000478  0.000720  0.003134  0.000070
  8   -263.94269582  -0.0000123605  0.000316  0.000487  0.002556  0.000057
  9   -263.94269820  -0.0000023808  0.000131  0.000158  0.000832  0.000018
 10   -263.94269879  -0.0000005935  0.000012  0.000012  0.000074  0.000002
 11   -263.94269880  -0.0000000062  0.000005  0.000010  0.000021  0.000001
                  ***Gradient check signals convergence***
              ***Rediagonalizing the Fockian in SOSCF/NRSCF***

               *****************************************************
               *                     SUCCESS                       *
               *           SCF CONVERGED AFTER  12 CYCLES          *
               *****************************************************


----------------
TOTAL SCF ENERGY
----------------

Total Energy       :         -263.94269880 Eh           -7182.24597 eV

Components:
Nuclear Repulsion  :          179.29284715 Eh            4878.80640 eV
Electronic Energy  :         -443.23554596 Eh          -12061.05238 eV
One Electron Energy:         -711.11810486 Eh          -19350.50739 eV
Two Electron Energy:          267.88255890 Eh            7289.45502 eV

Virial components:
Potential Energy   :         -527.36557331 Eh          -14350.34681 eV
Kinetic Energy     :          263.42287451 Eh            7168.10083 eV
Virial Ratio       :            2.00197335


---------------
SCF CONVERGENCE
---------------

  Last Energy change         ...   -4.2166e-10  Tolerance :   1.0000e-08
  Last MAX-Density change    ...    8.6919e-06  Tolerance :   1.0000e-07
  Last RMS-Density change    ...    1.8041e-07  Tolerance :   5.0000e-09
  Last Orbital Gradient      ...    1.5654e-06  Tolerance :   1.0000e-05
  Last Orbital Rotation      ...    3.5242e-06  Tolerance :   1.0000e-05

             **** THE GBW FILE WAS UPDATED (12mecn.remya.etal.2.mol8,10-orca.engrad-mp2.def2tzvp.frozencore.gbw) ****
             **** DENSITY FILE WAS UPDATED (12mecn.remya.etal.2.mol8,10-orca.engrad-mp2.def2tzvp.frozencore.scfp) ****
             **** ENERGY FILE WAS UPDATED (12mecn.remya.etal.2.mol8,10-orca.engrad-mp2.def2tzvp.frozencore.en.tmp) ****
             **** THE GBW FILE WAS UPDATED (12mecn.remya.etal.2.mol8,10-orca.engrad-mp2.def2tzvp.frozencore.gbw) ****
             **** DENSITY FILE WAS UPDATED (12mecn.remya.etal.2.mol8,10-orca.engrad-mp2.def2tzvp.frozencore.scfp) ****
----------------
ORBITAL ENERGIES
----------------

  NO   OCC          E(Eh)            E(eV) 
   0   2.0000     -15.571915      -423.7333 
   1   2.0000     -15.571900      -423.7329 
   2   2.0000     -11.290311      -307.2250 
   3   2.0000     -11.289999      -307.2165 
   4   2.0000     -11.276714      -306.8550 
   5   2.0000     -11.276693      -306.8544 
   6   2.0000      -1.212704       -32.9994 
   7   2.0000      -1.211422       -32.9645 
   8   2.0000      -1.048948       -28.5433 
   9   2.0000      -1.046206       -28.4687 
  10   2.0000      -0.704089       -19.1592 
  11   2.0000      -0.701358       -19.0849 
  12   2.0000      -0.643313       -17.5054 
  13   2.0000      -0.639927       -17.4133 
  14   2.0000      -0.634787       -17.2734 
  15   2.0000      -0.629470       -17.1287 
  16   2.0000      -0.553990       -15.0748 
  17   2.0000      -0.551356       -15.0032 
  18   2.0000      -0.462951       -12.5975 
  19   2.0000      -0.457134       -12.4393 
  20   2.0000      -0.454104       -12.3568 
  21   2.0000      -0.447221       -12.1695 
  22   0.0000       0.095030         2.5859 
  23   0.0000       0.142537         3.8786 
  24   0.0000       0.146769         3.9938 
  25   0.0000       0.155472         4.2306 
  26   0.0000       0.184942         5.0325 
  27   0.0000       0.188376         5.1260 
  28   0.0000       0.191317         5.2060 
  29   0.0000       0.206727         5.6253 
  30   0.0000       0.212504         5.7825 
  31   0.0000       0.225800         6.1443 
  32   0.0000       0.245649         6.6844 
  33   0.0000       0.249888         6.7998 
  34   0.0000       0.277382         7.5479 
  35   0.0000       0.283649         7.7185 
  36   0.0000       0.293184         7.9779 
  37   0.0000       0.318767         8.6741 
  38   0.0000       0.332847         9.0572 
  39   0.0000       0.362792         9.8721 
  40   0.0000       0.377072        10.2606 
  41   0.0000       0.397731        10.8228 
  42   0.0000       0.406639        11.0652 
  43   0.0000       0.441348        12.0097 
  44   0.0000       0.473691        12.8898 
  45   0.0000       0.476443        12.9647 
  46   0.0000       0.522793        14.2259 
  47   0.0000       0.530537        14.4366 
  48   0.0000       0.535063        14.5598 
  49   0.0000       0.564129        15.3507 
  50   0.0000       0.579109        15.7583 
  51   0.0000       0.593481        16.1494 
  52   0.0000       0.597823        16.2676 
  53   0.0000       0.611087        16.6285 
  54   0.0000       0.619604        16.8603 
  55   0.0000       0.620387        16.8816 
  56   0.0000       0.638085        17.3632 
  57   0.0000       0.653295        17.7771 
  58   0.0000       0.695458        18.9244 
  59   0.0000       0.716978        19.5100 
  60   0.0000       0.755504        20.5583 
  61   0.0000       0.808465        21.9994 
  62   0.0000       0.812872        22.1194 
  63   0.0000       0.815538        22.1919 
  64   0.0000       0.822972        22.3942 
  65   0.0000       0.823927        22.4202 
  66   0.0000       0.855294        23.2737 
  67   0.0000       0.907377        24.6910 
  68   0.0000       0.919762        25.0280 
  69   0.0000       0.925727        25.1903 
  70   0.0000       0.930064        25.3083 
  71   0.0000       0.969268        26.3751 
  72   0.0000       1.029949        28.0263 
  73   0.0000       1.049018        28.5452 
  74   0.0000       1.118348        30.4318 
  75   0.0000       1.121382        30.5144 
  76   0.0000       1.168724        31.8026 
  77   0.0000       1.173676        31.9373 
  78   0.0000       1.316359        35.8199 
  79   0.0000       1.332770        36.2665 
  80   0.0000       1.417677        38.5769 
  81   0.0000       1.418983        38.6125 
  82   0.0000       1.429416        38.8964 
  83   0.0000       1.445841        39.3433 
  84   0.0000       1.456513        39.6337 
  85   0.0000       1.471764        40.0487 
  86   0.0000       1.472983        40.0819 
  87   0.0000       1.475737        40.1568 
  88   0.0000       1.484392        40.3924 
  89   0.0000       1.506200        40.9858 
  90   0.0000       1.515258        41.2323 
  91   0.0000       1.591630        43.3105 
  92   0.0000       1.693103        46.0717 
  93   0.0000       1.712824        46.6083 
  94   0.0000       1.722578        46.8737 
  95   0.0000       1.739141        47.3244 
  96   0.0000       1.742916        47.4272 
  97   0.0000       1.764579        48.0166 
  98   0.0000       1.766324        48.0641 
  99   0.0000       1.771645        48.2089 
 100   0.0000       1.802483        49.0481 
 101   0.0000       1.805949        49.1424 
 102   0.0000       1.826670        49.7062 
 103   0.0000       1.887576        51.3636 
 104   0.0000       1.929845        52.5138 
 105   0.0000       1.930881        52.5419 
 106   0.0000       1.950018        53.0627 
 107   0.0000       1.962371        53.3988 
 108   0.0000       1.978904        53.8487 
 109   0.0000       2.003582        54.5202 
 110   0.0000       2.218715        60.3743 
 111   0.0000       2.227570        60.6153 
 112   0.0000       2.240281        60.9611 
 113   0.0000       2.242128        61.0114 
 114   0.0000       2.260471        61.5106 
 115   0.0000       2.277217        61.9662 
 116   0.0000       2.381256        64.7973 
 117   0.0000       2.453975        66.7761 
 118   0.0000       2.537838        69.0581 
 119   0.0000       2.544435        69.2376 
 120   0.0000       2.552629        69.4606 
 121   0.0000       2.572355        69.9973 
 122   0.0000       2.597629        70.6851 
 123   0.0000       2.617705        71.2314 
 124   0.0000       2.620436        71.3057 
 125   0.0000       2.628979        71.5382 
 126   0.0000       2.652981        72.1913 
 127   0.0000       2.662204        72.4422 
 128   0.0000       2.707491        73.6746 
 129   0.0000       2.725189        74.1562 
 130   0.0000       2.738390        74.5154 
 131   0.0000       2.746303        74.7307 
 132   0.0000       2.753118        74.9161 
 133   0.0000       2.798330        76.1464 
 134   0.0000       2.915110        79.3242 
 135   0.0000       2.915262        79.3283 
 136   0.0000       2.915919        79.3462 
 137   0.0000       2.916493        79.3618 
 138   0.0000       2.941508        80.0425 
 139   0.0000       2.945714        80.1569 
 140   0.0000       2.949737        80.2664 
 141   0.0000       2.973883        80.9235 
 142   0.0000       3.011378        81.9438 
 143   0.0000       3.036057        82.6153 
 144   0.0000       3.081220        83.8442 
 145   0.0000       3.090725        84.1029 
 146   0.0000       3.099783        84.3494 
 147   0.0000       3.103852        84.4601 
 148   0.0000       3.213756        87.4508 
 149   0.0000       3.235254        88.0357 
 150   0.0000       3.242960        88.2454 
 151   0.0000       3.255066        88.5749 
 152   0.0000       3.256630        88.6174 
 153   0.0000       3.303253        89.8861 
 154   0.0000       3.319510        90.3285 
 155   0.0000       3.332640        90.6858 
 156   0.0000       3.339640        90.8762 
 157   0.0000       3.394999        92.3826 
 158   0.0000       3.431520        93.3764 
 159   0.0000       3.458363        94.1068 
 160   0.0000       3.466374        94.3248 
 161   0.0000       3.471837        94.4735 
 162   0.0000       3.504175        95.3535 
 163   0.0000       3.545240        96.4709 
 164   0.0000       3.627735        98.7157 
 165   0.0000       3.651104        99.3516 
 166   0.0000       3.654090        99.4328 
 167   0.0000       3.657125        99.5154 
 168   0.0000       3.797793       103.3432 
 169   0.0000       3.800194       103.4085 
 170   0.0000       3.802896       103.4821 
 171   0.0000       3.811218       103.7085 
 172   0.0000       3.925057       106.8062 
 173   0.0000       3.933298       107.0305 
 174   0.0000       3.938057       107.1600 
 175   0.0000       3.945008       107.3491 
 176   0.0000       3.960393       107.7678 
 177   0.0000       4.004797       108.9761 
 178   0.0000       4.237460       115.3072 
 179   0.0000       4.242857       115.4540 
 180   0.0000       4.255076       115.7865 
 181   0.0000       4.275576       116.3443 
 182   0.0000       4.345179       118.2383 
 183   0.0000       4.346093       118.2632 
 184   0.0000       4.349798       118.3640 
 185   0.0000       4.349855       118.3656 
 186   0.0000       4.556342       123.9844 
 187   0.0000       4.574296       124.4729 
 188   0.0000       4.729042       128.6838 
 189   0.0000       4.740543       128.9967 
 190   0.0000       4.752158       129.3128 
 191   0.0000       4.799822       130.6098 
 192   0.0000       4.822514       131.2273 
 193   0.0000       4.885706       132.9468 
 194   0.0000       4.963446       135.0622 
 195   0.0000       4.963705       135.0693 
 196   0.0000       4.964230       135.0836 
 197   0.0000       4.976191       135.4090 
 198   0.0000       5.068230       137.9136 
 199   0.0000       5.070001       137.9617 
 200   0.0000       5.070789       137.9832 
 201   0.0000       5.084878       138.3666 
 202   0.0000       5.191430       141.2660 
 203   0.0000       5.250557       142.8749 
 204   0.0000       5.556323       151.1952 
 205   0.0000       5.558497       151.2544 
 206   0.0000       5.567237       151.4922 
 207   0.0000       5.594542       152.2352 
 208   0.0000       6.021544       163.8545 
 209   0.0000       6.032622       164.1560 
 210   0.0000       6.086416       165.6198 
 211   0.0000       6.090772       165.7383 
 212   0.0000       6.097011       165.9081 
 213   0.0000       6.125413       166.6810 
 214   0.0000       6.460882       175.8095 
 215   0.0000       6.478402       176.2863 
 216   0.0000      23.467240       638.5761 
 217   0.0000      23.542952       640.6363 
 218   0.0000      24.376424       663.3162 
 219   0.0000      24.410875       664.2537 
 220   0.0000      33.394872       908.7207 
 221   0.0000      33.448818       910.1886 

                    ********************************
                    * MULLIKEN POPULATION ANALYSIS *
                    ********************************

-----------------------
MULLIKEN ATOMIC CHARGES
-----------------------
   0 C :   -0.168062
   1 H :    0.148811
   2 H :    0.144553
   3 H :    0.167659
   4 C :   -0.123842
   5 N :   -0.169101
   6 C :   -0.168538
   7 H :    0.146135
   8 H :    0.167178
   9 H :    0.147743
  10 C :   -0.123243
  11 N :   -0.169292
Sum of atomic charges:    0.0000000

--------------------------------
MULLIKEN REDUCED ORBITAL CHARGES
--------------------------------
  0 C s       :     3.141951  s :     3.141951
      pz      :     0.799087  p :     2.959166
      px      :     1.083438
      py      :     1.076641
      dz2     :     0.017824  d :     0.063468
      dxz     :     0.012201
      dyz     :     0.011689
      dx2y2   :     0.010367
      dxy     :     0.011388
      f0      :     0.001693  f :     0.003476
      f+1     :     0.000227
      f-1     :     0.000213
      f+2     :     0.000065
      f-2     :     0.000071
      f+3     :     0.000396
      f-3     :     0.000811
  1 H s       :     0.828960  s :     0.828960
      pz      :     0.005111  p :     0.022230
      px      :     0.012425
      py      :     0.004694
  2 H s       :     0.833248  s :     0.833248
      pz      :     0.004895  p :     0.022199
      px      :     0.004160
      py      :     0.013145
  3 H s       :     0.809935  s :     0.809935
      pz      :     0.004476  p :     0.022406
      px      :     0.009707
      py      :     0.008222
  4 C s       :     3.236106  s :     3.236106
      pz      :     0.962717  p :     2.758015
      px      :     0.897169
      py      :     0.898129
      dz2     :     0.027251  d :     0.112319
      dxz     :     0.042044
      dyz     :     0.042274
      dx2y2   :     0.000178
      dxy     :     0.000572
      f0      :     0.004175  f :     0.017401
      f+1     :     0.006532
      f-1     :     0.006549
      f+2     :     0.000057
      f-2     :     0.000087
      f+3     :     0.000000
      f-3     :     0.000000
  5 N s       :     3.721403  s :     3.721403
      pz      :     1.283415  p :     3.389246
      px      :     1.052947
      py      :     1.052883
      dz2     :     0.011874  d :     0.055489
      dxz     :     0.021684
      dyz     :     0.021754
      dx2y2   :     0.000085
      dxy     :     0.000091
      f0      :     0.000628  f :     0.002964
      f+1     :     0.001156
      f-1     :     0.001163
      f+2     :     0.000008
      f-2     :     0.000008
      f+3     :     0.000000
      f-3     :     0.000000
  6 C s       :     3.141093  s :     3.141093
      pz      :     0.800695  p :     2.960419
      px      :     1.083087
      py      :     1.076637
      dz2     :     0.017887  d :     0.063548
      dxz     :     0.010857
      dyz     :     0.013069
      dx2y2   :     0.010413
      dxy     :     0.011323
      f0      :     0.001676  f :     0.003478
      f+1     :     0.000230
      f-1     :     0.000228
      f+2     :     0.000058
      f-2     :     0.000088
      f+3     :     0.000508
      f-3     :     0.000691
  7 H s       :     0.831669  s :     0.831669
      pz      :     0.005292  p :     0.022196
      px      :     0.004132
      py      :     0.012772
  8 H s       :     0.810334  s :     0.810334
      pz      :     0.004821  p :     0.022487
      px      :     0.008684
      py      :     0.008982
  9 H s       :     0.829998  s :     0.829998
      pz      :     0.004416  p :     0.022260
      px      :     0.013124
      py      :     0.004720
 10 C s       :     3.235482  s :     3.235482
      pz      :     0.962325  p :     2.758026
      px      :     0.897587
      py      :     0.898115
      dz2     :     0.027194  d :     0.112328
      dxz     :     0.041954
      dyz     :     0.042189
      dx2y2   :     0.000389
      dxy     :     0.000602
      f0      :     0.004218  f :     0.017407
      f+1     :     0.006486
      f-1     :     0.006479
      f+2     :     0.000108
      f-2     :     0.000115
      f+3     :     0.000001
      f-3     :     0.000001
 11 N s       :     3.721495  s :     3.721495
      pz      :     1.282801  p :     3.389345
      px      :     1.054142
      py      :     1.052402
      dz2     :     0.011952  d :     0.055489
      dxz     :     0.021680
      dyz     :     0.021592
      dx2y2   :     0.000130
      dxy     :     0.000135
      f0      :     0.000637  f :     0.002963
      f+1     :     0.001154
      f-1     :     0.001141
      f+2     :     0.000016
      f-2     :     0.000015
      f+3     :     0.000000
      f-3     :     0.000000


                     *******************************
                     * LOEWDIN POPULATION ANALYSIS *
                     *******************************

----------------------
LOEWDIN ATOMIC CHARGES
----------------------
   0 C :   -0.249764
   1 H :    0.141126
   2 H :    0.139890
   3 H :    0.145151
   4 C :   -0.207248
   5 N :    0.030835
   6 C :   -0.249665
   7 H :    0.140586
   8 H :    0.144136
   9 H :    0.141150
  10 C :   -0.207023
  11 N :    0.030827

-------------------------------
LOEWDIN REDUCED ORBITAL CHARGES
-------------------------------
  0 C s       :     2.813653  s :     2.813653
      pz      :     1.029614  p :     3.145046
      px      :     1.058032
      py      :     1.057399
      dz2     :     0.076732  d :     0.265461
      dxz     :     0.063996
      dyz     :     0.062349
      dx2y2   :     0.029809
      dxy     :     0.032575
      f0      :     0.007270  f :     0.025604
      f+1     :     0.005239
      f-1     :     0.005331
      f+2     :     0.002481
      f-2     :     0.001988
      f+3     :     0.001083
      f-3     :     0.002213
  1 H s       :     0.798490  s :     0.798490
      pz      :     0.013222  p :     0.060384
      px      :     0.032588
      py      :     0.014574
  2 H s       :     0.799847  s :     0.799847
      pz      :     0.012757  p :     0.060263
      px      :     0.013330
      py      :     0.034175
  3 H s       :     0.794179  s :     0.794179
      pz      :     0.012032  p :     0.060670
      px      :     0.025979
      py      :     0.022659
  4 C s       :     2.837335  s :     2.837335
      pz      :     1.189514  p :     2.865493
      px      :     0.838271
      py      :     0.837708
      dz2     :     0.155205  d :     0.445842
      dxz     :     0.144833
      dyz     :     0.144476
      dx2y2   :     0.000242
      dxy     :     0.001086
      f0      :     0.023104  f :     0.058578
      f+1     :     0.017626
      f-1     :     0.017515
      f+2     :     0.000122
      f-2     :     0.000209
      f+3     :     0.000001
      f-3     :     0.000002
  5 N s       :     3.314240  s :     3.314240
      pz      :     1.493610  p :     3.527178
      px      :     1.017266
      py      :     1.016303
      dz2     :     0.045966  d :     0.113224
      dxz     :     0.033554
      dyz     :     0.033454
      dx2y2   :     0.000116
      dxy     :     0.000134
      f0      :     0.006201  f :     0.014523
      f+1     :     0.004148
      f-1     :     0.004117
      f+2     :     0.000030
      f-2     :     0.000028
      f+3     :     0.000000
      f-3     :     0.000000
  6 C s       :     2.813018  s :     2.813018
      pz      :     1.030002  p :     3.145333
      px      :     1.059320
      py      :     1.056011
      dz2     :     0.076723  d :     0.265664
      dxz     :     0.058805
      dyz     :     0.067557
      dx2y2   :     0.030629
      dxy     :     0.031951
      f0      :     0.007255  f :     0.025650
      f+1     :     0.005624
      f-1     :     0.004963
      f+2     :     0.002296
      f-2     :     0.002191
      f+3     :     0.001413
      f-3     :     0.001908
  7 H s       :     0.799120  s :     0.799120
      pz      :     0.013589  p :     0.060294
      px      :     0.013333
      py      :     0.033372
  8 H s       :     0.794856  s :     0.794856
      pz      :     0.012746  p :     0.061008
      px      :     0.023923
      py      :     0.024339
  9 H s       :     0.798454  s :     0.798454
      pz      :     0.011900  p :     0.060396
      px      :     0.033983
      py      :     0.014513
 10 C s       :     2.837203  s :     2.837203
      pz      :     1.188520  p :     2.865219
      px      :     0.837647
      py      :     0.839051
      dz2     :     0.155091  d :     0.446009
      dxz     :     0.144043
      dyz     :     0.144813
      dx2y2   :     0.000810
      dxy     :     0.001251
      f0      :     0.023033  f :     0.058592
      f+1     :     0.017395
      f-1     :     0.017610
      f+2     :     0.000267
      f-2     :     0.000283
      f+3     :     0.000002
      f-3     :     0.000002
 11 N s       :     3.314353  s :     3.314353
      pz      :     1.492257  p :     3.527127
      px      :     1.017496
      py      :     1.017374
      dz2     :     0.045841  d :     0.113183
      dxz     :     0.033370
      dyz     :     0.033569
      dx2y2   :     0.000194
      dxy     :     0.000208
      f0      :     0.006160  f :     0.014510
      f+1     :     0.004095
      f-1     :     0.004143
      f+2     :     0.000057
      f-2     :     0.000055
      f+3     :     0.000000
      f-3     :     0.000000


                      *****************************
                      * MAYER POPULATION ANALYSIS *
                      *****************************

  NA   - Mulliken gross atomic population
  ZA   - Total nuclear charge
  QA   - Mulliken gross atomic charge
  VA   - Mayer's total valence
  BVA  - Mayer's bonded valence
  FA   - Mayer's free valence

  ATOM       NA         ZA         QA         VA         BVA        FA
  0 C      6.1681     6.0000    -0.1681     3.8168     3.8168     0.0000
  1 H      0.8512     1.0000     0.1488     0.9632     0.9632     0.0000
  2 H      0.8554     1.0000     0.1446     0.9625     0.9625     0.0000
  3 H      0.8323     1.0000     0.1677     0.9603     0.9603     0.0000
  4 C      6.1238     6.0000    -0.1238     3.9076     3.9076    -0.0000
  5 N      7.1691     7.0000    -0.1691     3.0317     3.0317     0.0000
  6 C      6.1685     6.0000    -0.1685     3.8171     3.8171     0.0000
  7 H      0.8539     1.0000     0.1461     0.9625     0.9625     0.0000
  8 H      0.8328     1.0000     0.1672     0.9606     0.9606     0.0000
  9 H      0.8523     1.0000     0.1477     0.9630     0.9630    -0.0000
 10 C      6.1232     6.0000    -0.1232     3.9083     3.9083    -0.0000
 11 N      7.1693     7.0000    -0.1693     3.0316     3.0316     0.0000

  Mayer bond orders larger than 0.100000
B(  0-C ,  1-H ) :   0.9707 B(  0-C ,  2-H ) :   0.9689 B(  0-C ,  3-H ) :   0.9567 
B(  0-C ,  4-C ) :   0.9260 B(  4-C ,  5-N ) :   3.0074 B(  6-C ,  7-H ) :   0.9678 
B(  6-C ,  8-H ) :   0.9571 B(  6-C ,  9-H ) :   0.9713 B(  6-C , 10-C ) :   0.9266 
B( 10-C , 11-N ) :   3.0074 

-------
TIMINGS
-------

Total SCF time: 0 days 0 hours 0 min 15 sec 

Total time                  ....      15.035 sec
Sum of individual times     ....      14.802 sec  ( 98.5%)

Fock matrix formation       ....      14.505 sec  ( 96.5%)
Diagonalization             ....       0.052 sec  (  0.3%)
Density matrix formation    ....       0.007 sec  (  0.0%)
Population analysis         ....       0.021 sec  (  0.1%)
Initial guess               ....       0.131 sec  (  0.9%)
Orbital Transformation      ....       0.000 sec  (  0.0%)
Orbital Orthonormalization  ....       0.000 sec  (  0.0%)
DIIS solution               ....       0.020 sec  (  0.1%)
SOSCF solution              ....       0.026 sec  (  0.2%)


           ************************************************************
           *        Program running with 6 parallel MPI-processes     *
           *              working on a common directory               *
           ************************************************************

------------------------------------------------------------------------------
                                ORCA  MP2 
------------------------------------------------------------------------------

Freezing NCore=12 chemical core electrons
MP2 will be done in the AO integral direct mode
The Q1-step will be done using symmetric double matrices
Dimension of the basis                    ...  222
Memory devoted for MP2                    ... 8000 MB   
Memory needed for all in one shot         ...  127 MB
Number of MOs that can be treated together...  189      
MP2 density construction                  ... relaxed
The MP2 gradient is requested => amplitudes will be stored on disk
Total number of MOs              ...   16
Number of MOs treated per batch  ...    3 
Number of batches necessary      ...    1 
OPERATORS   0/  0 PASS   0
-----------------------------------------------
 MP2 CORRELATION ENERGY   :     -1.021254744 Eh
-----------------------------------------------


---------------------
MP2 DENSITY FORMATION
---------------------

Completing the external part of the density      ... done
Storing the unrelaxed density                    ... done

Calculating G(D)                                 ... done
Completing the Lagrangian                        ... done
Solving the Z-vector equations                   ... 

------------------------------------------------------------------------------
                           ORCA CP-SCF CALCULATION
------------------------------------------------------------------------------

Input orbitals are from        ... 12mecn.remya.etal.2.mol8,10-orca.engrad-mp2.def2tzvp.frozencore.gbw
Input Perturbation             ... 12mecn.remya.etal.2.mol8,10-orca.engrad-mp2.def2tzvp.frozencore.pin.tmp
Wavefunction output            ... 12mecn.remya.etal.2.mol8,10-orca.engrad-mp2.def2tzvp.frozencore.pout.tmp
Perturbation mode              ... Real perturbation (singlet)
Solver                         ... POPLE
Max. number of iterations      ... 128
Convergence tolerance          ... 1.000e-08
Integral handling              ... Direct
Number of perturbations        ... 1
Number of operators            ... 1
Orbital ranges used for CP-SCF:
 Operator 0:  Orbitals   0... 21  to  22...221
Variables per vector in CP-SCF ... 4400
Number of vectors sought       ... 1
     CP-SCF ITERATION   0: 
     CP-SCF ITERATION   1:      0.000980166708
     CP-SCF ITERATION   2:      0.000199097991
     CP-SCF ITERATION   3:      0.000004208824
     CP-SCF ITERATION   4:      0.000000294028
     CP-SCF ITERATION   5:      0.000000044249
     CP-SCF ITERATION   6:      0.000000007397
                                                 ... done
Finalizing the relaxed density                   ... done
Transforming P to the AO basis                   ... done
Storing the relaxed density                      ... done

------------------------------------
ENERGY WEIGHTED DENSITY FINALIZATION
------------------------------------

Gathering the parts of the W-matrix              ...                                                      done
Forming the Z-density                            ... done
Transforming Z to the AO basis                   ... done
Calculating G(Z)                                 ... done
Finalizing the W-matrix                          ...                                                      done
Transforming W to the AO basis and storing       ... done

                *********************************************
                * UNRELAXED MP2 DENSITY POPULATION ANALYSIS *
                *********************************************

------------------------------------------------------------------------------
                           ORCA POPULATION ANALYSIS
------------------------------------------------------------------------------
Input electron density              ... 12mecn.remya.etal.2.mol8,10-orca.engrad-mp2.def2tzvp.frozencore.pmp2ur
BaseName (.gbw .S,...)              ... 12mecn.remya.etal.2.mol8,10-orca.engrad-mp2.def2tzvp.frozencore

                    ********************************
                    * MULLIKEN POPULATION ANALYSIS *
                    ********************************

-----------------------
MULLIKEN ATOMIC CHARGES
-----------------------
   0 C :   -0.181723
   1 H :    0.151501
   2 H :    0.147199
   3 H :    0.170376
   4 C :   -0.131860
   5 N :   -0.155474
   6 C :   -0.182231
   7 H :    0.148789
   8 H :    0.169900
   9 H :    0.150428
  10 C :   -0.131248
  11 N :   -0.155659
Sum of atomic charges:    0.0000000

--------------------------------
MULLIKEN REDUCED ORBITAL CHARGES
--------------------------------
  0 C s       :     3.140422  s :     3.140422
      pz      :     0.797654  p :     2.944862
      px      :     1.077044
      py      :     1.070165
      dz2     :     0.020316  d :     0.089101
      dxz     :     0.018285
      dyz     :     0.017796
      dx2y2   :     0.015817
      dxy     :     0.016887
      f0      :     0.002093  f :     0.007337
      f+1     :     0.000895
      f-1     :     0.000880
      f+2     :     0.000603
      f-2     :     0.000614
      f+3     :     0.000939
      f-3     :     0.001312
  1 H s       :     0.823400  s :     0.823400
      pz      :     0.006112  p :     0.025099
      px      :     0.013259
      py      :     0.005728
  2 H s       :     0.827718  s :     0.827718
      pz      :     0.005907  p :     0.025082
      px      :     0.005213
      py      :     0.013963
  3 H s       :     0.804417  s :     0.804417
      pz      :     0.005481  p :     0.025207
      px      :     0.010585
      py      :     0.009141
  4 C s       :     3.235904  s :     3.235904
      pz      :     0.953794  p :     2.747241
      px      :     0.896237
      py      :     0.897210
      dz2     :     0.029736  d :     0.128336
      dxz     :     0.044251
      dyz     :     0.044468
      dx2y2   :     0.004752
      dxy     :     0.005130
      f0      :     0.004637  f :     0.020378
      f+1     :     0.006976
      f-1     :     0.006993
      f+2     :     0.000612
      f-2     :     0.000641
      f+3     :     0.000260
      f-3     :     0.000260
  5 N s       :     3.708448  s :     3.708448
      pz      :     1.271076  p :     3.364159
      px      :     1.046576
      py      :     1.046506
      dz2     :     0.016024  d :     0.077216
      dxz     :     0.025634
      dyz     :     0.025703
      dx2y2   :     0.004922
      dxy     :     0.004933
      f0      :     0.001054  f :     0.005651
      f+1     :     0.001598
      f-1     :     0.001606
      f+2     :     0.000422
      f-2     :     0.000422
      f+3     :     0.000275
      f-3     :     0.000275
  6 C s       :     3.139591  s :     3.139591
      pz      :     0.799255  p :     2.946099
      px      :     1.076612
      py      :     1.070233
      dz2     :     0.020407  d :     0.089200
      dxz     :     0.017009
      dyz     :     0.019092
      dx2y2   :     0.015851
      dxy     :     0.016841
      f0      :     0.002079  f :     0.007341
      f+1     :     0.000890
      f-1     :     0.000899
      f+2     :     0.000599
      f-2     :     0.000630
      f+3     :     0.001040
      f-3     :     0.001204
  7 H s       :     0.826141  s :     0.826141
      pz      :     0.006289  p :     0.025070
      px      :     0.005185
      py      :     0.013596
  8 H s       :     0.804807  s :     0.804807
      pz      :     0.005818  p :     0.025293
      px      :     0.009593
      py      :     0.009883
  9 H s       :     0.824435  s :     0.824435
      pz      :     0.005441  p :     0.025137
      px      :     0.013940
      py      :     0.005755
 10 C s       :     3.235287  s :     3.235287
      pz      :     0.953443  p :     2.747242
      px      :     0.896642
      py      :     0.897157
      dz2     :     0.029684  d :     0.128335
      dxz     :     0.044141
      dyz     :     0.044406
      dx2y2   :     0.004953
      dxy     :     0.005151
      f0      :     0.004680  f :     0.020384
      f+1     :     0.006930
      f-1     :     0.006924
      f+2     :     0.000660
      f-2     :     0.000667
      f+3     :     0.000261
      f-3     :     0.000261
 11 N s       :     3.708537  s :     3.708537
      pz      :     1.270478  p :     3.364255
      px      :     1.047712
      py      :     1.046064
      dz2     :     0.016100  d :     0.077216
      dxz     :     0.025634
      dyz     :     0.025544
      dx2y2   :     0.004964
      dxy     :     0.004973
      f0      :     0.001063  f :     0.005651
      f+1     :     0.001596
      f-1     :     0.001583
      f+2     :     0.000429
      f-2     :     0.000429
      f+3     :     0.000276
      f-3     :     0.000276


                     *******************************
                     * LOEWDIN POPULATION ANALYSIS *
                     *******************************

----------------------
LOEWDIN ATOMIC CHARGES
----------------------
   0 C :   -0.257941
   1 H :    0.142770
   2 H :    0.141518
   3 H :    0.146856
   4 C :   -0.212055
   5 N :    0.038842
   6 C :   -0.257842
   7 H :    0.142227
   8 H :    0.145842
   9 H :    0.142777
  10 C :   -0.211830
  11 N :    0.038838

-------------------------------
LOEWDIN REDUCED ORBITAL CHARGES
-------------------------------
  0 C s       :     2.811875  s :     2.811875
      pz      :     1.021039  p :     3.120516
      px      :     1.050062
      py      :     1.049415
      dz2     :     0.081997  d :     0.293912
      dxz     :     0.069840
      dyz     :     0.068195
      dx2y2   :     0.035530
      dxy     :     0.038349
      f0      :     0.008390  f :     0.031639
      f+1     :     0.006301
      f-1     :     0.006392
      f+2     :     0.003160
      f-2     :     0.002660
      f+3     :     0.001770
      f-3     :     0.002966
  1 H s       :     0.792016  s :     0.792016
      pz      :     0.014678  p :     0.065215
      px      :     0.034664
      py      :     0.015872
  2 H s       :     0.793366  s :     0.793366
      pz      :     0.014194  p :     0.065115
      px      :     0.014584
      py      :     0.036337
  3 H s       :     0.787741  s :     0.787741
      pz      :     0.013409  p :     0.065404
      px      :     0.027727
      py      :     0.024268
  4 C s       :     2.834123  s :     2.834123
      pz      :     1.176942  p :     2.845726
      px      :     0.834668
      py      :     0.834116
      dz2     :     0.162589  d :     0.465862
      dxz     :     0.146603
      dyz     :     0.146225
      dx2y2   :     0.004809
      dxy     :     0.005635
      f0      :     0.024720  f :     0.066345
      f+1     :     0.019761
      f-1     :     0.019655
      f+2     :     0.000796
      f-2     :     0.000888
      f+3     :     0.000261
      f-3     :     0.000262
  5 N s       :     3.306326  s :     3.306326
      pz      :     1.477663  p :     3.493332
      px      :     1.008306
      py      :     1.007363
      dz2     :     0.052770  d :     0.142561
      dxz     :     0.040045
      dyz     :     0.039943
      dx2y2   :     0.004889
      dxy     :     0.004915
      f0      :     0.007270  f :     0.018938
      f+1     :     0.005109
      f-1     :     0.005077
      f+2     :     0.000466
      f-2     :     0.000464
      f+3     :     0.000276
      f-3     :     0.000276
  6 C s       :     2.811241  s :     2.811241
      pz      :     1.021424  p :     3.120789
      px      :     1.051321
      py      :     1.048044
      dz2     :     0.081992  d :     0.294124
      dxz     :     0.064660
      dyz     :     0.073394
      dx2y2   :     0.036345
      dxy     :     0.037733
      f0      :     0.008374  f :     0.031688
      f+1     :     0.006688
      f-1     :     0.006022
      f+2     :     0.002973
      f-2     :     0.002870
      f+3     :     0.002119
      f-3     :     0.002642
  7 H s       :     0.792646  s :     0.792646
      pz      :     0.015064  p :     0.065127
      px      :     0.014582
      py      :     0.035481
  8 H s       :     0.788409  s :     0.788409
      pz      :     0.014154  p :     0.065749
      px      :     0.025573
      py      :     0.026022
  9 H s       :     0.791980  s :     0.791980
      pz      :     0.013288  p :     0.065244
      px      :     0.036139
      py      :     0.015816
 10 C s       :     2.833993  s :     2.833993
      pz      :     1.175970  p :     2.845461
      px      :     0.834083
      py      :     0.835408
      dz2     :     0.162439  d :     0.466017
      dxz     :     0.145809
      dyz     :     0.146606
      dx2y2   :     0.005365
      dxy     :     0.005798
      f0      :     0.024656  f :     0.066359
      f+1     :     0.019522
      f-1     :     0.019734
      f+2     :     0.000949
      f-2     :     0.000970
      f+3     :     0.000264
      f-3     :     0.000264
 11 N s       :     3.306438  s :     3.306438
      pz      :     1.476323  p :     3.493280
      px      :     1.008523
      py      :     1.008434
      dz2     :     0.052644  d :     0.142519
      dxz     :     0.039858
      dyz     :     0.040052
      dx2y2   :     0.004972
      dxy     :     0.004994
      f0      :     0.007229  f :     0.018924
      f+1     :     0.005052
      f-1     :     0.005101
      f+2     :     0.000496
      f-2     :     0.000494
      f+3     :     0.000276
      f-3     :     0.000276


                      *****************************
                      * MAYER POPULATION ANALYSIS *
                      *****************************

  NA   - Mulliken gross atomic population
  ZA   - Total nuclear charge
  QA   - Mulliken gross atomic charge
  VA   - Mayer's total valence
  BVA  - Mayer's bonded valence
  FA   - Mayer's free valence

  ATOM       NA         ZA         QA         VA         BVA        FA
  0 C      6.1817     6.0000    -0.1817     3.9355     3.6500     0.2854
  1 H      0.8485     1.0000     0.1515     0.9709     0.9228     0.0480
  2 H      0.8528     1.0000     0.1472     0.9704     0.9219     0.0485
  3 H      0.8296     1.0000     0.1704     0.9673     0.9206     0.0467
  4 C      6.1319     6.0000    -0.1319     4.0111     3.5678     0.4433
  5 N      7.1555     7.0000    -0.1555     3.2245     2.7382     0.4863
  6 C      6.1822     6.0000    -0.1822     3.9359     3.6505     0.2854
  7 H      0.8512     1.0000     0.1488     0.9703     0.9220     0.0483
  8 H      0.8301     1.0000     0.1699     0.9676     0.9210     0.0466
  9 H      0.8496     1.0000     0.1504     0.9707     0.9225     0.0482
 10 C      6.1312     6.0000    -0.1312     4.0118     3.5684     0.4433
 11 N      7.1557     7.0000    -0.1557     3.2244     2.7380     0.4864

  Mayer bond orders larger than 0.100000
B(  0-C ,  1-H ) :   0.9328 B(  0-C ,  2-H ) :   0.9308 B(  0-C ,  3-H ) :   0.9196 
B(  0-C ,  4-C ) :   0.8743 B(  4-C ,  5-N ) :   2.7209 B(  6-C ,  7-H ) :   0.9298 
B(  6-C ,  8-H ) :   0.9201 B(  6-C ,  9-H ) :   0.9333 B(  6-C , 10-C ) :   0.8748 
B( 10-C , 11-N ) :   2.7208 


                *******************************************
                * RELAXED MP2 DENSITY POPULATION ANALYSIS *
                *******************************************

------------------------------------------------------------------------------
                           ORCA POPULATION ANALYSIS
------------------------------------------------------------------------------
Input electron density              ... 12mecn.remya.etal.2.mol8,10-orca.engrad-mp2.def2tzvp.frozencore.pmp2re
BaseName (.gbw .S,...)              ... 12mecn.remya.etal.2.mol8,10-orca.engrad-mp2.def2tzvp.frozencore

                    ********************************
                    * MULLIKEN POPULATION ANALYSIS *
                    ********************************

-----------------------
MULLIKEN ATOMIC CHARGES
-----------------------
   0 C :   -0.283329
   1 H :    0.166001
   2 H :    0.162552
   3 H :    0.182473
   4 C :   -0.155511
   5 N :   -0.072175
   6 C :   -0.284151
   7 H :    0.163683
   8 H :    0.182249
   9 H :    0.165214
  10 C :   -0.154638
  11 N :   -0.072367
Sum of atomic charges:    0.0000000

--------------------------------
MULLIKEN REDUCED ORBITAL CHARGES
--------------------------------
  0 C s       :     3.179155  s :     3.179155
      pz      :     0.842900  p :     3.018594
      px      :     1.090836
      py      :     1.084859
      dz2     :     0.016052  d :     0.078498
      dxz     :     0.018306
      dyz     :     0.017913
      dx2y2   :     0.012679
      dxy     :     0.013549
      f0      :     0.001859  f :     0.007082
      f+1     :     0.000954
      f-1     :     0.000941
      f+2     :     0.000591
      f-2     :     0.000601
      f+3     :     0.000901
      f-3     :     0.001234
  1 H s       :     0.810002  s :     0.810002
      pz      :     0.006119  p :     0.023997
      px      :     0.012081
      py      :     0.005797
  2 H s       :     0.813462  s :     0.813462
      pz      :     0.005946  p :     0.023986
      px      :     0.005362
      py      :     0.012678
  3 H s       :     0.793463  s :     0.793463
      pz      :     0.005588  p :     0.024065
      px      :     0.009836
      py      :     0.008641
  4 C s       :     3.215124  s :     3.215124
      pz      :     0.985994  p :     2.817325
      px      :     0.915350
      py      :     0.915980
      dz2     :     0.025405  d :     0.104041
      dxz     :     0.034352
      dyz     :     0.034486
      dx2y2   :     0.004718
      dxy     :     0.005079
      f0      :     0.004444  f :     0.019021
      f+1     :     0.006403
      f-1     :     0.006418
      f+2     :     0.000605
      f-2     :     0.000632
      f+3     :     0.000260
      f-3     :     0.000260
  5 N s       :     3.652053  s :     3.652053
      pz      :     1.259829  p :     3.346782
      px      :     1.043480
      py      :     1.043473
      dz2     :     0.015013  d :     0.068165
      dxz     :     0.021642
      dyz     :     0.021690
      dx2y2   :     0.004905
      dxy     :     0.004915
      f0      :     0.000937  f :     0.005175
      f+1     :     0.001419
      f-1     :     0.001426
      f+2     :     0.000420
      f-2     :     0.000420
      f+3     :     0.000275
      f-3     :     0.000275
  6 C s       :     3.178529  s :     3.178529
      pz      :     0.844474  p :     3.019932
      px      :     1.090364
      py      :     1.085094
      dz2     :     0.016166  d :     0.078604
      dxz     :     0.017308
      dyz     :     0.018893
      dx2y2   :     0.012701
      dxy     :     0.013536
      f0      :     0.001849  f :     0.007086
      f+1     :     0.000948
      f-1     :     0.000958
      f+2     :     0.000587
      f-2     :     0.000617
      f+3     :     0.000991
      f-3     :     0.001137
  7 H s       :     0.812344  s :     0.812344
      pz      :     0.006268  p :     0.023973
      px      :     0.005336
      py      :     0.012369
  8 H s       :     0.793604  s :     0.793604
      pz      :     0.005863  p :     0.024147
      px      :     0.009036
      py      :     0.009248
  9 H s       :     0.810748  s :     0.810748
      pz      :     0.005565  p :     0.024038
      px      :     0.012661
      py      :     0.005811
 10 C s       :     3.214379  s :     3.214379
      pz      :     0.985814  p :     2.817181
      px      :     0.915693
      py      :     0.915674
      dz2     :     0.025314  d :     0.104053
      dxz     :     0.034237
      dyz     :     0.034542
      dx2y2   :     0.004885
      dxy     :     0.005074
      f0      :     0.004480  f :     0.019026
      f+1     :     0.006359
      f-1     :     0.006361
      f+2     :     0.000649
      f-2     :     0.000655
      f+3     :     0.000261
      f-3     :     0.000261
 11 N s       :     3.652129  s :     3.652129
      pz      :     1.259257  p :     3.346902
      px      :     1.044105
      py      :     1.043540
      dz2     :     0.015072  d :     0.068162
      dxz     :     0.021638
      dyz     :     0.021564
      dx2y2   :     0.004939
      dxy     :     0.004949
      f0      :     0.000946  f :     0.005174
      f+1     :     0.001419
      f-1     :     0.001405
      f+2     :     0.000426
      f-2     :     0.000426
      f+3     :     0.000276
      f-3     :     0.000276


                     *******************************
                     * LOEWDIN POPULATION ANALYSIS *
                     *******************************

----------------------
LOEWDIN ATOMIC CHARGES
----------------------
   0 C :   -0.288231
   1 H :    0.149732
   2 H :    0.148623
   3 H :    0.153471
   4 C :   -0.225020
   5 N :    0.061404
   6 C :   -0.288116
   7 H :    0.149256
   8 H :    0.152451
   9 H :    0.149804
  10 C :   -0.224799
  11 N :    0.061424

-------------------------------
LOEWDIN REDUCED ORBITAL CHARGES
-------------------------------
  0 C s       :     2.816916  s :     2.816916
      pz      :     1.038535  p :     3.156924
      px      :     1.059370
      py      :     1.059019
      dz2     :     0.074609  d :     0.282567
      dxz     :     0.071090
      dyz     :     0.069569
      dx2y2   :     0.032263
      dxy     :     0.035035
      f0      :     0.007918  f :     0.031823
      f+1     :     0.006701
      f-1     :     0.006801
      f+2     :     0.003138
      f-2     :     0.002641
      f+3     :     0.001734
      f-3     :     0.002890
  1 H s       :     0.784666  s :     0.784666
      pz      :     0.015183  p :     0.065602
      px      :     0.034167
      py      :     0.016252
  2 H s       :     0.785853  s :     0.785853
      pz      :     0.014727  p :     0.065524
      px      :     0.015018
      py      :     0.035779
  3 H s       :     0.780827  s :     0.780827
      pz      :     0.013974  p :     0.065702
      px      :     0.027497
      py      :     0.024231
  4 C s       :     2.839916  s :     2.839916
      pz      :     1.168312  p :     2.868232
      px      :     0.850253
      py      :     0.849667
      dz2     :     0.164903  d :     0.450432
      dxz     :     0.137800
      dyz     :     0.137423
      dx2y2   :     0.004763
      dxy     :     0.005542
      f0      :     0.025684  f :     0.066440
      f+1     :     0.019345
      f-1     :     0.019236
      f+2     :     0.000792
      f-2     :     0.000861
      f+3     :     0.000261
      f-3     :     0.000262
  5 N s       :     3.306671  s :     3.306671
      pz      :     1.464224  p :     3.474633
      px      :     1.005617
      py      :     1.004792
      dz2     :     0.053509  d :     0.138025
      dxz     :     0.037436
      dyz     :     0.037305
      dx2y2   :     0.004875
      dxy     :     0.004900
      f0      :     0.007376  f :     0.019268
      f+1     :     0.005220
      f-1     :     0.005188
      f+2     :     0.000467
      f-2     :     0.000465
      f+3     :     0.000276
      f-3     :     0.000276
  6 C s       :     2.816277  s :     2.816277
      pz      :     1.038882  p :     3.157164
      px      :     1.060855
      py      :     1.057427
      dz2     :     0.074650  d :     0.282800
      dxz     :     0.066254
      dyz     :     0.074378
      dx2y2   :     0.033050
      dxy     :     0.034468
      f0      :     0.007912  f :     0.031875
      f+1     :     0.007096
      f-1     :     0.006413
      f+2     :     0.002952
      f-2     :     0.002853
      f+3     :     0.002072
      f-3     :     0.002577
  7 H s       :     0.785225  s :     0.785225
      pz      :     0.015546  p :     0.065519
      px      :     0.015023
      py      :     0.034950
  8 H s       :     0.781487  s :     0.781487
      pz      :     0.014677  p :     0.066062
      px      :     0.025507
      py      :     0.025878
  9 H s       :     0.784545  s :     0.784545
      pz      :     0.013886  p :     0.065651
      px      :     0.035582
      py      :     0.016183
 10 C s       :     2.839779  s :     2.839779
      pz      :     1.167403  p :     2.867995
      px      :     0.850010
      py      :     0.850582
      dz2     :     0.164651  d :     0.450572
      dxz     :     0.137048
      dyz     :     0.137907
      dx2y2   :     0.005277
      dxy     :     0.005689
      f0      :     0.025601  f :     0.066454
      f+1     :     0.019112
      f-1     :     0.019332
      f+2     :     0.000935
      f-2     :     0.000946
      f+3     :     0.000263
      f-3     :     0.000264
 11 N s       :     3.306785  s :     3.306785
      pz      :     1.462877  p :     3.474556
      px      :     1.005563
      py      :     1.006116
      dz2     :     0.053366  d :     0.137982
      dxz     :     0.037256
      dyz     :     0.037429
      dx2y2   :     0.004954
      dxy     :     0.004976
      f0      :     0.007335  f :     0.019254
      f+1     :     0.005165
      f-1     :     0.005207
      f+2     :     0.000498
      f-2     :     0.000496
      f+3     :     0.000276
      f-3     :     0.000276


                      *****************************
                      * MAYER POPULATION ANALYSIS *
                      *****************************

  NA   - Mulliken gross atomic population
  ZA   - Total nuclear charge
  QA   - Mulliken gross atomic charge
  VA   - Mayer's total valence
  BVA  - Mayer's bonded valence
  FA   - Mayer's free valence

  ATOM       NA         ZA         QA         VA         BVA        FA
  0 C      6.2833     6.0000    -0.2833     3.9371     3.6528     0.2843
  1 H      0.8340     1.0000     0.1660     0.9648     0.9174     0.0474
  2 H      0.8374     1.0000     0.1626     0.9645     0.9167     0.0479
  3 H      0.8175     1.0000     0.1825     0.9615     0.9153     0.0461
  4 C      6.1555     6.0000    -0.1555     4.1302     3.6979     0.4323
  5 N      7.0722     7.0000    -0.0722     3.3360     2.8618     0.4743
  6 C      6.2842     6.0000    -0.2842     3.9377     3.6533     0.2843
  7 H      0.8363     1.0000     0.1637     0.9647     0.9170     0.0477
  8 H      0.8178     1.0000     0.1822     0.9615     0.9154     0.0461
  9 H      0.8348     1.0000     0.1652     0.9646     0.9170     0.0476
 10 C      6.1546     6.0000    -0.1546     4.1306     3.6984     0.4323
 11 N      7.0724     7.0000    -0.0724     3.3359     2.8615     0.4744

  Mayer bond orders larger than 0.100000
B(  0-C ,  1-H ) :   0.9226 B(  0-C ,  2-H ) :   0.9211 B(  0-C ,  3-H ) :   0.9110 
B(  0-C ,  4-C ) :   0.8973 B(  4-C ,  5-N ) :   2.8262 B(  6-C ,  7-H ) :   0.9203 
B(  6-C ,  8-H ) :   0.9115 B(  6-C ,  9-H ) :   0.9230 B(  6-C , 10-C ) :   0.8979 
B( 10-C , 11-N ) :   2.8260 


----------------------------------
MP2 DERIVATIVE INTEGRAL GENERATION
----------------------------------


Input Wavefunction Amplitudes       ... 12mecn.remya.etal.2.mol8,10-orca.engrad-mp2.def2tzvp.frozencore.mp2tsaa.tmp
Input Correlated Electron Density   ... 12mecn.remya.etal.2.mol8,10-orca.engrad-mp2.def2tzvp.frozencore.pmp2re
Input Energy Weighted Density       ... 12mecn.remya.etal.2.mol8,10-orca.engrad-mp2.def2tzvp.frozencore.wmp2.tmp
Input SCF Electron Density          ... 12mecn.remya.etal.2.mol8,10-orca.engrad-mp2.def2tzvp.frozencore.scfp

One-Electron Terms    ...
                        ... One-Electron Terms done
Prescreening matrices              ... done

Batch handling in the gradient evaluation:
Memory available                      ... 8000.0 MB
Memory per occupied orbital in Q2     ...    6.0 MB
Memory per occupied orbital in Q3     ...    0.1 MB
Total memory requirement per |i>      ...    6.1 MB
Max. Number of orbitals possible      ...   1311
Number of orbitals treated per batch  ...     16
Number of batches to be done          ...      1
Batch   0: i=    6 ...    21

---------------------------------------
MP2 TOTAL ENERGY:     -264.963953544 Eh
---------------------------------------

The final MP2 gradient
  0:   0.00022762  -0.00129685   0.00655172
  1:   0.00368850   0.00006761   0.00103548
  2:  -0.00020654   0.00340525   0.00058279
  3:  -0.00313209  -0.00181193   0.00126081
  4:  -0.00049506  -0.00019044  -0.00520399
  5:   0.00049238   0.00039963  -0.00421810
  6:   0.00242777  -0.00130417   0.00629035
  7:   0.00083243  -0.00401687   0.00138732
  8:   0.00000094   0.00242579   0.00044490
  9:  -0.00226465   0.00226372   0.00158161
 10:  -0.00082378   0.00067426  -0.00593641
 11:  -0.00074751  -0.00061599  -0.00377650

-----------------------------------
NORM OF THE MP2 GRADIENT:  0.016367
-----------------------------------

-------------------------   --------------------
FINAL SINGLE POINT ENERGY      -264.963953544169
-------------------------   --------------------


                            ***************************************
                            *     ORCA property calculations      *
                            ***************************************

                                    ---------------------
                                    Active property flags
                                    ---------------------
   (+) Dipole Moment


------------------------------------------------------------------------------
                       ORCA ELECTRIC PROPERTIES CALCULATION
------------------------------------------------------------------------------

Dipole Moment Calculation                       ... on
Quadrupole Moment Calculation                   ... off
Polarizability Calculation                      ... off
GBWName                                         ... 12mecn.remya.etal.2.mol8,10-orca.engrad-mp2.def2tzvp.frozencore.gbw
Electron density file                           ... 12mecn.remya.etal.2.mol8,10-orca.engrad-mp2.def2tzvp.frozencore.scfp
The origin for moment calculation is the CENTER OF MASS  = ( 6.254530, -2.078024 -0.912356)

-------------
DIPOLE MOMENT
-------------
                                X             Y             Z
Electronic contribution:      0.26343      -0.13699       6.13431
Nuclear contribution   :     -0.39336       0.21116      -9.26410
                        -----------------------------------------
Total Dipole Moment    :     -0.12992       0.07417      -3.12978
                        -----------------------------------------
Magnitude (a.u.)       :      3.13336
Magnitude (Debye)      :      7.96436



--------------------
Rotational spectrum 
--------------------
 
Rotational constants in cm-1:     0.154405     0.055743     0.041620 
Rotational constants in MHz :  4628.932007  1671.129535  1247.726121 

 Dipole components along the rotational axes: 
x,y,z [a.u.] :    -0.015785     3.133315     0.004838 
x,y,z [Debye]:    -0.040123     7.964254     0.012297 

 

                         *** MP2 UNRELAXED DENSITY ***

------------------------------------------------------------------------------
                       ORCA ELECTRIC PROPERTIES CALCULATION
------------------------------------------------------------------------------

Dipole Moment Calculation                       ... on
Quadrupole Moment Calculation                   ... off
Polarizability Calculation                      ... off
GBWName                                         ... 12mecn.remya.etal.2.mol8,10-orca.engrad-mp2.def2tzvp.frozencore.gbw
Electron density file                           ... 12mecn.remya.etal.2.mol8,10-orca.engrad-mp2.def2tzvp.frozencore.pmp2ur
The origin for moment calculation is the CENTER OF MASS  = ( 6.254530, -2.078024 -0.912356)

-------------
DIPOLE MOMENT
-------------
                                X             Y             Z
Electronic contribution:      0.26630      -0.13885       6.20476
Nuclear contribution   :     -0.39336       0.21116      -9.26410
                        -----------------------------------------
Total Dipole Moment    :     -0.12706       0.07231      -3.05934
                        -----------------------------------------
Magnitude (a.u.)       :      3.06283
Magnitude (Debye)      :      7.78509



--------------------
Rotational spectrum 
--------------------
 
Rotational constants in cm-1:     0.154405     0.055743     0.041620 
Rotational constants in MHz :  4628.932007  1671.129535  1247.726121 

 Dipole components along the rotational axes: 
x,y,z [a.u.] :    -0.015606     3.062786     0.004635 
x,y,z [Debye]:    -0.039669     7.784983     0.011782 

 

                           *** MP2 RELAXED DENSITY ***

------------------------------------------------------------------------------
                       ORCA ELECTRIC PROPERTIES CALCULATION
------------------------------------------------------------------------------

Dipole Moment Calculation                       ... on
Quadrupole Moment Calculation                   ... off
Polarizability Calculation                      ... off
GBWName                                         ... 12mecn.remya.etal.2.mol8,10-orca.engrad-mp2.def2tzvp.frozencore.gbw
Electron density file                           ... 12mecn.remya.etal.2.mol8,10-orca.engrad-mp2.def2tzvp.frozencore.pmp2re
The origin for moment calculation is the CENTER OF MASS  = ( 6.254530, -2.078024 -0.912356)

-------------
DIPOLE MOMENT
-------------
                                X             Y             Z
Electronic contribution:      0.27355      -0.14278       6.38794
Nuclear contribution   :     -0.39336       0.21116      -9.26410
                        -----------------------------------------
Total Dipole Moment    :     -0.11980       0.06838      -2.87616
                        -----------------------------------------
Magnitude (a.u.)       :      2.87947
Magnitude (Debye)      :      7.31902



--------------------
Rotational spectrum 
--------------------
 
Rotational constants in cm-1:     0.154405     0.055743     0.041620 
Rotational constants in MHz :  4628.932007  1671.129535  1247.726121 

 Dipole components along the rotational axes: 
x,y,z [a.u.] :    -0.014640     2.879425     0.004887 
x,y,z [Debye]:    -0.037212     7.318917     0.012423 

 

Timings for individual modules:

Sum of individual times         ...       60.883 sec (=   1.015 min)
GTO integral calculation        ...        1.164 sec (=   0.019 min)   1.9 %
SCF iterations                  ...       15.727 sec (=   0.262 min)  25.8 %
MP2 module                      ...       43.992 sec (=   0.733 min)  72.3 %
                             ****ORCA TERMINATED NORMALLY****
TOTAL RUN TIME: 0 days 0 hours 1 minutes 1 seconds 977 msec
