
                                 *****************
                                 * O   R   C   A *
                                 *****************

           --- An Ab Initio, DFT and Semiempirical electronic structure package ---

                  #######################################################
                  #                        -***-                        #
                  #          Department of theory and spectroscopy      #
                  #               Directorship: Frank Neese             #
                  #        Max Planck Institute fuer Kohlenforschung    #
                  #                Kaiser Wilhelm Platz 1               #
                  #                 D-45470 Muelheim/Ruhr               #
                  #                      Germany                        #
                  #                                                     #
                  #                  All rights reserved                #
                  #                        -***-                        #
                  #######################################################


                         Program Version 4.2.0 -  RELEASE  -


 With contributions from (in alphabetic order):
   Daniel Aravena         : Magnetic Suceptibility
   Michael Atanasov       : Ab Initio Ligand Field Theory (pilot matlab implementation)
   Alexander A. Auer      : GIAO ZORA, VPT2
   Ute Becker             : Parallelization
   Giovanni Bistoni       : ED, misc. LED, open-shell LED, HFLED
   Martin Brehm           : Molecular dynamics
   Dmytro Bykov           : SCF Hessian
   Vijay G. Chilkuri      : MRCI spin determinant printing, contributions to CSF-ICE
   Dipayan Datta          : RHF DLPNO-CCSD density
   Achintya Kumar Dutta   : EOM-CC, STEOM-CC
   Dmitry Ganyushin       : Spin-Orbit,Spin-Spin,Magnetic field MRCI
   Miquel Garcia          : C-PCM Hessian, Gaussian charge scheme
   Yang Guo               : DLPNO-NEVPT2, CIM, IAO-localization
   Andreas Hansen         : Spin unrestricted coupled pair/coupled cluster methods
   Benjamin Helmich-Paris : CASSCF linear response (MC-RPA)
   Lee Huntington         : MR-EOM, pCC
   Robert Izsak           : Overlap fitted RIJCOSX, COSX-SCS-MP3, EOM
   Christian Kollmar      : KDIIS, OOCD, Brueckner-CCSD(T), CCSD density
   Simone Kossmann        : Meta GGA functionals, TD-DFT gradient, OOMP2, MP2 Hessian
   Martin Krupicka        : AUTO-CI
   Lucas Lang             : DCDCAS
   Dagmar Lenk            : GEPOL surface, SMD
   Dimitrios Liakos       : Extrapolation schemes; Compound Job, initial MDCI parallelization
   Dimitrios Manganas     : Further ROCIS development; embedding schemes
   Dimitrios Pantazis     : SARC Basis sets
   Taras Petrenko         : DFT Hessian,TD-DFT gradient, ASA, ECA, R-Raman, ABS, FL, XAS/XES, NRVS
   Peter Pinski           : DLPNO-MP2, DLPNO-MP2 Gradient
   Christoph Reimann      : Effective Core Potentials
   Marius Retegan         : Local ZFS, SOC
   Christoph Riplinger    : Optimizer, TS searches, QM/MM, DLPNO-CCSD(T), (RO)-DLPNO pert. Triples
   Tobias Risthaus        : Range-separated hybrids, TD-DFT gradient, RPA, STAB
   Michael Roemelt        : Original ROCIS implementation
   Masaaki Saitow         : Open-shell DLPNO-CCSD energy and density
   Barbara Sandhoefer     : DKH picture change effects
   Avijit Sen             : IP-ROCIS
   Kantharuban Sivalingam : CASSCF convergence, NEVPT2, FIC-MRCI
   Bernardo de Souza      : ESD, SOC TD-DFT
   Georgi Stoychev        : AutoAux, RI-MP2 NMR
   Willem Van den Heuvel  : Paramagnetic NMR
   Boris Wezisla          : Elementary symmetry handling
   Frank Wennmohs         : Technical directorship


 We gratefully acknowledge several colleagues who have allowed us to
 interface, adapt or use parts of their codes:
   Stefan Grimme, W. Hujo, H. Kruse,             : VdW corrections, initial TS optimization,
                  C. Bannwarth                     DFT functionals, gCP, sTDA/sTD-DF
   Ed Valeev, F. Pavosevic, A. Kumar             : LibInt (2-el integral package), F12 methods
   Garnet Chan, S. Sharma, J. Yang, R. Olivares  : DMRG
   Ulf Ekstrom                                   : XCFun DFT Library
   Mihaly Kallay                                 : mrcc  (arbitrary order and MRCC methods)
   Andreas Klamt, Michael Diedenhofen            : otool_cosmo (COSMO solvation model)
   Jiri Pittner, Ondrej Demel                    : Mk-CCSD
   Frank Weinhold                                : gennbo (NPA and NBO analysis)
   Christopher J. Cramer and Donald G. Truhlar   : smd solvation model
   Lars Goerigk                                  : TD-DFT with DH, B97 family of functionals
   V. Asgeirsson, H. Jonsson                     : NEB implementation
   FAccTs GmbH                                   : IRC, NEB, NEB-TS, Multilevel, MM, QM/MM, CI optimization
   S Lehtola, MJT Oliveira, MAL Marques          : LibXC Library


 Your calculation uses the libint2 library for the computation of 2-el integrals
 For citations please refer to: http://libint.valeyev.net

 Your ORCA version has been built with support for libXC version: 4.2.3
 For citations please refer to: https://tddft.org/programs/libxc/

 This ORCA versions uses:
   CBLAS   interface :  Fast vector & matrix operations
   LAPACKE interface :  Fast linear algebra routines
   SCALAPACK package :  Parallel linear algebra routines


----- Orbital basis set information -----
Your calculation utilizes the basis: def2-TZVP
   F. Weigend and R. Ahlrichs, Phys. Chem. Chem. Phys. 7, 3297 (2005).

================================================================================
                                        WARNINGS
                       Please study these warnings very carefully!
================================================================================


WARNING: The frozen-core approximation for MP2-gradient calculations is turned on by default.

INFO   : the flag for use of LIBINT has been found!

================================================================================
                                       INPUT FILE
================================================================================
NAME = 12h2o.su.etal.mol2,3,4,5,9,10-orca.engrad-mp2.def2tzvp.frozencore.inp
|  1> # 12h2o.su.etal.mol2,3,4,5,9,10
|  2> ! MP2 def2-TZVP EnGrad TightSCF
|  3> 
|  4> %pal
|  5>     nprocs 6
|  6> end
|  7> 
|  8> %maxcore 8000
|  9> 
| 10> %scf
| 11>     ConvForced true
| 12> end
| 13> 
| 14> *xyz 0 1
| 15> O   0.923410000  -1.794470000  -2.768350000
| 16> H   1.359750000  -2.338250000  -3.430940000
| 17> H   1.303000000  -0.879480000  -2.865760000
| 18> O  -1.752130000  -0.741530000  -2.896280000
| 19> H  -2.036450000  -0.920500000  -1.984040000
| 20> H  -0.921210000  -1.242140000  -2.984230000
| 21> O  -0.885520000   1.737840000   0.052730000
| 22> H  -1.032320000   2.090180000  -0.841890000
| 23> H  -1.284090000   0.839590000   0.017130000
| 24> O   0.885520000  -1.737840000   0.052730000
| 25> H   1.284090000  -0.839590000   0.017130000
| 26> H   1.032320000  -2.090180000  -0.841890000
| 27> O   0.741530000  -1.752130000   2.896280000
| 28> H   0.920500000  -2.036450000   1.984040000
| 29> H   1.242140000  -0.921210000   2.984230000
| 30> O  -0.923410000   1.794470000  -2.768350000
| 31> H  -1.359750000   2.338250000  -3.430940000
| 32> H  -1.303000000   0.879480000  -2.865760000
| 33> *
| 34> 
| 35>                          ****END OF INPUT****
================================================================================

                     *******************************
                     * Energy+Gradient Calculation *
                     *******************************

---------------------------------
CARTESIAN COORDINATES (ANGSTROEM)
---------------------------------
  O      0.923410   -1.794470   -2.768350
  H      1.359750   -2.338250   -3.430940
  H      1.303000   -0.879480   -2.865760
  O     -1.752130   -0.741530   -2.896280
  H     -2.036450   -0.920500   -1.984040
  H     -0.921210   -1.242140   -2.984230
  O     -0.885520    1.737840    0.052730
  H     -1.032320    2.090180   -0.841890
  H     -1.284090    0.839590    0.017130
  O      0.885520   -1.737840    0.052730
  H      1.284090   -0.839590    0.017130
  H      1.032320   -2.090180   -0.841890
  O      0.741530   -1.752130    2.896280
  H      0.920500   -2.036450    1.984040
  H      1.242140   -0.921210    2.984230
  O     -0.923410    1.794470   -2.768350
  H     -1.359750    2.338250   -3.430940
  H     -1.303000    0.879480   -2.865760

----------------------------
CARTESIAN COORDINATES (A.U.)
----------------------------
  NO LB      ZA    FRAG     MASS         X           Y           Z
   0 O     8.0000    0    15.999    1.744992   -3.391057   -5.231423
   1 H     1.0000    0     1.008    2.569555   -4.418652   -6.483537
   2 H     1.0000    0     1.008    2.462313   -1.661976   -5.415502
   3 O     8.0000    0    15.999   -3.311046   -1.401289   -5.473176
   4 H     1.0000    0     1.008   -3.848333   -1.739493   -3.749292
   5 H     1.0000    0     1.008   -1.740835   -2.347304   -5.639377
   6 O     8.0000    0    15.999   -1.673390    3.284042    0.099645
   7 H     1.0000    0     1.008   -1.950802    3.949868   -1.590942
   8 H     1.0000    0     1.008   -2.426578    1.586595    0.032371
   9 O     8.0000    0    15.999    1.673390   -3.284042    0.099645
  10 H     1.0000    0     1.008    2.426578   -1.586595    0.032371
  11 H     1.0000    0     1.008    1.950802   -3.949868   -1.590942
  12 O     8.0000    0    15.999    1.401289   -3.311046    5.473176
  13 H     1.0000    0     1.008    1.739493   -3.848333    3.749292
  14 H     1.0000    0     1.008    2.347304   -1.740835    5.639377
  15 O     8.0000    0    15.999   -1.744992    3.391057   -5.231423
  16 H     1.0000    0     1.008   -2.569555    4.418652   -6.483537
  17 H     1.0000    0     1.008   -2.462313    1.661976   -5.415502

--------------------------------
INTERNAL COORDINATES (ANGSTROEM)
--------------------------------
 O      0   0   0     0.000000000000     0.00000000     0.00000000
 H      1   0   0     0.961828878803     0.00000000     0.00000000
 H      1   2   0     0.995381322057   106.21731035     0.00000000
 O      1   2   3     2.878117964938   126.72240291   103.59081140
 H      4   1   2     0.972136791249    99.37069922   136.92500856
 H      4   1   2     0.974050112161    12.30570018    24.40947955
 O      5   4   1     3.541164138161   107.84672602    83.70571148
 H      7   5   4     0.972645187106    72.17296994    29.09453504
 H      7   5   4     0.983350632989    33.04029707   190.88793319
 O      1   2   3     2.821902722526   134.92023192   245.52250503
 H     10   1   2     0.983350632989    88.66470709   117.24500673
 H     10   1   2     0.972645187106    21.75017499   343.08822912
 O     10   1   2     2.847229166523   177.43098014   265.14132070
 H     13  10  12     0.972136791249    19.08819947     8.79504813
 H     13  10  12     0.974050112161    93.43428486   132.89132802
 O      8   7   5     1.952064016317   147.60984291   322.52183969
 H     16   8   7     0.961828878803   124.67322417   165.49513251
 H     16   8   7     0.995381322057   102.38931089    45.51897547

---------------------------
INTERNAL COORDINATES (A.U.)
---------------------------
 O      0   0   0     0.000000000000     0.00000000     0.00000000
 H      1   0   0     1.817593168635     0.00000000     0.00000000
 H      1   2   0     1.880998097508   106.21731035     0.00000000
 O      1   2   3     5.438854734852   126.72240291   103.59081140
 H      4   1   2     1.837072300170    99.37069922   136.92500856
 H      4   1   2     1.840687952699    12.30570018    24.40947955
 O      5   4   1     6.691830416388   107.84672602    83.70571148
 H      7   5   4     1.838033029106    72.17296994    29.09453504
 H      7   5   4     1.858263389967    33.04029707   190.88793319
 O      1   2   3     5.332623322141   134.92023192   245.52250503
 H     10   1   2     1.858263389967    88.66470709   117.24500673
 H     10   1   2     1.838033029106    21.75017499   343.08822912
 O     10   1   2     5.380483365242   177.43098014   265.14132070
 H     13  10  12     1.837072300170    19.08819947     8.79504813
 H     13  10  12     1.840687952699    93.43428486   132.89132802
 O      8   7   5     3.688866386722   147.60984291   322.52183969
 H     16   8   7     1.817593168635   124.67322417   165.49513251
 H     16   8   7     1.880998097508   102.38931089    45.51897547

---------------------
BASIS SET INFORMATION
---------------------
There are 2 groups of distinct atoms

 Group   1 Type O   : 11s6p2d1f contracted to 5s3p2d1f pattern {62111/411/11/1}
 Group   2 Type H   : 5s1p contracted to 3s1p pattern {311/1}

Atom   0O    basis set group =>   1
Atom   1H    basis set group =>   2
Atom   2H    basis set group =>   2
Atom   3O    basis set group =>   1
Atom   4H    basis set group =>   2
Atom   5H    basis set group =>   2
Atom   6O    basis set group =>   1
Atom   7H    basis set group =>   2
Atom   8H    basis set group =>   2
Atom   9O    basis set group =>   1
Atom  10H    basis set group =>   2
Atom  11H    basis set group =>   2
Atom  12O    basis set group =>   1
Atom  13H    basis set group =>   2
Atom  14H    basis set group =>   2
Atom  15O    basis set group =>   1
Atom  16H    basis set group =>   2
Atom  17H    basis set group =>   2


           ************************************************************
           *        Program running with 6 parallel MPI-processes     *
           *              working on a common directory               *
           ************************************************************
------------------------------------------------------------------------------
                           ORCA GTO INTEGRAL CALCULATION
------------------------------------------------------------------------------

                         BASIS SET STATISTICS AND STARTUP INFO

 # of primitive gaussian shells          ...  192
 # of primitive gaussian functions       ...  372
 # of contracted shells                  ...  114
 # of contracted basis functions         ...  258
 Highest angular momentum                ...    3
 Maximum contraction depth               ...    6
 Integral package used                   ... LIBINT
 Integral threshhold            Thresh   ...  2.500e-11
 Primitive cut-off              TCut     ...  2.500e-12


------------------------------ INTEGRAL EVALUATION ----------------------------


 * One electron integrals 
 Pre-screening matrix                    ... done
 Shell pair data                         ... done (   0.001 sec)



           ************************************************************
           *        Program running with 6 parallel MPI-processes     *
           *              working on a common directory               *
           ************************************************************
-------------------------------------------------------------------------------
                                 ORCA SCF
-------------------------------------------------------------------------------

------------
SCF SETTINGS
------------
Hamiltonian:
 Ab initio Hamiltonian  Method          .... Hartree-Fock(GTOs)


General Settings:
 Integral files         IntName         .... 12h2o.su.etal.mol2,3,4,5,9,10-orca.engrad-mp2.def2tzvp.frozencore
 Hartree-Fock type      HFTyp           .... RHF
 Total Charge           Charge          ....    0
 Multiplicity           Mult            ....    1
 Number of Electrons    NEL             ....   60
 Basis Dimension        Dim             ....  258
 Nuclear Repulsion      ENuc            ....    261.7971549472 Eh

Convergence Acceleration:
 DIIS                   CNVDIIS         .... on
   Start iteration      DIISMaxIt       ....    12
   Startup error        DIISStart       ....  0.200000
   # of expansion vecs  DIISMaxEq       ....     5
   Bias factor          DIISBfac        ....   1.050
   Max. coefficient     DIISMaxC        ....  10.000
 Newton-Raphson         CNVNR           .... off
 SOSCF                  CNVSOSCF        .... on
   Start iteration      SOSCFMaxIt      ....   150
   Startup grad/error   SOSCFStart      ....  0.003300
 Level Shifting         CNVShift        .... on
   Level shift para.    LevelShift      ....    0.2500
   Turn off err/grad.   ShiftErr        ....    0.0010
 Zerner damping         CNVZerner       .... off
 Static damping         CNVDamp         .... on
   Fraction old density DampFac         ....    0.7000
   Max. Damping (<1)    DampMax         ....    0.9800
   Min. Damping (>=0)   DampMin         ....    0.0000
   Turn off err/grad.   DampErr         ....    0.1000
 Fernandez-Rico         CNVRico         .... off

SCF Procedure:
 Maximum # iterations   MaxIter         ....   125
 SCF integral mode      SCFMode         .... Direct
   Integral package                     .... LIBINT
 Reset frequency        DirectResetFreq ....    20
 Integral Threshold     Thresh          ....  2.500e-11 Eh
 Primitive CutOff       TCut            ....  2.500e-12 Eh

Convergence Tolerance:
 Convergence Check Mode ConvCheckMode   .... Total+1el-Energy
 Convergence forced     ConvForced      .... 1
 Energy Change          TolE            ....  1.000e-08 Eh
 1-El. energy change                    ....  1.000e-05 Eh
 Orbital Gradient       TolG            ....  1.000e-05
 Orbital Rotation angle TolX            ....  1.000e-05
 DIIS Error             TolErr          ....  5.000e-07


Diagonalization of the overlap matrix:
Smallest eigenvalue                        ... 4.151e-03
Time for diagonalization                   ...    0.011 sec
Threshold for overlap eigenvalues          ... 1.000e-08
Number of eigenvalues below threshold      ... 0
Time for construction of square roots      ...    0.005 sec
Total time needed                          ...    0.016 sec

-------------------
DFT GRID GENERATION
-------------------

General Integration Accuracy     IntAcc      ...  4.340
Radial Grid Type                 RadialGrid  ... Gauss-Chebyshev
Angular Grid (max. acc.)         AngularGrid ... Lebedev-110
Angular grid pruning method      GridPruning ... 3 (G Style)
Weight generation scheme         WeightScheme... Becke
Basis function cutoff            BFCut       ...    1.0000e-11
Integration weight cutoff        WCut        ...    1.0000e-14
Grids for H and He will be reduced by one unit

# of grid points (after initial pruning)     ...  19824 (   0.0 sec)
# of grid points (after weights+screening)   ...  18780 (   0.0 sec)
nearest neighbour list constructed           ...    0.0 sec
Grid point re-assignment to atoms done       ...    0.0 sec
Grid point division into batches done        ...    0.0 sec
Reduced shell lists constructed in    0.0 sec

Total number of grid points                  ...    18780
Total number of batches                      ...      303
Average number of points per batch           ...       61
Average number of grid points per atom       ...     1043
Average number of shells per batch           ...    56.98 (49.98%)
Average number of basis functions per batch  ...   113.52 (44.00%)
Average number of large shells per batch     ...    40.35 (70.81%)
Average number of large basis fcns per batch ...    78.54 (69.19%)
Maximum spatial batch extension              ...  16.16, 14.53, 13.08 au
Average spatial batch extension              ...   0.72,  0.62,  0.63 au

Time for grid setup =    0.056 sec

------------------------------
INITIAL GUESS: MODEL POTENTIAL
------------------------------
Loading Hartree-Fock densities                     ... done
Calculating cut-offs                               ... done
Setting up the integral package                    ... done
Initializing the effective Hamiltonian             ... done
Starting the Coulomb interaction                   ... done (   0.0 sec)
Reading the grid                                   ... done
Mapping shells                                     ... done
Starting the XC term evaluation                    ... done (   0.0 sec)
Transforming the Hamiltonian                       ... done (   0.0 sec)
Diagonalizing the Hamiltonian                      ... done (   0.0 sec)
Back transforming the eigenvectors                 ... done (   0.0 sec)
Now organizing SCF variables                       ... done
                      ------------------
                      INITIAL GUESS DONE (   0.2 sec)
                      ------------------
--------------
SCF ITERATIONS
--------------
ITER       Energy         Delta-E        Max-DP      RMS-DP      [F,P]     Damp
               ***  Starting incremental Fock matrix formation  ***
  0   -455.8282849637   0.000000000000 0.04365594  0.00097075  0.3479091 0.7000
  1   -456.0408576008  -0.212572637058 0.02876617  0.00067035  0.2167508 0.7000
                               ***Turning on DIIS***
  2   -456.1531094608  -0.112251860017 0.01668463  0.00037226  0.1636622 0.7000
  3   -457.1471794449  -0.994069984102 0.00760347  0.00016821  0.1218195 0.7000
  4   -456.9430051800   0.204174264919 0.01701641  0.00039014  0.0861605 0.0000
  5   -456.4104799407   0.532525239314 0.00212470  0.00006379  0.0057541 0.0000
                      *** Initiating the SOSCF procedure ***
                           *** Shutting down DIIS ***
                      *** Re-Reading the Fockian *** 
                      *** Removing any level shift *** 
ITER      Energy       Delta-E        Grad      Rot      Max-DP    RMS-DP
  6   -456.37845204   0.0320279047  0.000871  0.000871  0.001390  0.000039
               *** Restarting incremental Fock matrix formation ***
  7   -456.36961640   0.0088356379  0.000303  0.000414  0.000653  0.000017
  8   -456.36962540  -0.0000090021  0.000116  0.000329  0.000499  0.000014
  9   -456.36962751  -0.0000021131  0.000058  0.000040  0.000084  0.000002
 10   -456.36962769  -0.0000001733  0.000012  0.000007  0.000018  0.000000
                  ***Gradient check signals convergence***
              ***Rediagonalizing the Fockian in SOSCF/NRSCF***

               *****************************************************
               *                     SUCCESS                       *
               *           SCF CONVERGED AFTER  11 CYCLES          *
               *****************************************************


----------------
TOTAL SCF ENERGY
----------------

Total Energy       :         -456.36962769 Eh          -12418.44891 eV

Components:
Nuclear Repulsion  :          261.79715495 Eh            7123.86276 eV
Electronic Energy  :         -718.16678264 Eh          -19542.31167 eV
One Electron Energy:        -1151.42694783 Eh          -31331.92013 eV
Two Electron Energy:          433.26016519 Eh           11789.60847 eV

Virial components:
Potential Energy   :         -912.10689935 Eh          -24819.69054 eV
Kinetic Energy     :          455.73727166 Eh           12401.24163 eV
Virial Ratio       :            2.00138755


---------------
SCF CONVERGENCE
---------------

  Last Energy change         ...   -4.7042e-09  Tolerance :   1.0000e-08
  Last MAX-Density change    ...    4.0280e-06  Tolerance :   1.0000e-07
  Last RMS-Density change    ...    1.3211e-07  Tolerance :   5.0000e-09
  Last Orbital Gradient      ...    2.3023e-06  Tolerance :   1.0000e-05
  Last Orbital Rotation      ...    2.6852e-06  Tolerance :   1.0000e-05

             **** THE GBW FILE WAS UPDATED (12h2o.su.etal.mol2,3,4,5,9,10-orca.engrad-mp2.def2tzvp.frozencore.gbw) ****
             **** DENSITY FILE WAS UPDATED (12h2o.su.etal.mol2,3,4,5,9,10-orca.engrad-mp2.def2tzvp.frozencore.scfp) ****
             **** ENERGY FILE WAS UPDATED (12h2o.su.etal.mol2,3,4,5,9,10-orca.engrad-mp2.def2tzvp.frozencore.en.tmp) ****
             **** THE GBW FILE WAS UPDATED (12h2o.su.etal.mol2,3,4,5,9,10-orca.engrad-mp2.def2tzvp.frozencore.gbw) ****
             **** DENSITY FILE WAS UPDATED (12h2o.su.etal.mol2,3,4,5,9,10-orca.engrad-mp2.def2tzvp.frozencore.scfp) ****
----------------
ORBITAL ENERGIES
----------------

  NO   OCC          E(Eh)            E(eV) 
   0   2.0000     -20.636373      -561.5443 
   1   2.0000     -20.592476      -560.3498 
   2   2.0000     -20.572171      -559.7972 
   3   2.0000     -20.552435      -559.2602 
   4   2.0000     -20.531498      -558.6905 
   5   2.0000     -20.522682      -558.4506 
   6   2.0000      -1.416886       -38.5554 
   7   2.0000      -1.381432       -37.5907 
   8   2.0000      -1.353611       -36.8336 
   9   2.0000      -1.336988       -36.3813 
  10   2.0000      -1.309630       -35.6369 
  11   2.0000      -1.304566       -35.4990 
  12   2.0000      -0.782479       -21.2923 
  13   2.0000      -0.743387       -20.2286 
  14   2.0000      -0.724421       -19.7125 
  15   2.0000      -0.720773       -19.6132 
  16   2.0000      -0.678763       -18.4701 
  17   2.0000      -0.673784       -18.3346 
  18   2.0000      -0.656979       -17.8773 
  19   2.0000      -0.625363       -17.0170 
  20   2.0000      -0.601557       -16.3692 
  21   2.0000      -0.583020       -15.8648 
  22   2.0000      -0.569474       -15.4962 
  23   2.0000      -0.553402       -15.0588 
  24   2.0000      -0.540288       -14.7020 
  25   2.0000      -0.527181       -14.3453 
  26   2.0000      -0.516377       -14.0513 
  27   2.0000      -0.499295       -13.5865 
  28   2.0000      -0.476896       -12.9770 
  29   2.0000      -0.469202       -12.7676 
  30   0.0000       0.074927         2.0389 
  31   0.0000       0.119143         3.2420 
  32   0.0000       0.141692         3.8556 
  33   0.0000       0.149332         4.0635 
  34   0.0000       0.169054         4.6002 
  35   0.0000       0.206168         5.6101 
  36   0.0000       0.212132         5.7724 
  37   0.0000       0.241524         6.5722 
  38   0.0000       0.261616         7.1189 
  39   0.0000       0.289524         7.8783 
  40   0.0000       0.292402         7.9567 
  41   0.0000       0.329922         8.9776 
  42   0.0000       0.422377        11.4935 
  43   0.0000       0.463616        12.6156 
  44   0.0000       0.472962        12.8700 
  45   0.0000       0.491325        13.3696 
  46   0.0000       0.518007        14.0957 
  47   0.0000       0.526544        14.3280 
  48   0.0000       0.539541        14.6817 
  49   0.0000       0.555514        15.1163 
  50   0.0000       0.557408        15.1679 
  51   0.0000       0.571877        15.5616 
  52   0.0000       0.583932        15.8896 
  53   0.0000       0.607678        16.5358 
  54   0.0000       0.610266        16.6062 
  55   0.0000       0.625079        17.0093 
  56   0.0000       0.631209        17.1761 
  57   0.0000       0.637991        17.3606 
  58   0.0000       0.650586        17.7033 
  59   0.0000       0.675845        18.3907 
  60   0.0000       0.689957        18.7747 
  61   0.0000       0.695981        18.9386 
  62   0.0000       0.712159        19.3788 
  63   0.0000       0.717863        19.5340 
  64   0.0000       0.751363        20.4456 
  65   0.0000       0.764814        20.8117 
  66   0.0000       0.771761        21.0007 
  67   0.0000       0.799987        21.7687 
  68   0.0000       0.805293        21.9131 
  69   0.0000       0.824780        22.4434 
  70   0.0000       0.852047        23.1854 
  71   0.0000       0.872296        23.7364 
  72   0.0000       0.906656        24.6714 
  73   0.0000       0.912793        24.8384 
  74   0.0000       0.959183        26.1007 
  75   0.0000       0.985933        26.8286 
  76   0.0000       1.015360        27.6293 
  77   0.0000       1.045473        28.4488 
  78   0.0000       1.326604        36.0987 
  79   0.0000       1.363149        37.0932 
  80   0.0000       1.370692        37.2984 
  81   0.0000       1.389239        37.8031 
  82   0.0000       1.410318        38.3767 
  83   0.0000       1.427823        38.8530 
  84   0.0000       1.441982        39.2383 
  85   0.0000       1.447614        39.3916 
  86   0.0000       1.457942        39.6726 
  87   0.0000       1.483052        40.3559 
  88   0.0000       1.496095        40.7108 
  89   0.0000       1.510381        41.0996 
  90   0.0000       1.532970        41.7142 
  91   0.0000       1.558033        42.3962 
  92   0.0000       1.573836        42.8263 
  93   0.0000       1.605314        43.6828 
  94   0.0000       1.627261        44.2800 
  95   0.0000       1.649872        44.8953 
  96   0.0000       1.775110        48.3032 
  97   0.0000       1.800172        48.9852 
  98   0.0000       1.829703        49.7887 
  99   0.0000       1.854807        50.4719 
 100   0.0000       1.874994        51.0212 
 101   0.0000       1.883520        51.2532 
 102   0.0000       1.896795        51.6144 
 103   0.0000       1.930781        52.5392 
 104   0.0000       1.946563        52.9687 
 105   0.0000       1.990200        54.1561 
 106   0.0000       2.001097        54.4526 
 107   0.0000       2.012500        54.7629 
 108   0.0000       2.023598        55.0649 
 109   0.0000       2.046327        55.6834 
 110   0.0000       2.065379        56.2018 
 111   0.0000       2.129617        57.9498 
 112   0.0000       2.138492        58.1913 
 113   0.0000       2.156590        58.6838 
 114   0.0000       2.219369        60.3921 
 115   0.0000       2.258497        61.4568 
 116   0.0000       2.279825        62.0372 
 117   0.0000       2.316342        63.0309 
 118   0.0000       2.326348        63.3031 
 119   0.0000       2.330297        63.4106 
 120   0.0000       2.344873        63.8072 
 121   0.0000       2.352839        64.0240 
 122   0.0000       2.359624        64.2086 
 123   0.0000       2.365253        64.3618 
 124   0.0000       2.381473        64.8032 
 125   0.0000       2.384805        64.8938 
 126   0.0000       2.397595        65.2419 
 127   0.0000       2.424882        65.9844 
 128   0.0000       2.480152        67.4884 
 129   0.0000       2.495831        67.9150 
 130   0.0000       2.511373        68.3379 
 131   0.0000       2.547048        69.3087 
 132   0.0000       2.563204        69.7483 
 133   0.0000       2.586644        70.3862 
 134   0.0000       2.604982        70.8852 
 135   0.0000       2.629818        71.5610 
 136   0.0000       2.632381        71.6307 
 137   0.0000       2.649737        72.1030 
 138   0.0000       2.662022        72.4373 
 139   0.0000       2.674866        72.7868 
 140   0.0000       2.723109        74.0996 
 141   0.0000       2.729188        74.2650 
 142   0.0000       2.739143        74.5359 
 143   0.0000       2.775527        75.5259 
 144   0.0000       2.854013        77.6616 
 145   0.0000       2.905158        79.0534 
 146   0.0000       2.932591        79.7999 
 147   0.0000       2.942003        80.0560 
 148   0.0000       2.967341        80.7455 
 149   0.0000       2.979499        81.0763 
 150   0.0000       2.994283        81.4786 
 151   0.0000       3.010509        81.9201 
 152   0.0000       3.018029        82.1247 
 153   0.0000       3.021859        82.2290 
 154   0.0000       3.040755        82.7432 
 155   0.0000       3.067620        83.4742 
 156   0.0000       3.079697        83.8028 
 157   0.0000       3.107985        84.5726 
 158   0.0000       3.121170        84.9314 
 159   0.0000       3.142764        85.5189 
 160   0.0000       3.180574        86.5478 
 161   0.0000       3.222102        87.6778 
 162   0.0000       3.240357        88.1746 
 163   0.0000       3.266857        88.8957 
 164   0.0000       3.284836        89.3849 
 165   0.0000       3.301425        89.8363 
 166   0.0000       3.349580        91.1467 
 167   0.0000       3.505909        95.4006 
 168   0.0000       3.951101       107.5149 
 169   0.0000       4.008794       109.0848 
 170   0.0000       4.053944       110.3134 
 171   0.0000       4.070727       110.7701 
 172   0.0000       4.087423       111.2244 
 173   0.0000       4.111286       111.8738 
 174   0.0000       4.246073       115.5415 
 175   0.0000       4.289289       116.7175 
 176   0.0000       4.303448       117.1028 
 177   0.0000       4.337038       118.0168 
 178   0.0000       4.349094       118.3449 
 179   0.0000       4.376702       119.0961 
 180   0.0000       5.477505       149.0505 
 181   0.0000       5.512116       149.9923 
 182   0.0000       5.539026       150.7246 
 183   0.0000       5.555726       151.1790 
 184   0.0000       5.571572       151.6102 
 185   0.0000       5.577169       151.7625 
 186   0.0000       5.584551       151.9634 
 187   0.0000       5.640556       153.4873 
 188   0.0000       5.647672       153.6810 
 189   0.0000       5.662305       154.0792 
 190   0.0000       5.684522       154.6837 
 191   0.0000       5.690060       154.8344 
 192   0.0000       5.740617       156.2101 
 193   0.0000       5.778987       157.2542 
 194   0.0000       5.802397       157.8912 
 195   0.0000       5.808942       158.0694 
 196   0.0000       5.814687       158.2257 
 197   0.0000       5.838241       158.8666 
 198   0.0000       5.845499       159.0641 
 199   0.0000       5.850261       159.1937 
 200   0.0000       5.851654       159.2316 
 201   0.0000       5.861319       159.4946 
 202   0.0000       5.863553       159.5554 
 203   0.0000       5.866009       159.6222 
 204   0.0000       5.882237       160.0638 
 205   0.0000       5.896392       160.4490 
 206   0.0000       5.907610       160.7542 
 207   0.0000       5.926520       161.2688 
 208   0.0000       5.935651       161.5173 
 209   0.0000       5.937578       161.5697 
 210   0.0000       6.359213       173.0430 
 211   0.0000       6.450767       175.5343 
 212   0.0000       6.458480       175.7442 
 213   0.0000       6.476439       176.2329 
 214   0.0000       6.498292       176.8275 
 215   0.0000       6.526205       177.5871 
 216   0.0000       6.631654       180.4565 
 217   0.0000       6.662384       181.2927 
 218   0.0000       6.688549       182.0047 
 219   0.0000       6.714446       182.7094 
 220   0.0000       6.721633       182.9049 
 221   0.0000       6.741918       183.4569 
 222   0.0000       6.814813       185.4405 
 223   0.0000       6.837286       186.0520 
 224   0.0000       6.840654       186.1437 
 225   0.0000       6.850714       186.4174 
 226   0.0000       6.860850       186.6932 
 227   0.0000       6.868570       186.9033 
 228   0.0000       6.883131       187.2995 
 229   0.0000       6.896354       187.6593 
 230   0.0000       6.898720       187.7237 
 231   0.0000       6.914875       188.1633 
 232   0.0000       6.926342       188.4754 
 233   0.0000       6.940088       188.8494 
 234   0.0000       6.947622       189.0544 
 235   0.0000       6.972853       189.7410 
 236   0.0000       6.986906       190.1234 
 237   0.0000       6.994624       190.3334 
 238   0.0000       7.001833       190.5296 
 239   0.0000       7.077053       192.5764 
 240   0.0000       7.312767       198.9905 
 241   0.0000       7.360306       200.2841 
 242   0.0000       7.379878       200.8167 
 243   0.0000       7.405836       201.5230 
 244   0.0000       7.421145       201.9396 
 245   0.0000       7.444212       202.5673 
 246   0.0000       7.481917       203.5933 
 247   0.0000       7.515578       204.5093 
 248   0.0000       7.559307       205.6992 
 249   0.0000       7.563886       205.8238 
 250   0.0000       7.584542       206.3859 
 251   0.0000       7.596668       206.7158 
 252   0.0000      44.869604      1220.9640 
 253   0.0000      44.907426      1221.9932 
 254   0.0000      44.941086      1222.9091 
 255   0.0000      44.959895      1223.4210 
 256   0.0000      44.978749      1223.9340 
 257   0.0000      44.998564      1224.4732 

                    ********************************
                    * MULLIKEN POPULATION ANALYSIS *
                    ********************************

-----------------------
MULLIKEN ATOMIC CHARGES
-----------------------
   0 O :   -0.752943
   1 H :    0.381396
   2 H :    0.389085
   3 O :   -0.730592
   4 H :    0.364691
   5 H :    0.395644
   6 O :   -0.721726
   7 H :    0.387655
   8 H :    0.324013
   9 O :   -0.739743
  10 H :    0.350301
  11 H :    0.387552
  12 O :   -0.718219
  13 H :    0.384279
  14 H :    0.328997
  15 O :   -0.773020
  16 H :    0.348435
  17 H :    0.394193
Sum of atomic charges:    0.0000000

--------------------------------
MULLIKEN REDUCED ORBITAL CHARGES
--------------------------------
  0 O s       :     3.808063  s :     3.808063
      pz      :     1.736867  p :     4.919653
      px      :     1.794030
      py      :     1.388756
      dz2     :     0.004020  d :     0.023761
      dxz     :     0.005367
      dyz     :     0.004507
      dx2y2   :     0.002540
      dxy     :     0.007327
      f0      :     0.000085  f :     0.001466
      f+1     :     0.000177
      f-1     :     0.000335
      f+2     :     0.000061
      f-2     :     0.000347
      f+3     :     0.000369
      f-3     :     0.000092
  1 H s       :     0.573843  s :     0.573843
      pz      :     0.017022  p :     0.044761
      px      :     0.014474
      py      :     0.013265
  2 H s       :     0.570466  s :     0.570466
      pz      :     0.010351  p :     0.040448
      px      :     0.011981
      py      :     0.018116
  3 O s       :     3.795852  s :     3.795852
      pz      :     1.525373  p :     4.908307
      px      :     1.593043
      py      :     1.789890
      dz2     :     0.012339  d :     0.025033
      dxz     :     0.001245
      dyz     :     0.002364
      dx2y2   :     0.002392
      dxy     :     0.006693
      f0      :     0.000251  f :     0.001400
      f+1     :     0.000388
      f-1     :     0.000157
      f+2     :     0.000051
      f-2     :     0.000056
      f+3     :     0.000049
      f-3     :     0.000448
  4 H s       :     0.591526  s :     0.591526
      pz      :     0.019278  p :     0.043782
      px      :     0.011750
      py      :     0.012755
  5 H s       :     0.555140  s :     0.555140
      pz      :     0.009636  p :     0.049216
      px      :     0.024005
      py      :     0.015575
  6 O s       :     3.811947  s :     3.811947
      pz      :     1.588499  p :     4.883035
      px      :     1.868157
      py      :     1.426379
      dz2     :     0.011207  d :     0.025285
      dxz     :     0.002600
      dyz     :     0.002837
      dx2y2   :     0.003227
      dxy     :     0.005414
      f0      :     0.000161  f :     0.001458
      f+1     :     0.000122
      f-1     :     0.000445
      f+2     :     0.000078
      f-2     :     0.000040
      f+3     :     0.000485
      f-3     :     0.000128
  7 H s       :     0.563248  s :     0.563248
      pz      :     0.024842  p :     0.049097
      px      :     0.013118
      py      :     0.011137
  8 H s       :     0.631917  s :     0.631917
      pz      :     0.010613  p :     0.044071
      px      :     0.015460
      py      :     0.017998
  9 O s       :     3.810653  s :     3.810653
      pz      :     1.583961  p :     4.903493
      px      :     1.874224
      py      :     1.445308
      dz2     :     0.010323  d :     0.024127
      dxz     :     0.002525
      dyz     :     0.002592
      dx2y2   :     0.003131
      dxy     :     0.005557
      f0      :     0.000183  f :     0.001470
      f+1     :     0.000123
      f-1     :     0.000433
      f+2     :     0.000078
      f-2     :     0.000036
      f+3     :     0.000490
      f-3     :     0.000128
 10 H s       :     0.606463  s :     0.606463
      pz      :     0.009752  p :     0.043236
      px      :     0.015130
      py      :     0.018354
 11 H s       :     0.563243  s :     0.563243
      pz      :     0.024347  p :     0.049204
      px      :     0.013460
      py      :     0.011398
 12 O s       :     3.810112  s :     3.810112
      pz      :     1.552745  p :     4.881078
      px      :     1.816004
      py      :     1.512329
      dz2     :     0.011554  d :     0.025532
      dxz     :     0.003049
      dyz     :     0.001203
      dx2y2   :     0.002111
      dxy     :     0.007614
      f0      :     0.000249  f :     0.001498
      f+1     :     0.000168
      f-1     :     0.000376
      f+2     :     0.000056
      f-2     :     0.000056
      f+3     :     0.000522
      f-3     :     0.000071
 13 H s       :     0.566998  s :     0.566998
      pz      :     0.024296  p :     0.048723
      px      :     0.012880
      py      :     0.011546
 14 H s       :     0.625924  s :     0.625924
      pz      :     0.011079  p :     0.045079
      px      :     0.015997
      py      :     0.018003
 15 O s       :     3.808977  s :     3.808977
      pz      :     1.713408  p :     4.939664
      px      :     1.809050
      py      :     1.417205
      dz2     :     0.003683  d :     0.022952
      dxz     :     0.005412
      dyz     :     0.004271
      dx2y2   :     0.002279
      dxy     :     0.007307
      f0      :     0.000079  f :     0.001427
      f+1     :     0.000177
      f-1     :     0.000312
      f+2     :     0.000069
      f-2     :     0.000349
      f+3     :     0.000353
      f-3     :     0.000089
 16 H s       :     0.605889  s :     0.605889
      pz      :     0.016862  p :     0.045676
      px      :     0.014899
      py      :     0.013916
 17 H s       :     0.549149  s :     0.549149
      pz      :     0.010334  p :     0.056658
      px      :     0.014084
      py      :     0.032241


                     *******************************
                     * LOEWDIN POPULATION ANALYSIS *
                     *******************************

----------------------
LOEWDIN ATOMIC CHARGES
----------------------
   0 O :   -0.298303
   1 H :    0.171331
   2 H :    0.196020
   3 O :   -0.287600
   4 H :    0.171037
   5 H :    0.160391
   6 O :   -0.349967
   7 H :    0.155516
   8 H :    0.157749
   9 O :   -0.330240
  10 H :    0.170840
  11 H :    0.155904
  12 O :   -0.342998
  13 H :    0.156437
  14 H :    0.158008
  15 O :   -0.349880
  16 H :    0.154134
  17 H :    0.151621

-------------------------------
LOEWDIN REDUCED ORBITAL CHARGES
-------------------------------
  0 O s       :     3.461291  s :     3.461291
      pz      :     1.689420  p :     4.804032
      px      :     1.746934
      py      :     1.367678
      dz2     :     0.005402  d :     0.030940
      dxz     :     0.005196
      dyz     :     0.006582
      dx2y2   :     0.004208
      dxy     :     0.009552
      f0      :     0.000090  f :     0.002041
      f+1     :     0.000266
      f-1     :     0.000444
      f+2     :     0.000033
      f-2     :     0.000592
      f+3     :     0.000526
      f-3     :     0.000089
  1 H s       :     0.664451  s :     0.664451
      pz      :     0.066859  p :     0.164218
      px      :     0.052575
      py      :     0.044784
  2 H s       :     0.654566  s :     0.654566
      pz      :     0.033275  p :     0.149414
      px      :     0.043461
      py      :     0.072678
  3 O s       :     3.452269  s :     3.452269
      pz      :     1.516932  p :     4.801401
      px      :     1.552786
      py      :     1.731683
      dz2     :     0.016275  d :     0.031819
      dxz     :     0.002009
      dyz     :     0.001889
      dx2y2   :     0.003445
      dxy     :     0.008201
      f0      :     0.000465  f :     0.002111
      f+1     :     0.000574
      f-1     :     0.000333
      f+2     :     0.000021
      f-2     :     0.000051
      f+3     :     0.000026
      f-3     :     0.000641
  4 H s       :     0.669579  s :     0.669579
      pz      :     0.080894  p :     0.159384
      px      :     0.036582
      py      :     0.041908
  5 H s       :     0.665857  s :     0.665857
      pz      :     0.029674  p :     0.173753
      px      :     0.086182
      py      :     0.057897
  6 O s       :     3.472440  s :     3.472440
      pz      :     1.573764  p :     4.843574
      px      :     1.831064
      py      :     1.438745
      dz2     :     0.014322  d :     0.031866
      dxz     :     0.001652
      dyz     :     0.003825
      dx2y2   :     0.004740
      dxy     :     0.007328
      f0      :     0.000335  f :     0.002088
      f+1     :     0.000200
      f-1     :     0.000724
      f+2     :     0.000045
      f-2     :     0.000041
      f+3     :     0.000666
      f-3     :     0.000077
  7 H s       :     0.672030  s :     0.672030
      pz      :     0.094378  p :     0.172454
      px      :     0.042560
      py      :     0.035516
  8 H s       :     0.689195  s :     0.689195
      pz      :     0.030975  p :     0.153056
      px      :     0.049516
      py      :     0.072565
  9 O s       :     3.465288  s :     3.465288
      pz      :     1.552002  p :     4.831368
      px      :     1.832878
      py      :     1.446488
      dz2     :     0.014544  d :     0.031520
      dxz     :     0.001666
      dyz     :     0.003855
      dx2y2   :     0.004362
      dxy     :     0.007093
      f0      :     0.000360  f :     0.002064
      f+1     :     0.000194
      f-1     :     0.000710
      f+2     :     0.000043
      f-2     :     0.000040
      f+3     :     0.000644
      f-3     :     0.000073
 10 H s       :     0.675184  s :     0.675184
      pz      :     0.030459  p :     0.153976
      px      :     0.049189
      py      :     0.074328
 11 H s       :     0.673025  s :     0.673025
      pz      :     0.092581  p :     0.171071
      px      :     0.042881
      py      :     0.035609
 12 O s       :     3.468007  s :     3.468007
      pz      :     1.536223  p :     4.840613
      px      :     1.786581
      py      :     1.517809
      dz2     :     0.015322  d :     0.032229
      dxz     :     0.002369
      dyz     :     0.001866
      dx2y2   :     0.002388
      dxy     :     0.010285
      f0      :     0.000435  f :     0.002149
      f+1     :     0.000321
      f-1     :     0.000569
      f+2     :     0.000025
      f-2     :     0.000045
      f+3     :     0.000750
      f-3     :     0.000003
 13 H s       :     0.673268  s :     0.673268
      pz      :     0.092838  p :     0.170294
      px      :     0.041873
      py      :     0.035583
 14 H s       :     0.684929  s :     0.684929
      pz      :     0.031336  p :     0.157063
      px      :     0.054843
      py      :     0.070884
 15 O s       :     3.461474  s :     3.461474
      pz      :     1.678791  p :     4.857095
      px      :     1.782180
      py      :     1.396125
      dz2     :     0.004692  d :     0.029326
      dxz     :     0.005609
      dyz     :     0.006761
      dx2y2   :     0.003302
      dxy     :     0.008963
      f0      :     0.000084  f :     0.001985
      f+1     :     0.000260
      f-1     :     0.000429
      f+2     :     0.000034
      f-2     :     0.000616
      f+3     :     0.000478
      f-3     :     0.000085
 16 H s       :     0.680957  s :     0.680957
      pz      :     0.065909  p :     0.164909
      px      :     0.053180
      py      :     0.045819
 17 H s       :     0.652093  s :     0.652093
      pz      :     0.033585  p :     0.196286
      px      :     0.047836
      py      :     0.114865


                      *****************************
                      * MAYER POPULATION ANALYSIS *
                      *****************************

  NA   - Mulliken gross atomic population
  ZA   - Total nuclear charge
  QA   - Mulliken gross atomic charge
  VA   - Mayer's total valence
  BVA  - Mayer's bonded valence
  FA   - Mayer's free valence

  ATOM       NA         ZA         QA         VA         BVA        FA
  0 O      8.7529     8.0000    -0.7529     1.7489     1.7489     0.0000
  1 H      0.6186     1.0000     0.3814     0.8703     0.8703     0.0000
  2 H      0.6109     1.0000     0.3891     0.8642     0.8642     0.0000
  3 O      8.7306     8.0000    -0.7306     1.7531     1.7531     0.0000
  4 H      0.6353     1.0000     0.3647     0.8835     0.8835     0.0000
  5 H      0.6044     1.0000     0.3956     0.8710     0.8710    -0.0000
  6 O      8.7217     8.0000    -0.7217     1.7516     1.7516    -0.0000
  7 H      0.6123     1.0000     0.3877     0.8805     0.8805    -0.0000
  8 H      0.6760     1.0000     0.3240     0.9136     0.9136    -0.0000
  9 O      8.7397     8.0000    -0.7397     1.7464     1.7464     0.0000
 10 H      0.6497     1.0000     0.3503     0.8974     0.8974    -0.0000
 11 H      0.6124     1.0000     0.3876     0.8753     0.8753     0.0000
 12 O      8.7182     8.0000    -0.7182     1.7562     1.7562    -0.0000
 13 H      0.6157     1.0000     0.3843     0.8772     0.8772     0.0000
 14 H      0.6710     1.0000     0.3290     0.9061     0.9061     0.0000
 15 O      8.7730     8.0000    -0.7730     1.6884     1.6884    -0.0000
 16 H      0.6516     1.0000     0.3484     0.8950     0.8950     0.0000
 17 H      0.6058     1.0000     0.3942     0.8836     0.8836    -0.0000

  Mayer bond orders larger than 0.100000
B(  0-O ,  1-H ) :   0.8616 B(  0-O ,  2-H ) :   0.8502 B(  3-O ,  4-H ) :   0.8741 
B(  3-O ,  5-H ) :   0.8366 B(  6-O ,  7-H ) :   0.8434 B(  6-O ,  8-H ) :   0.9016 
B(  9-O , 10-H ) :   0.8797 B(  9-O , 11-H ) :   0.8478 B( 12-O , 13-H ) :   0.8535 
B( 12-O , 14-H ) :   0.9015 B( 15-O , 16-H ) :   0.8865 B( 15-O , 17-H ) :   0.7987 


-------
TIMINGS
-------

Total SCF time: 0 days 0 hours 0 min 11 sec 

Total time                  ....      11.077 sec
Sum of individual times     ....      10.809 sec  ( 97.6%)

Fock matrix formation       ....      10.449 sec  ( 94.3%)
Diagonalization             ....       0.076 sec  (  0.7%)
Density matrix formation    ....       0.009 sec  (  0.1%)
Population analysis         ....       0.019 sec  (  0.2%)
Initial guess               ....       0.143 sec  (  1.3%)
Orbital Transformation      ....       0.000 sec  (  0.0%)
Orbital Orthonormalization  ....       0.000 sec  (  0.0%)
DIIS solution               ....       0.026 sec  (  0.2%)
SOSCF solution              ....       0.031 sec  (  0.3%)


           ************************************************************
           *        Program running with 6 parallel MPI-processes     *
           *              working on a common directory               *
           ************************************************************

------------------------------------------------------------------------------
                                ORCA  MP2 
------------------------------------------------------------------------------

Freezing NCore=12 chemical core electrons
MP2 will be done in the AO integral direct mode
The Q1-step will be done using symmetric double matrices
Dimension of the basis                    ...  258
Memory devoted for MP2                    ... 8000 MB   
Memory needed for all in one shot         ...  264 MB
Number of MOs that can be treated together...  120      
MP2 density construction                  ... relaxed
The MP2 gradient is requested => amplitudes will be stored on disk
Total number of MOs              ...   24
Number of MOs treated per batch  ...    4 
Number of batches necessary      ...    1 
OPERATORS   0/  0 PASS   0
-----------------------------------------------
 MP2 CORRELATION ENERGY   :     -1.548367810 Eh
-----------------------------------------------


---------------------
MP2 DENSITY FORMATION
---------------------

Completing the external part of the density      ... done
Storing the unrelaxed density                    ... done

Calculating G(D)                                 ... done
Completing the Lagrangian                        ... done
Solving the Z-vector equations                   ... 

------------------------------------------------------------------------------
                           ORCA CP-SCF CALCULATION
------------------------------------------------------------------------------

Input orbitals are from        ... 12h2o.su.etal.mol2,3,4,5,9,10-orca.engrad-mp2.def2tzvp.frozencore.gbw
Input Perturbation             ... 12h2o.su.etal.mol2,3,4,5,9,10-orca.engrad-mp2.def2tzvp.frozencore.pin.tmp
Wavefunction output            ... 12h2o.su.etal.mol2,3,4,5,9,10-orca.engrad-mp2.def2tzvp.frozencore.pout.tmp
Perturbation mode              ... Real perturbation (singlet)
Solver                         ... POPLE
Max. number of iterations      ... 128
Convergence tolerance          ... 1.000e-08
Integral handling              ... Direct
Number of perturbations        ... 1
Number of operators            ... 1
Orbital ranges used for CP-SCF:
 Operator 0:  Orbitals   0... 29  to  30...257
Variables per vector in CP-SCF ... 6840
Number of vectors sought       ... 1
     CP-SCF ITERATION   0: 
     CP-SCF ITERATION   1:      0.000759436723
     CP-SCF ITERATION   2:      0.000018137844
     CP-SCF ITERATION   3:      0.000000703132
     CP-SCF ITERATION   4:      0.000000066071
     CP-SCF ITERATION   5:      0.000000005948
                                                 ... done
Finalizing the relaxed density                   ... done
Transforming P to the AO basis                   ... done
Storing the relaxed density                      ... done

------------------------------------
ENERGY WEIGHTED DENSITY FINALIZATION
------------------------------------

Gathering the parts of the W-matrix              ...                                                      done
Forming the Z-density                            ... done
Transforming Z to the AO basis                   ... done
Calculating G(Z)                                 ... done
Finalizing the W-matrix                          ...                                                      done
Transforming W to the AO basis and storing       ... done

                *********************************************
                * UNRELAXED MP2 DENSITY POPULATION ANALYSIS *
                *********************************************

------------------------------------------------------------------------------
                           ORCA POPULATION ANALYSIS
------------------------------------------------------------------------------
Input electron density              ... 12h2o.su.etal.mol2,3,4,5,9,10-orca.engrad-mp2.def2tzvp.frozencore.pmp2ur
BaseName (.gbw .S,...)              ... 12h2o.su.etal.mol2,3,4,5,9,10-orca.engrad-mp2.def2tzvp.frozencore

                    ********************************
                    * MULLIKEN POPULATION ANALYSIS *
                    ********************************

-----------------------
MULLIKEN ATOMIC CHARGES
-----------------------
   0 O :   -0.747132
   1 H :    0.379189
   2 H :    0.386172
   3 O :   -0.723907
   4 H :    0.362163
   5 H :    0.392473
   6 O :   -0.716171
   7 H :    0.384568
   8 H :    0.321233
   9 O :   -0.734117
  10 H :    0.347372
  11 H :    0.384747
  12 O :   -0.713053
  13 H :    0.381406
  14 H :    0.326584
  15 O :   -0.767009
  16 H :    0.346137
  17 H :    0.389344
Sum of atomic charges:    0.0000000

--------------------------------
MULLIKEN REDUCED ORBITAL CHARGES
--------------------------------
  0 O s       :     3.803234  s :     3.803234
      pz      :     1.725818  p :     4.888805
      px      :     1.782166
      py      :     1.380821
      dz2     :     0.009582  d :     0.051056
      dxz     :     0.010871
      dyz     :     0.009912
      dx2y2   :     0.008023
      dxy     :     0.012669
      f0      :     0.000458  f :     0.004036
      f+1     :     0.000545
      f-1     :     0.000698
      f+2     :     0.000431
      f-2     :     0.000712
      f+3     :     0.000729
      f-3     :     0.000464
  1 H s       :     0.574568  s :     0.574568
      pz      :     0.017469  p :     0.046243
      px      :     0.015139
      py      :     0.013634
  2 H s       :     0.571917  s :     0.571917
      pz      :     0.011161  p :     0.041911
      px      :     0.012711
      py      :     0.018039
  3 O s       :     3.790642  s :     3.790642
      pz      :     1.516174  p :     4.876889
      px      :     1.583427
      py      :     1.777288
      dz2     :     0.017460  d :     0.052378
      dxz     :     0.006695
      dyz     :     0.007960
      dx2y2   :     0.008102
      dxy     :     0.012162
      f0      :     0.000631  f :     0.003998
      f+1     :     0.000756
      f-1     :     0.000533
      f+2     :     0.000415
      f-2     :     0.000424
      f+3     :     0.000427
      f-3     :     0.000813
  4 H s       :     0.592481  s :     0.592481
      pz      :     0.019348  p :     0.045356
      px      :     0.012436
      py      :     0.013572
  5 H s       :     0.556803  s :     0.556803
      pz      :     0.010388  p :     0.050724
      px      :     0.024206
      py      :     0.016130
  6 O s       :     3.807068  s :     3.807068
      pz      :     1.578632  p :     4.853151
      px      :     1.856434
      py      :     1.418086
      dz2     :     0.016345  d :     0.051937
      dxz     :     0.008107
      dyz     :     0.008152
      dx2y2   :     0.008593
      dxy     :     0.010739
      f0      :     0.000544  f :     0.004014
      f+1     :     0.000495
      f-1     :     0.000811
      f+2     :     0.000439
      f-2     :     0.000404
      f+3     :     0.000833
      f-3     :     0.000488
  7 H s       :     0.564825  s :     0.564825
      pz      :     0.024931  p :     0.050607
      px      :     0.013954
      py      :     0.011722
  8 H s       :     0.632938  s :     0.632938
      pz      :     0.011498  p :     0.045828
      px      :     0.016272
      py      :     0.018058
  9 O s       :     3.805821  s :     3.805821
      pz      :     1.574083  p :     4.873031
      px      :     1.862334
      py      :     1.436615
      dz2     :     0.015673  d :     0.051228
      dxz     :     0.008130
      dyz     :     0.007979
      dx2y2   :     0.008538
      dxy     :     0.010907
      f0      :     0.000569  f :     0.004037
      f+1     :     0.000497
      f-1     :     0.000801
      f+2     :     0.000440
      f-2     :     0.000402
      f+3     :     0.000839
      f-3     :     0.000490
 10 H s       :     0.607770  s :     0.607770
      pz      :     0.010578  p :     0.044858
      px      :     0.015913
      py      :     0.018366
 11 H s       :     0.564520  s :     0.564520
      pz      :     0.024466  p :     0.050733
      px      :     0.014301
      py      :     0.011967
 12 O s       :     3.805303  s :     3.805303
      pz      :     1.543371  p :     4.851574
      px      :     1.804815
      py      :     1.503388
      dz2     :     0.016671  d :     0.052119
      dxz     :     0.008498
      dyz     :     0.006578
      dx2y2   :     0.007574
      dxy     :     0.012799
      f0      :     0.000629  f :     0.004056
      f+1     :     0.000541
      f-1     :     0.000742
      f+2     :     0.000415
      f-2     :     0.000420
      f+3     :     0.000872
      f-3     :     0.000437
 13 H s       :     0.568329  s :     0.568329
      pz      :     0.024350  p :     0.050265
      px      :     0.013716
      py      :     0.012199
 14 H s       :     0.626613  s :     0.626613
      pz      :     0.011906  p :     0.046803
      px      :     0.016705
      py      :     0.018193
 15 O s       :     3.804033  s :     3.804033
      pz      :     1.702503  p :     4.908550
      px      :     1.797583
      py      :     1.408464
      dz2     :     0.009319  d :     0.050417
      dxz     :     0.010844
      dyz     :     0.009757
      dx2y2   :     0.007813
      dxy     :     0.012684
      f0      :     0.000452  f :     0.004009
      f+1     :     0.000542
      f-1     :     0.000678
      f+2     :     0.000439
      f-2     :     0.000715
      f+3     :     0.000720
      f-3     :     0.000463
 16 H s       :     0.606535  s :     0.606535
      pz      :     0.017348  p :     0.047328
      px      :     0.015618
      py      :     0.014362
 17 H s       :     0.552335  s :     0.552335
      pz      :     0.011155  p :     0.058320
      px      :     0.014818
      py      :     0.032347


                     *******************************
                     * LOEWDIN POPULATION ANALYSIS *
                     *******************************

----------------------
LOEWDIN ATOMIC CHARGES
----------------------
   0 O :   -0.293865
   1 H :    0.170227
   2 H :    0.194236
   3 O :   -0.283373
   4 H :    0.169527
   5 H :    0.158289
   6 O :   -0.346862
   7 H :    0.153534
   8 H :    0.155855
   9 O :   -0.326545
  10 H :    0.168972
  11 H :    0.153962
  12 O :   -0.340201
  13 H :    0.154604
  14 H :    0.156526
  15 O :   -0.346680
  16 H :    0.152831
  17 H :    0.148962

-------------------------------
LOEWDIN REDUCED ORBITAL CHARGES
-------------------------------
  0 O s       :     3.457529  s :     3.457529
      pz      :     1.677959  p :     4.772230
      px      :     1.734828
      py      :     1.359443
      dz2     :     0.011093  d :     0.059302
      dxz     :     0.010982
      dyz     :     0.012194
      dx2y2   :     0.009792
      dxy     :     0.015241
      f0      :     0.000474  f :     0.004804
      f+1     :     0.000653
      f-1     :     0.000854
      f+2     :     0.000409
      f-2     :     0.001000
      f+3     :     0.000940
      f-3     :     0.000474
  1 H s       :     0.662718  s :     0.662718
      pz      :     0.067992  p :     0.167055
      px      :     0.053506
      py      :     0.045558
  2 H s       :     0.653441  s :     0.653441
      pz      :     0.034096  p :     0.152323
      px      :     0.044411
      py      :     0.073816
  3 O s       :     3.448466  s :     3.448466
      pz      :     1.507467  p :     4.769803
      px      :     1.543184
      py      :     1.719152
      dz2     :     0.022105  d :     0.060198
      dxz     :     0.007399
      dyz     :     0.007411
      dx2y2   :     0.009110
      dxy     :     0.014172
      f0      :     0.000887  f :     0.004906
      f+1     :     0.000996
      f-1     :     0.000733
      f+2     :     0.000390
      f-2     :     0.000426
      f+3     :     0.000408
      f-3     :     0.001067
  4 H s       :     0.668005  s :     0.668005
      pz      :     0.082410  p :     0.162468
      px      :     0.037348
      py      :     0.042711
  5 H s       :     0.665175  s :     0.665175
      pz      :     0.030414  p :     0.176536
      px      :     0.087323
      py      :     0.058799
  6 O s       :     3.468684  s :     3.468684
      pz      :     1.563950  p :     4.813681
      px      :     1.819756
      py      :     1.429975
      dz2     :     0.020077  d :     0.059661
      dxz     :     0.007089
      dyz     :     0.009178
      dx2y2   :     0.010336
      dxy     :     0.012981
      f0      :     0.000749  f :     0.004837
      f+1     :     0.000587
      f-1     :     0.001158
      f+2     :     0.000413
      f-2     :     0.000411
      f+3     :     0.001070
      f-3     :     0.000449
  7 H s       :     0.671218  s :     0.671218
      pz      :     0.095675  p :     0.175248
      px      :     0.043329
      py      :     0.036244
  8 H s       :     0.687589  s :     0.687589
      pz      :     0.031834  p :     0.156556
      px      :     0.050535
      py      :     0.074187
  9 O s       :     3.461529  s :     3.461529
      pz      :     1.541575  p :     4.800428
      px      :     1.821395
      py      :     1.437458
      dz2     :     0.020488  d :     0.059760
      dxz     :     0.007203
      dyz     :     0.009299
      dx2y2   :     0.009996
      dxy     :     0.012774
      f0      :     0.000777  f :     0.004828
      f+1     :     0.000584
      f-1     :     0.001147
      f+2     :     0.000413
      f-2     :     0.000412
      f+3     :     0.001048
      f-3     :     0.000446
 10 H s       :     0.673802  s :     0.673802
      pz      :     0.031303  p :     0.157226
      px      :     0.050161
      py      :     0.075762
 11 H s       :     0.672095  s :     0.672095
      pz      :     0.093922  p :     0.173943
      px      :     0.043669
      py      :     0.036352
 12 O s       :     3.464280  s :     3.464280
      pz      :     1.526778  p :     4.811104
      px      :     1.775702
      py      :     1.508624
      dz2     :     0.021105  d :     0.059916
      dxz     :     0.007762
      dyz     :     0.007193
      dx2y2   :     0.007844
      dxy     :     0.016012
      f0      :     0.000855  f :     0.004901
      f+1     :     0.000717
      f-1     :     0.000989
      f+2     :     0.000388
      f-2     :     0.000417
      f+3     :     0.001160
      f-3     :     0.000375
 13 H s       :     0.672232  s :     0.672232
      pz      :     0.094158  p :     0.173163
      px      :     0.042688
      py      :     0.036317
 14 H s       :     0.683024  s :     0.683024
      pz      :     0.032119  p :     0.160450
      px      :     0.055960
      py      :     0.072371
 15 O s       :     3.457842  s :     3.457842
      pz      :     1.667415  p :     4.826158
      px      :     1.771091
      py      :     1.387652
      dz2     :     0.010422  d :     0.057915
      dxz     :     0.011379
      dyz     :     0.012462
      dx2y2   :     0.008947
      dxy     :     0.014705
      f0      :     0.000468  f :     0.004764
      f+1     :     0.000645
      f-1     :     0.000844
      f+2     :     0.000411
      f-2     :     0.001027
      f+3     :     0.000897
      f-3     :     0.000473
 16 H s       :     0.679060  s :     0.679060
      pz      :     0.067172  p :     0.168109
      px      :     0.054179
      py      :     0.046758
 17 H s       :     0.652300  s :     0.652300
      pz      :     0.034426  p :     0.198739
      px      :     0.048709
      py      :     0.115603


                      *****************************
                      * MAYER POPULATION ANALYSIS *
                      *****************************

  NA   - Mulliken gross atomic population
  ZA   - Total nuclear charge
  QA   - Mulliken gross atomic charge
  VA   - Mayer's total valence
  BVA  - Mayer's bonded valence
  FA   - Mayer's free valence

  ATOM       NA         ZA         QA         VA         BVA        FA
  0 O      8.7471     8.0000    -0.7471     2.0623     1.6700     0.3924
  1 H      0.6208     1.0000     0.3792     0.8756     0.8317     0.0439
  2 H      0.6138     1.0000     0.3862     0.8702     0.8237     0.0465
  3 O      8.7239     8.0000    -0.7239     2.0623     1.6742     0.3881
  4 H      0.6378     1.0000     0.3622     0.8894     0.8430     0.0464
  5 H      0.6075     1.0000     0.3925     0.8772     0.8333     0.0438
  6 O      8.7162     8.0000    -0.7162     2.0601     1.6699     0.3902
  7 H      0.6154     1.0000     0.3846     0.8867     0.8425     0.0442
  8 H      0.6788     1.0000     0.3212     0.9204     0.8693     0.0511
  9 O      8.7341     8.0000    -0.7341     2.0583     1.6660     0.3923
 10 H      0.6526     1.0000     0.3474     0.9040     0.8548     0.0492
 11 H      0.6153     1.0000     0.3847     0.8812     0.8371     0.0442
 12 O      8.7131     8.0000    -0.7131     2.0623     1.6756     0.3868
 13 H      0.6186     1.0000     0.3814     0.8832     0.8390     0.0442
 14 H      0.6734     1.0000     0.3266     0.9123     0.8632     0.0491
 15 O      8.7670     8.0000    -0.7670     2.0045     1.6104     0.3941
 16 H      0.6539     1.0000     0.3461     0.9008     0.8539     0.0470
 17 H      0.6107     1.0000     0.3893     0.8916     0.8449     0.0467

  Mayer bond orders larger than 0.100000
B(  0-O ,  1-H ) :   0.8237 B(  0-O ,  2-H ) :   0.8105 B(  3-O ,  4-H ) :   0.8343 
B(  3-O ,  5-H ) :   0.7998 B(  6-O ,  7-H ) :   0.8064 B(  6-O ,  8-H ) :   0.8580 
B(  9-O , 10-H ) :   0.8380 B(  9-O , 11-H ) :   0.8103 B( 12-O , 13-H ) :   0.8159 
B( 12-O , 14-H ) :   0.8591 B( 15-O , 16-H ) :   0.8461 B( 15-O , 17-H ) :   0.7623 



                *******************************************
                * RELAXED MP2 DENSITY POPULATION ANALYSIS *
                *******************************************

------------------------------------------------------------------------------
                           ORCA POPULATION ANALYSIS
------------------------------------------------------------------------------
Input electron density              ... 12h2o.su.etal.mol2,3,4,5,9,10-orca.engrad-mp2.def2tzvp.frozencore.pmp2re
BaseName (.gbw .S,...)              ... 12h2o.su.etal.mol2,3,4,5,9,10-orca.engrad-mp2.def2tzvp.frozencore

                    ********************************
                    * MULLIKEN POPULATION ANALYSIS *
                    ********************************

-----------------------
MULLIKEN ATOMIC CHARGES
-----------------------
   0 O :   -0.724326
   1 H :    0.372098
   2 H :    0.378738
   3 O :   -0.696265
   4 H :    0.355849
   5 H :    0.376916
   6 O :   -0.696979
   7 H :    0.368497
   8 H :    0.313756
   9 O :   -0.711704
  10 H :    0.338777
  11 H :    0.370008
  12 O :   -0.696327
  13 H :    0.368091
  14 H :    0.321032
  15 O :   -0.742731
  16 H :    0.339310
  17 H :    0.365261
Sum of atomic charges:    0.0000000

--------------------------------
MULLIKEN REDUCED ORBITAL CHARGES
--------------------------------
  0 O s       :     3.806539  s :     3.806539
      pz      :     1.716957  p :     4.864907
      px      :     1.770332
      py      :     1.377618
      dz2     :     0.009356  d :     0.048918
      dxz     :     0.010614
      dyz     :     0.009332
      dx2y2   :     0.007760
      dxy     :     0.011856
      f0      :     0.000456  f :     0.003962
      f+1     :     0.000537
      f-1     :     0.000678
      f+2     :     0.000430
      f-2     :     0.000691
      f+3     :     0.000708
      f-3     :     0.000462
  1 H s       :     0.581028  s :     0.581028
      pz      :     0.017589  p :     0.046874
      px      :     0.015729
      py      :     0.013556
  2 H s       :     0.578852  s :     0.578852
      pz      :     0.011958  p :     0.042410
      px      :     0.013375
      py      :     0.017077
  3 O s       :     3.790047  s :     3.790047
      pz      :     1.510976  p :     4.851832
      px      :     1.581900
      py      :     1.758956
      dz2     :     0.016151  d :     0.050463
      dxz     :     0.006655
      dyz     :     0.007948
      dx2y2   :     0.008095
      dxy     :     0.011613
      f0      :     0.000612  f :     0.003924
      f+1     :     0.000734
      f-1     :     0.000524
      f+2     :     0.000415
      f-2     :     0.000422
      f+3     :     0.000426
      f-3     :     0.000790
  4 H s       :     0.598162  s :     0.598162
      pz      :     0.018577  p :     0.045989
      px      :     0.012978
      py      :     0.014435
  5 H s       :     0.571925  s :     0.571925
      pz      :     0.010998  p :     0.051160
      px      :     0.023709
      py      :     0.016453
  6 O s       :     3.808299  s :     3.808299
      pz      :     1.573443  p :     4.834997
      px      :     1.850588
      py      :     1.410966
      dz2     :     0.015260  d :     0.049741
      dxz     :     0.008141
      dyz     :     0.007911
      dx2y2   :     0.008256
      dxy     :     0.010175
      f0      :     0.000531  f :     0.003942
      f+1     :     0.000489
      f-1     :     0.000782
      f+2     :     0.000439
      f-2     :     0.000402
      f+3     :     0.000812
      f-3     :     0.000487
  7 H s       :     0.580358  s :     0.580358
      pz      :     0.024265  p :     0.051145
      px      :     0.014810
      py      :     0.012071
  8 H s       :     0.639532  s :     0.639532
      pz      :     0.012342  p :     0.046712
      px      :     0.017174
      py      :     0.017197
  9 O s       :     3.807772  s :     3.807772
      pz      :     1.565684  p :     4.850920
      px      :     1.856662
      py      :     1.428575
      dz2     :     0.014602  d :     0.049045
      dxz     :     0.008162
      dyz     :     0.007703
      dx2y2   :     0.008225
      dxy     :     0.010352
      f0      :     0.000558  f :     0.003966
      f+1     :     0.000491
      f-1     :     0.000771
      f+2     :     0.000440
      f-2     :     0.000400
      f+3     :     0.000818
      f-3     :     0.000489
 10 H s       :     0.615538  s :     0.615538
      pz      :     0.011387  p :     0.045686
      px      :     0.016773
      py      :     0.017526
 11 H s       :     0.578662  s :     0.578662
      pz      :     0.023761  p :     0.051330
      px      :     0.015223
      py      :     0.012347
 12 O s       :     3.807163  s :     3.807163
      pz      :     1.539605  p :     4.835237
      px      :     1.799711
      py      :     1.495921
      dz2     :     0.015453  d :     0.049942
      dxz     :     0.008465
      dyz     :     0.006528
      dx2y2   :     0.007495
      dxy     :     0.012001
      f0      :     0.000613  f :     0.003984
      f+1     :     0.000531
      f-1     :     0.000720
      f+2     :     0.000416
      f-2     :     0.000419
      f+3     :     0.000848
      f-3     :     0.000438
 13 H s       :     0.581161  s :     0.581161
      pz      :     0.023493  p :     0.050748
      px      :     0.014584
      py      :     0.012670
 14 H s       :     0.631316  s :     0.631316
      pz      :     0.012672  p :     0.047652
      px      :     0.017325
      py      :     0.017655
 15 O s       :     3.805799  s :     3.805799
      pz      :     1.691927  p :     4.884434
      px      :     1.791833
      py      :     1.400675
      dz2     :     0.009167  d :     0.048555
      dxz     :     0.010531
      dyz     :     0.009188
      dx2y2   :     0.007692
      dxy     :     0.011976
      f0      :     0.000450  f :     0.003943
      f+1     :     0.000534
      f-1     :     0.000660
      f+2     :     0.000439
      f-2     :     0.000696
      f+3     :     0.000703
      f-3     :     0.000461
 16 H s       :     0.612605  s :     0.612605
      pz      :     0.017491  p :     0.048085
      px      :     0.016207
      py      :     0.014386
 17 H s       :     0.576211  s :     0.576211
      pz      :     0.011886  p :     0.058528
      px      :     0.015358
      py      :     0.031284


                     *******************************
                     * LOEWDIN POPULATION ANALYSIS *
                     *******************************

----------------------
LOEWDIN ATOMIC CHARGES
----------------------
   0 O :   -0.287878
   1 H :    0.171888
   2 H :    0.195131
   3 O :   -0.276952
   4 H :    0.170827
   5 H :    0.153823
   6 O :   -0.347875
   7 H :    0.149059
   8 H :    0.156843
   9 O :   -0.324367
  10 H :    0.169602
  11 H :    0.150242
  12 O :   -0.341708
  13 H :    0.151285
  14 H :    0.158676
  15 O :   -0.344447
  16 H :    0.154540
  17 H :    0.141310

-------------------------------
LOEWDIN REDUCED ORBITAL CHARGES
-------------------------------
  0 O s       :     3.459097  s :     3.459097
      pz      :     1.673147  p :     4.765670
      px      :     1.727999
      py      :     1.364523
      dz2     :     0.011049  d :     0.058288
      dxz     :     0.010977
      dyz     :     0.011851
      dx2y2   :     0.009585
      dxy     :     0.014826
      f0      :     0.000478  f :     0.004823
      f+1     :     0.000654
      f-1     :     0.000860
      f+2     :     0.000409
      f-2     :     0.001001
      f+3     :     0.000945
      f-3     :     0.000477
  1 H s       :     0.661453  s :     0.661453
      pz      :     0.067959  p :     0.166659
      px      :     0.053925
      py      :     0.044775
  2 H s       :     0.652742  s :     0.652742
      pz      :     0.034757  p :     0.152127
      px      :     0.045009
      py      :     0.072361
  3 O s       :     3.449351  s :     3.449351
      pz      :     1.509657  p :     4.763276
      px      :     1.544854
      py      :     1.708765
      dz2     :     0.021448  d :     0.059397
      dxz     :     0.007273
      dyz     :     0.007446
      dx2y2   :     0.009208
      dxy     :     0.014023
      f0      :     0.000885  f :     0.004927
      f+1     :     0.001004
      f-1     :     0.000733
      f+2     :     0.000391
      f-2     :     0.000426
      f+3     :     0.000410
      f-3     :     0.001078
  4 H s       :     0.666663  s :     0.666663
      pz      :     0.081544  p :     0.162510
      px      :     0.037622
      py      :     0.043344
  5 H s       :     0.669263  s :     0.669263
      pz      :     0.030797  p :     0.176914
      px      :     0.086927
      py      :     0.059189
  6 O s       :     3.470120  s :     3.470120
      pz      :     1.564571  p :     4.814440
      px      :     1.816806
      py      :     1.433063
      dz2     :     0.019558  d :     0.058459
      dxz     :     0.007155
      dyz     :     0.008975
      dx2y2   :     0.010099
      dxy     :     0.012672
      f0      :     0.000749  f :     0.004856
      f+1     :     0.000587
      f-1     :     0.001167
      f+2     :     0.000416
      f-2     :     0.000410
      f+3     :     0.001076
      f-3     :     0.000451
  7 H s       :     0.675401  s :     0.675401
      pz      :     0.095136  p :     0.175540
      px      :     0.044177
      py      :     0.036227
  8 H s       :     0.685919  s :     0.685919
      pz      :     0.032517  p :     0.157238
      px      :     0.051392
      py      :     0.073329
  9 O s       :     3.462920  s :     3.462920
      pz      :     1.539442  p :     4.797861
      px      :     1.818414
      py      :     1.440004
      dz2     :     0.020102  d :     0.058736
      dxz     :     0.007283
      dyz     :     0.009102
      dx2y2   :     0.009777
      dxy     :     0.012472
      f0      :     0.000781  f :     0.004850
      f+1     :     0.000584
      f-1     :     0.001156
      f+2     :     0.000416
      f-2     :     0.000411
      f+3     :     0.001054
      f-3     :     0.000448
 10 H s       :     0.672895  s :     0.672895
      pz      :     0.031816  p :     0.157503
      px      :     0.050906
      py      :     0.074780
 11 H s       :     0.675533  s :     0.675533
      pz      :     0.093295  p :     0.174225
      px      :     0.044624
      py      :     0.036306
 12 O s       :     3.465714  s :     3.465714
      pz      :     1.527836  p :     4.812356
      px      :     1.774126
      py      :     1.510395
      dz2     :     0.020506  d :     0.058718
      dxz     :     0.007789
      dyz     :     0.007065
      dx2y2   :     0.007771
      dxy     :     0.015587
      f0      :     0.000860  f :     0.004920
      f+1     :     0.000716
      f-1     :     0.000996
      f+2     :     0.000390
      f-2     :     0.000416
      f+3     :     0.001167
      f-3     :     0.000375
 13 H s       :     0.675298  s :     0.675298
      pz      :     0.093237  p :     0.173417
      px      :     0.043578
      py      :     0.036602
 14 H s       :     0.680424  s :     0.680424
      pz      :     0.032564  p :     0.160900
      px      :     0.056594
      py      :     0.071741
 15 O s       :     3.459492  s :     3.459492
      pz      :     1.662193  p :     4.822843
      px      :     1.769514
      py      :     1.391135
      dz2     :     0.010474  d :     0.057309
      dxz     :     0.011322
      dyz     :     0.012126
      dx2y2   :     0.008942
      dxy     :     0.014444
      f0      :     0.000472  f :     0.004804
      f+1     :     0.000646
      f-1     :     0.000856
      f+2     :     0.000412
      f-2     :     0.001028
      f+3     :     0.000913
      f-3     :     0.000477
 16 H s       :     0.677256  s :     0.677256
      pz      :     0.067189  p :     0.168204
      px      :     0.054715
      py      :     0.046300
 17 H s       :     0.659680  s :     0.659680
      pz      :     0.035028  p :     0.199010
      px      :     0.049281
      py      :     0.114701


                      *****************************
                      * MAYER POPULATION ANALYSIS *
                      *****************************

  NA   - Mulliken gross atomic population
  ZA   - Total nuclear charge
  QA   - Mulliken gross atomic charge
  VA   - Mayer's total valence
  BVA  - Mayer's bonded valence
  FA   - Mayer's free valence

  ATOM       NA         ZA         QA         VA         BVA        FA
  0 O      8.7243     8.0000    -0.7243     2.1008     1.7147     0.3861
  1 H      0.6279     1.0000     0.3721     0.8812     0.8373     0.0439
  2 H      0.6213     1.0000     0.3787     0.8783     0.8320     0.0463
  3 O      8.6963     8.0000    -0.6963     2.0968     1.7147     0.3822
  4 H      0.6442     1.0000     0.3558     0.8951     0.8488     0.0463
  5 H      0.6231     1.0000     0.3769     0.8985     0.8552     0.0434
  6 O      8.6970     8.0000    -0.6970     2.0736     1.6888     0.3848
  7 H      0.6315     1.0000     0.3685     0.9092     0.8654     0.0438
  8 H      0.6862     1.0000     0.3138     0.9283     0.8774     0.0509
  9 O      8.7117     8.0000    -0.7117     2.0862     1.6999     0.3863
 10 H      0.6612     1.0000     0.3388     0.9136     0.8647     0.0489
 11 H      0.6300     1.0000     0.3700     0.9001     0.8563     0.0438
 12 O      8.6963     8.0000    -0.6963     2.0738     1.6920     0.3818
 13 H      0.6319     1.0000     0.3681     0.9011     0.8572     0.0440
 14 H      0.6790     1.0000     0.3210     0.9160     0.8668     0.0492
 15 O      8.7427     8.0000    -0.7427     2.0269     1.6384     0.3885
 16 H      0.6607     1.0000     0.3393     0.9054     0.8584     0.0470
 17 H      0.6347     1.0000     0.3653     0.9206     0.8749     0.0458

  Mayer bond orders larger than 0.100000
B(  0-O ,  1-H ) :   0.8274 B(  0-O ,  2-H ) :   0.8137 B(  3-O ,  4-H ) :   0.8372 
B(  3-O ,  5-H ) :   0.8027 B(  6-O ,  7-H ) :   0.8116 B(  6-O ,  8-H ) :   0.8608 
B(  9-O , 10-H ) :   0.8404 B(  9-O , 11-H ) :   0.8151 B( 12-O , 13-H ) :   0.8218 
B( 12-O , 14-H ) :   0.8622 B( 15-O , 16-H ) :   0.8491 B( 15-O , 17-H ) :   0.7615 



----------------------------------
MP2 DERIVATIVE INTEGRAL GENERATION
----------------------------------


Input Wavefunction Amplitudes       ... 12h2o.su.etal.mol2,3,4,5,9,10-orca.engrad-mp2.def2tzvp.frozencore.mp2tsaa.tmp
Input Correlated Electron Density   ... 12h2o.su.etal.mol2,3,4,5,9,10-orca.engrad-mp2.def2tzvp.frozencore.pmp2re
Input Energy Weighted Density       ... 12h2o.su.etal.mol2,3,4,5,9,10-orca.engrad-mp2.def2tzvp.frozencore.wmp2.tmp
Input SCF Electron Density          ... 12h2o.su.etal.mol2,3,4,5,9,10-orca.engrad-mp2.def2tzvp.frozencore.scfp

One-Electron Terms    ...
                        ... One-Electron Terms done
Prescreening matrices              ... done

Batch handling in the gradient evaluation:
Memory available                      ... 8000.0 MB
Memory per occupied orbital in Q2     ...   12.2 MB
Memory per occupied orbital in Q3     ...    0.1 MB
Total memory requirement per |i>      ...   12.3 MB
Max. Number of orbitals possible      ...    651
Number of orbitals treated per batch  ...     24
Number of batches to be done          ...      1
Batch   0: i=    6 ...    29

---------------------------------------
MP2 TOTAL ENERGY:     -457.917995501 Eh
---------------------------------------

The final MP2 gradient
  0:  -0.00677881  -0.02635576   0.00135620
  1:  -0.00258582   0.00034026   0.00316929
  2:   0.00810539   0.02439099   0.00004304
  3:   0.00034330   0.00437865  -0.00908615
  4:  -0.00034741   0.00164980   0.00755218
  5:   0.00217454   0.00123410  -0.00101760
  6:   0.00810316   0.01742763  -0.00034386
  7:  -0.00305220   0.00386938   0.00025068
  8:  -0.00824539  -0.01917707  -0.00237174
  9:  -0.00953453  -0.01566088   0.00485535
 10:   0.00934669   0.01518580  -0.00127772
 11:   0.00161337  -0.00199132  -0.00446977
 12:  -0.00879433  -0.00801904   0.00070746
 13:   0.00344609  -0.00184860  -0.00321693
 14:   0.00676172   0.01016682   0.00038758
 15:   0.00267590   0.00708979   0.00041828
 16:   0.00049550   0.00085834   0.00062622
 17:  -0.00372719  -0.01353890   0.00241750

-----------------------------------
NORM OF THE MP2 GRADIENT:  0.060902
-----------------------------------

-------------------------   --------------------
FINAL SINGLE POINT ENERGY      -457.917995501463
-------------------------   --------------------


                            ***************************************
                            *     ORCA property calculations      *
                            ***************************************

                                    ---------------------
                                    Active property flags
                                    ---------------------
   (+) Dipole Moment


------------------------------------------------------------------------------
                       ORCA ELECTRIC PROPERTIES CALCULATION
------------------------------------------------------------------------------

Dipole Moment Calculation                       ... on
Quadrupole Moment Calculation                   ... off
Polarizability Calculation                      ... off
GBWName                                         ... 12h2o.su.etal.mol2,3,4,5,9,10-orca.engrad-mp2.def2tzvp.frozencore.gbw
Electron density file                           ... 12h2o.su.etal.mol2,3,4,5,9,10-orca.engrad-mp2.def2tzvp.frozencore.scfp
The origin for moment calculation is the CENTER OF MASS  = (-0.296684, -0.787733 -1.770165)

-------------
DIPOLE MOMENT
-------------
                                X             Y             Z
Electronic contribution:     -0.06273      -0.35664      -0.15272
Nuclear contribution   :      1.02062      -0.11069      -2.81375
                        -----------------------------------------
Total Dipole Moment    :      0.95789      -0.46732      -2.96646
                        -----------------------------------------
Magnitude (a.u.)       :      3.15212
Magnitude (Debye)      :      8.01205



--------------------
Rotational spectrum 
--------------------
 
Rotational constants in cm-1:     0.053912     0.027248     0.020186 
Rotational constants in MHz :  1616.249370   816.862896   605.161700 

 Dipole components along the rotational axes: 
x,y,z [a.u.] :    -2.050943    -2.155415    -1.040999 
x,y,z [Debye]:    -5.213082    -5.478630    -2.646010 

 

                         *** MP2 UNRELAXED DENSITY ***

------------------------------------------------------------------------------
                       ORCA ELECTRIC PROPERTIES CALCULATION
------------------------------------------------------------------------------

Dipole Moment Calculation                       ... on
Quadrupole Moment Calculation                   ... off
Polarizability Calculation                      ... off
GBWName                                         ... 12h2o.su.etal.mol2,3,4,5,9,10-orca.engrad-mp2.def2tzvp.frozencore.gbw
Electron density file                           ... 12h2o.su.etal.mol2,3,4,5,9,10-orca.engrad-mp2.def2tzvp.frozencore.pmp2ur
The origin for moment calculation is the CENTER OF MASS  = (-0.296684, -0.787733 -1.770165)

-------------
DIPOLE MOMENT
-------------
                                X             Y             Z
Electronic contribution:     -0.07266      -0.36000      -0.12950
Nuclear contribution   :      1.02062      -0.11069      -2.81375
                        -----------------------------------------
Total Dipole Moment    :      0.94796      -0.47068      -2.94324
                        -----------------------------------------
Magnitude (a.u.)       :      3.12776
Magnitude (Debye)      :      7.95012



--------------------
Rotational spectrum 
--------------------
 
Rotational constants in cm-1:     0.053912     0.027248     0.020186 
Rotational constants in MHz :  1616.249370   816.862896   605.161700 

 Dipole components along the rotational axes: 
x,y,z [a.u.] :    -2.032928    -2.143394    -1.027578 
x,y,z [Debye]:    -5.167292    -5.448076    -2.611897 

 

                           *** MP2 RELAXED DENSITY ***

------------------------------------------------------------------------------
                       ORCA ELECTRIC PROPERTIES CALCULATION
------------------------------------------------------------------------------

Dipole Moment Calculation                       ... on
Quadrupole Moment Calculation                   ... off
Polarizability Calculation                      ... off
GBWName                                         ... 12h2o.su.etal.mol2,3,4,5,9,10-orca.engrad-mp2.def2tzvp.frozencore.gbw
Electron density file                           ... 12h2o.su.etal.mol2,3,4,5,9,10-orca.engrad-mp2.def2tzvp.frozencore.pmp2re
The origin for moment calculation is the CENTER OF MASS  = (-0.296684, -0.787733 -1.770165)

-------------
DIPOLE MOMENT
-------------
                                X             Y             Z
Electronic contribution:     -0.08261      -0.37027      -0.11047
Nuclear contribution   :      1.02062      -0.11069      -2.81375
                        -----------------------------------------
Total Dipole Moment    :      0.93801      -0.48096      -2.92421
                        -----------------------------------------
Magnitude (a.u.)       :      3.10841
Magnitude (Debye)      :      7.90094



--------------------
Rotational spectrum 
--------------------
 
Rotational constants in cm-1:     0.053912     0.027248     0.020186 
Rotational constants in MHz :  1616.249370   816.862896   605.161700 

 Dipole components along the rotational axes: 
x,y,z [a.u.] :    -2.015805    -2.139002    -1.011632 
x,y,z [Debye]:    -5.123768    -5.436912    -2.571363 

 

Timings for individual modules:

Sum of individual times         ...       60.931 sec (=   1.016 min)
GTO integral calculation        ...        0.931 sec (=   0.016 min)   1.5 %
SCF iterations                  ...       11.762 sec (=   0.196 min)  19.3 %
MP2 module                      ...       48.237 sec (=   0.804 min)  79.2 %
                             ****ORCA TERMINATED NORMALLY****
TOTAL RUN TIME: 0 days 0 hours 1 minutes 1 seconds 935 msec
