
                                 *****************
                                 * O   R   C   A *
                                 *****************

           --- An Ab Initio, DFT and Semiempirical electronic structure package ---

                  #######################################################
                  #                        -***-                        #
                  #          Department of theory and spectroscopy      #
                  #               Directorship: Frank Neese             #
                  #        Max Planck Institute fuer Kohlenforschung    #
                  #                Kaiser Wilhelm Platz 1               #
                  #                 D-45470 Muelheim/Ruhr               #
                  #                      Germany                        #
                  #                                                     #
                  #                  All rights reserved                #
                  #                        -***-                        #
                  #######################################################


                         Program Version 4.2.0 -  RELEASE  -


 With contributions from (in alphabetic order):
   Daniel Aravena         : Magnetic Suceptibility
   Michael Atanasov       : Ab Initio Ligand Field Theory (pilot matlab implementation)
   Alexander A. Auer      : GIAO ZORA, VPT2
   Ute Becker             : Parallelization
   Giovanni Bistoni       : ED, misc. LED, open-shell LED, HFLED
   Martin Brehm           : Molecular dynamics
   Dmytro Bykov           : SCF Hessian
   Vijay G. Chilkuri      : MRCI spin determinant printing, contributions to CSF-ICE
   Dipayan Datta          : RHF DLPNO-CCSD density
   Achintya Kumar Dutta   : EOM-CC, STEOM-CC
   Dmitry Ganyushin       : Spin-Orbit,Spin-Spin,Magnetic field MRCI
   Miquel Garcia          : C-PCM Hessian, Gaussian charge scheme
   Yang Guo               : DLPNO-NEVPT2, CIM, IAO-localization
   Andreas Hansen         : Spin unrestricted coupled pair/coupled cluster methods
   Benjamin Helmich-Paris : CASSCF linear response (MC-RPA)
   Lee Huntington         : MR-EOM, pCC
   Robert Izsak           : Overlap fitted RIJCOSX, COSX-SCS-MP3, EOM
   Christian Kollmar      : KDIIS, OOCD, Brueckner-CCSD(T), CCSD density
   Simone Kossmann        : Meta GGA functionals, TD-DFT gradient, OOMP2, MP2 Hessian
   Martin Krupicka        : AUTO-CI
   Lucas Lang             : DCDCAS
   Dagmar Lenk            : GEPOL surface, SMD
   Dimitrios Liakos       : Extrapolation schemes; Compound Job, initial MDCI parallelization
   Dimitrios Manganas     : Further ROCIS development; embedding schemes
   Dimitrios Pantazis     : SARC Basis sets
   Taras Petrenko         : DFT Hessian,TD-DFT gradient, ASA, ECA, R-Raman, ABS, FL, XAS/XES, NRVS
   Peter Pinski           : DLPNO-MP2, DLPNO-MP2 Gradient
   Christoph Reimann      : Effective Core Potentials
   Marius Retegan         : Local ZFS, SOC
   Christoph Riplinger    : Optimizer, TS searches, QM/MM, DLPNO-CCSD(T), (RO)-DLPNO pert. Triples
   Tobias Risthaus        : Range-separated hybrids, TD-DFT gradient, RPA, STAB
   Michael Roemelt        : Original ROCIS implementation
   Masaaki Saitow         : Open-shell DLPNO-CCSD energy and density
   Barbara Sandhoefer     : DKH picture change effects
   Avijit Sen             : IP-ROCIS
   Kantharuban Sivalingam : CASSCF convergence, NEVPT2, FIC-MRCI
   Bernardo de Souza      : ESD, SOC TD-DFT
   Georgi Stoychev        : AutoAux, RI-MP2 NMR
   Willem Van den Heuvel  : Paramagnetic NMR
   Boris Wezisla          : Elementary symmetry handling
   Frank Wennmohs         : Technical directorship


 We gratefully acknowledge several colleagues who have allowed us to
 interface, adapt or use parts of their codes:
   Stefan Grimme, W. Hujo, H. Kruse,             : VdW corrections, initial TS optimization,
                  C. Bannwarth                     DFT functionals, gCP, sTDA/sTD-DF
   Ed Valeev, F. Pavosevic, A. Kumar             : LibInt (2-el integral package), F12 methods
   Garnet Chan, S. Sharma, J. Yang, R. Olivares  : DMRG
   Ulf Ekstrom                                   : XCFun DFT Library
   Mihaly Kallay                                 : mrcc  (arbitrary order and MRCC methods)
   Andreas Klamt, Michael Diedenhofen            : otool_cosmo (COSMO solvation model)
   Jiri Pittner, Ondrej Demel                    : Mk-CCSD
   Frank Weinhold                                : gennbo (NPA and NBO analysis)
   Christopher J. Cramer and Donald G. Truhlar   : smd solvation model
   Lars Goerigk                                  : TD-DFT with DH, B97 family of functionals
   V. Asgeirsson, H. Jonsson                     : NEB implementation
   FAccTs GmbH                                   : IRC, NEB, NEB-TS, Multilevel, MM, QM/MM, CI optimization
   S Lehtola, MJT Oliveira, MAL Marques          : LibXC Library


 Your calculation uses the libint2 library for the computation of 2-el integrals
 For citations please refer to: http://libint.valeyev.net

 Your ORCA version has been built with support for libXC version: 4.2.3
 For citations please refer to: https://tddft.org/programs/libxc/

 This ORCA versions uses:
   CBLAS   interface :  Fast vector & matrix operations
   LAPACKE interface :  Fast linear algebra routines
   SCALAPACK package :  Parallel linear algebra routines


----- Orbital basis set information -----
Your calculation utilizes the basis: def2-TZVP
   F. Weigend and R. Ahlrichs, Phys. Chem. Chem. Phys. 7, 3297 (2005).

================================================================================
                                        WARNINGS
                       Please study these warnings very carefully!
================================================================================


WARNING: The frozen-core approximation for MP2-gradient calculations is turned on by default.

INFO   : the flag for use of LIBINT has been found!

================================================================================
                                       INPUT FILE
================================================================================
NAME = 12meoh.boyd.etal.mol8,9,11-orca.engrad-mp2.def2tzvp.frozencore.inp
|  1> # 12meoh.boyd.etal.mol8,9,11
|  2> ! MP2 def2-TZVP EnGrad TightSCF
|  3> 
|  4> %pal
|  5>     nprocs 6
|  6> end
|  7> 
|  8> %maxcore 8000
|  9> 
| 10> %scf
| 11>     ConvForced true
| 12> end
| 13> 
| 14> *xyz 0 1
| 15> O   3.570084754   2.361662577  -0.202416728
| 16> H   3.393280933   1.755669977   0.560634073
| 17> C   4.368082883   1.644741793  -1.143112807
| 18> H   4.552851717   2.311801738  -1.989632421
| 19> H   3.862427494   0.740851663  -1.508095690
| 20> H   5.333949674   1.357289092  -0.706288100
| 21> O   1.390610024   3.194080770  -1.536658882
| 22> H   2.162932299   2.881562730  -0.993525056
| 23> C   1.202977189   4.580367182  -1.302880219
| 24> H   0.374773115   4.915764831  -1.934164643
| 25> H   2.098649340   5.157710875  -1.570472348
| 26> H   0.950320401   4.800436015  -0.254328827
| 27> O   3.252955559   0.588596242   1.858934315
| 28> H   3.621209177  -0.251605199   1.476063364
| 29> C   4.040824528   0.944288422   2.989639460
| 30> H   3.670521436   1.902573549   3.363847391
| 31> H   5.103749934   1.055868619   2.734277559
| 32> H   3.948540682   0.200279590   3.792908518
| 33> *
| 34> 
| 35>                          ****END OF INPUT****
================================================================================

                     *******************************
                     * Energy+Gradient Calculation *
                     *******************************

---------------------------------
CARTESIAN COORDINATES (ANGSTROEM)
---------------------------------
  O      3.570085    2.361663   -0.202417
  H      3.393281    1.755670    0.560634
  C      4.368083    1.644742   -1.143113
  H      4.552852    2.311802   -1.989632
  H      3.862427    0.740852   -1.508096
  H      5.333950    1.357289   -0.706288
  O      1.390610    3.194081   -1.536659
  H      2.162932    2.881563   -0.993525
  C      1.202977    4.580367   -1.302880
  H      0.374773    4.915765   -1.934165
  H      2.098649    5.157711   -1.570472
  H      0.950320    4.800436   -0.254329
  O      3.252956    0.588596    1.858934
  H      3.621209   -0.251605    1.476063
  C      4.040825    0.944288    2.989639
  H      3.670521    1.902574    3.363847
  H      5.103750    1.055869    2.734278
  H      3.948541    0.200280    3.792909

----------------------------
CARTESIAN COORDINATES (A.U.)
----------------------------
  NO LB      ZA    FRAG     MASS         X           Y           Z
   0 O     8.0000    0    15.999    6.746482    4.462895   -0.382512
   1 H     1.0000    0     1.008    6.412372    3.317735    1.059445
   2 C     6.0000    0    12.011    8.254480    3.108112   -2.160170
   3 H     1.0000    0     1.008    8.603643    4.368672   -3.759860
   4 H     1.0000    0     1.008    7.298930    1.400007   -2.849888
   5 H     1.0000    0     1.008   10.079704    2.564905   -1.334691
   6 O     8.0000    0    15.999    2.627872    6.035938   -2.903864
   7 H     1.0000    0     1.008    4.087350    5.445364   -1.877490
   8 C     6.0000    0    12.011    2.273297    8.655640   -2.462087
   9 H     1.0000    0     1.008    0.708219    9.289449   -3.655041
  10 H     1.0000    0     1.008    3.965873    9.746661   -2.967763
  11 H     1.0000    0     1.008    1.795845    9.071509   -0.480612
  12 O     8.0000    0    15.999    6.147195    1.112286    3.512877
  13 H     1.0000    0     1.008    6.843094   -0.475465    2.789356
  14 C     6.0000    0    12.011    7.636052    1.784447    5.649600
  15 H     1.0000    0     1.008    6.936280    3.595343    6.356750
  16 H     1.0000    0     1.008    9.644690    1.995303    5.167036
  17 H     1.0000    0     1.008    7.461661    0.378474    7.167558

--------------------------------
INTERNAL COORDINATES (ANGSTROEM)
--------------------------------
 O      0   0   0     0.000000000000     0.00000000     0.00000000
 H      1   0   0     0.990319719728     0.00000000     0.00000000
 C      1   2   0     1.426774522293   107.48100282     0.00000000
 H      3   1   2     1.093482486887   107.36091639   179.38822779
 H      3   1   2     1.098142633914   112.03586382    59.96828819
 H      3   1   2     1.098336714270   111.16969712   298.03659839
 O      1   2   3     2.687607164795   115.29387540   118.40407757
 H      7   1   2     0.994556974101     3.47115143    28.85409799
 C      7   1   2     1.418325971045   109.15839962   111.08551620
 H      9   7   1     1.094044603812   107.73887728   174.33231341
 H      9   7   1     1.098708282224   111.44548874    55.54654048
 H      9   7   1     1.100784159336   112.50562595   293.67747841
 O      2   1   3     1.751381121256   173.33830473    25.78302120
 H     13   2   1     0.994051987447   104.36127360   325.00275680
 C     13   2   1     1.423287941407   112.21158428    81.91265628
 H     15  13   2     1.093373833690   107.66487715    61.72253034
 H     15  13   2     1.098849516342   112.09953284   302.40315906
 H     15  13   2     1.098775058812   111.41155745   180.39270116

---------------------------
INTERNAL COORDINATES (A.U.)
---------------------------
 O      0   0   0     0.000000000000     0.00000000     0.00000000
 H      1   0   0     1.871433055307     0.00000000     0.00000000
 C      1   2   0     2.696213101990   107.48100282     0.00000000
 H      3   1   2     2.066382432455   107.36091639   179.38822779
 H      3   1   2     2.075188834080   112.03586382    59.96828819
 H      3   1   2     2.075555592802   111.16969712   298.03659839
 O      1   2   3     5.078841497027   115.29387540   118.40407757
 H      7   1   2     1.879440305631     3.47115143    28.85409799
 C      7   1   2     2.680247653903   109.15839962   111.08551620
 H      9   7   1     2.067444679499   107.73887728   174.33231341
 H      9   7   1     2.076257754474   111.44548874    55.54654048
 H      9   7   1     2.080180593704   112.50562595   293.67747841
 O      2   1   3     3.309630675294   173.33830473    25.78302120
 H     13   2   1     1.878486019156   104.36127360   325.00275680
 C     13   2   1     2.689624418973   112.21158428    81.91265628
 H     15  13   2     2.066177107669   107.66487715    61.72253034
 H     15  13   2     2.076524648278   112.09953284   302.40315906
 H     15  13   2     2.076383943937   111.41155745   180.39270116

---------------------
BASIS SET INFORMATION
---------------------
There are 3 groups of distinct atoms

 Group   1 Type O   : 11s6p2d1f contracted to 5s3p2d1f pattern {62111/411/11/1}
 Group   2 Type H   : 5s1p contracted to 3s1p pattern {311/1}
 Group   3 Type C   : 11s6p2d1f contracted to 5s3p2d1f pattern {62111/411/11/1}

Atom   0O    basis set group =>   1
Atom   1H    basis set group =>   2
Atom   2C    basis set group =>   3
Atom   3H    basis set group =>   2
Atom   4H    basis set group =>   2
Atom   5H    basis set group =>   2
Atom   6O    basis set group =>   1
Atom   7H    basis set group =>   2
Atom   8C    basis set group =>   3
Atom   9H    basis set group =>   2
Atom  10H    basis set group =>   2
Atom  11H    basis set group =>   2
Atom  12O    basis set group =>   1
Atom  13H    basis set group =>   2
Atom  14C    basis set group =>   3
Atom  15H    basis set group =>   2
Atom  16H    basis set group =>   2
Atom  17H    basis set group =>   2


           ************************************************************
           *        Program running with 6 parallel MPI-processes     *
           *              working on a common directory               *
           ************************************************************
------------------------------------------------------------------------------
                           ORCA GTO INTEGRAL CALCULATION
------------------------------------------------------------------------------

                         BASIS SET STATISTICS AND STARTUP INFO

 # of primitive gaussian shells          ...  192
 # of primitive gaussian functions       ...  372
 # of contracted shells                  ...  114
 # of contracted basis functions         ...  258
 Highest angular momentum                ...    3
 Maximum contraction depth               ...    6
 Integral package used                   ... LIBINT
 Integral threshhold            Thresh   ...  2.500e-11
 Primitive cut-off              TCut     ...  2.500e-12


------------------------------ INTEGRAL EVALUATION ----------------------------


 * One electron integrals 
 Pre-screening matrix                    ... done
 Shell pair data                         ... done (   0.001 sec)



           ************************************************************
           *        Program running with 6 parallel MPI-processes     *
           *              working on a common directory               *
           ************************************************************
-------------------------------------------------------------------------------
                                 ORCA SCF
-------------------------------------------------------------------------------

------------
SCF SETTINGS
------------
Hamiltonian:
 Ab initio Hamiltonian  Method          .... Hartree-Fock(GTOs)


General Settings:
 Integral files         IntName         .... 12meoh.boyd.etal.mol8,9,11-orca.engrad-mp2.def2tzvp.frozencore
 Hartree-Fock type      HFTyp           .... RHF
 Total Charge           Charge          ....    0
 Multiplicity           Mult            ....    1
 Number of Electrons    NEL             ....   54
 Basis Dimension        Dim             ....  258
 Nuclear Repulsion      ENuc            ....    252.7466260146 Eh

Convergence Acceleration:
 DIIS                   CNVDIIS         .... on
   Start iteration      DIISMaxIt       ....    12
   Startup error        DIISStart       ....  0.200000
   # of expansion vecs  DIISMaxEq       ....     5
   Bias factor          DIISBfac        ....   1.050
   Max. coefficient     DIISMaxC        ....  10.000
 Newton-Raphson         CNVNR           .... off
 SOSCF                  CNVSOSCF        .... on
   Start iteration      SOSCFMaxIt      ....   150
   Startup grad/error   SOSCFStart      ....  0.003300
 Level Shifting         CNVShift        .... on
   Level shift para.    LevelShift      ....    0.2500
   Turn off err/grad.   ShiftErr        ....    0.0010
 Zerner damping         CNVZerner       .... off
 Static damping         CNVDamp         .... on
   Fraction old density DampFac         ....    0.7000
   Max. Damping (<1)    DampMax         ....    0.9800
   Min. Damping (>=0)   DampMin         ....    0.0000
   Turn off err/grad.   DampErr         ....    0.1000
 Fernandez-Rico         CNVRico         .... off

SCF Procedure:
 Maximum # iterations   MaxIter         ....   125
 SCF integral mode      SCFMode         .... Direct
   Integral package                     .... LIBINT
 Reset frequency        DirectResetFreq ....    20
 Integral Threshold     Thresh          ....  2.500e-11 Eh
 Primitive CutOff       TCut            ....  2.500e-12 Eh

Convergence Tolerance:
 Convergence Check Mode ConvCheckMode   .... Total+1el-Energy
 Convergence forced     ConvForced      .... 1
 Energy Change          TolE            ....  1.000e-08 Eh
 1-El. energy change                    ....  1.000e-05 Eh
 Orbital Gradient       TolG            ....  1.000e-05
 Orbital Rotation angle TolX            ....  1.000e-05
 DIIS Error             TolErr          ....  5.000e-07


Diagonalization of the overlap matrix:
Smallest eigenvalue                        ... 1.446e-03
Time for diagonalization                   ...    0.010 sec
Threshold for overlap eigenvalues          ... 1.000e-08
Number of eigenvalues below threshold      ... 0
Time for construction of square roots      ...    0.005 sec
Total time needed                          ...    0.016 sec

-------------------
DFT GRID GENERATION
-------------------

General Integration Accuracy     IntAcc      ...  4.340
Radial Grid Type                 RadialGrid  ... Gauss-Chebyshev
Angular Grid (max. acc.)         AngularGrid ... Lebedev-110
Angular grid pruning method      GridPruning ... 3 (G Style)
Weight generation scheme         WeightScheme... Becke
Basis function cutoff            BFCut       ...    1.0000e-11
Integration weight cutoff        WCut        ...    1.0000e-14
Grids for H and He will be reduced by one unit

# of grid points (after initial pruning)     ...  19644 (   0.0 sec)
# of grid points (after weights+screening)   ...  18445 (   0.0 sec)
nearest neighbour list constructed           ...    0.0 sec
Grid point re-assignment to atoms done       ...    0.0 sec
Grid point division into batches done        ...    0.0 sec
Reduced shell lists constructed in    0.0 sec

Total number of grid points                  ...    18445
Total number of batches                      ...      296
Average number of points per batch           ...       62
Average number of grid points per atom       ...     1025
Average number of shells per batch           ...    80.86 (70.93%)
Average number of basis functions per batch  ...   184.04 (71.33%)
Average number of large shells per batch     ...    62.43 (77.21%)
Average number of large basis fcns per batch ...   138.12 (75.05%)
Maximum spatial batch extension              ...  13.86, 12.00, 15.50 au
Average spatial batch extension              ...   0.44,  0.43,  0.42 au

Time for grid setup =    0.058 sec

------------------------------
INITIAL GUESS: MODEL POTENTIAL
------------------------------
Loading Hartree-Fock densities                     ... done
Calculating cut-offs                               ... done
Setting up the integral package                    ... done
Initializing the effective Hamiltonian             ... done
Starting the Coulomb interaction                   ... done (   0.0 sec)
Reading the grid                                   ... done
Mapping shells                                     ... done
Starting the XC term evaluation                    ... done (   0.0 sec)
Transforming the Hamiltonian                       ... done (   0.0 sec)
Diagonalizing the Hamiltonian                      ... done (   0.0 sec)
Back transforming the eigenvectors                 ... done (   0.0 sec)
Now organizing SCF variables                       ... done
                      ------------------
                      INITIAL GUESS DONE (   0.2 sec)
                      ------------------
--------------
SCF ITERATIONS
--------------
ITER       Energy         Delta-E        Max-DP      RMS-DP      [F,P]     Damp
               ***  Starting incremental Fock matrix formation  ***
  0   -344.9464608274   0.000000000000 0.03731205  0.00075833  0.2921482 0.7000
  1   -345.0653792008  -0.118918373345 0.02507704  0.00057020  0.2186701 0.7000
                               ***Turning on DIIS***
  2   -345.1354043843  -0.070025183537 0.01426939  0.00035926  0.1625165 0.7000
  3   -345.9947650679  -0.859360683621 0.00784427  0.00020691  0.1199534 0.7000
  4   -345.8514685767   0.143296491211 0.01688500  0.00049831  0.0845551 0.0000
  5   -345.3056673236   0.545801253082 0.00189461  0.00006705  0.0058455 0.0000
                      *** Initiating the SOSCF procedure ***
                           *** Shutting down DIIS ***
                      *** Re-Reading the Fockian *** 
                      *** Removing any level shift *** 
ITER      Energy       Delta-E        Grad      Rot      Max-DP    RMS-DP
  6   -345.28519204   0.0204752854  0.000564  0.000564  0.001097  0.000035
               *** Restarting incremental Fock matrix formation ***
  7   -345.27967033   0.0055217105  0.000302  0.000385  0.000650  0.000019
  8   -345.27967760  -0.0000072686  0.000122  0.000280  0.000479  0.000014
  9   -345.27967937  -0.0000017696  0.000031  0.000036  0.000070  0.000002
 10   -345.27967944  -0.0000000721  0.000005  0.000009  0.000021  0.000001
                  ***Gradient check signals convergence***
              ***Rediagonalizing the Fockian in SOSCF/NRSCF***

               *****************************************************
               *                     SUCCESS                       *
               *           SCF CONVERGED AFTER  11 CYCLES          *
               *****************************************************


----------------
TOTAL SCF ENERGY
----------------

Total Energy       :         -345.27967944 Eh           -9395.53774 eV

Components:
Nuclear Repulsion  :          252.74662601 Eh            6877.58534 eV
Electronic Energy  :         -598.02630546 Eh          -16273.12308 eV
One Electron Energy:         -974.45273009 Eh          -26516.20684 eV
Two Electron Energy:          376.42642463 Eh           10243.08376 eV

Virial components:
Potential Energy   :         -690.01399396 Eh          -18776.23534 eV
Kinetic Energy     :          344.73431452 Eh            9380.69760 eV
Virial Ratio       :            2.00158199


---------------
SCF CONVERGENCE
---------------

  Last Energy change         ...   -6.0808e-09  Tolerance :   1.0000e-08
  Last MAX-Density change    ...    8.5770e-06  Tolerance :   1.0000e-07
  Last RMS-Density change    ...    1.9340e-07  Tolerance :   5.0000e-09
  Last Orbital Gradient      ...    2.4712e-06  Tolerance :   1.0000e-05
  Last Orbital Rotation      ...    4.6212e-06  Tolerance :   1.0000e-05

             **** THE GBW FILE WAS UPDATED (12meoh.boyd.etal.mol8,9,11-orca.engrad-mp2.def2tzvp.frozencore.gbw) ****
             **** DENSITY FILE WAS UPDATED (12meoh.boyd.etal.mol8,9,11-orca.engrad-mp2.def2tzvp.frozencore.scfp) ****
             **** ENERGY FILE WAS UPDATED (12meoh.boyd.etal.mol8,9,11-orca.engrad-mp2.def2tzvp.frozencore.en.tmp) ****
             **** THE GBW FILE WAS UPDATED (12meoh.boyd.etal.mol8,9,11-orca.engrad-mp2.def2tzvp.frozencore.gbw) ****
             **** DENSITY FILE WAS UPDATED (12meoh.boyd.etal.mol8,9,11-orca.engrad-mp2.def2tzvp.frozencore.scfp) ****
----------------
ORBITAL ENERGIES
----------------

  NO   OCC          E(Eh)            E(eV) 
   0   2.0000     -20.599815      -560.5495 
   1   2.0000     -20.552854      -559.2716 
   2   2.0000     -20.501709      -557.8799 
   3   2.0000     -11.297771      -307.4280 
   4   2.0000     -11.274375      -306.7914 
   5   2.0000     -11.238864      -305.8250 
   6   2.0000      -1.392821       -37.9006 
   7   2.0000      -1.352972       -36.8162 
   8   2.0000      -1.299807       -35.3695 
   9   2.0000      -0.950044       -25.8520 
  10   2.0000      -0.924037       -25.1443 
  11   2.0000      -0.885072       -24.0840 
  12   2.0000      -0.723466       -19.6865 
  13   2.0000      -0.705629       -19.2011 
  14   2.0000      -0.658175       -17.9098 
  15   2.0000      -0.644051       -17.5255 
  16   2.0000      -0.623715       -16.9722 
  17   2.0000      -0.613677       -16.6990 
  18   2.0000      -0.588702       -16.0194 
  19   2.0000      -0.579716       -15.7749 
  20   2.0000      -0.551722       -15.0131 
  21   2.0000      -0.537568       -14.6280 
  22   2.0000      -0.511595       -13.9212 
  23   2.0000      -0.481097       -13.0913 
  24   2.0000      -0.467902       -12.7323 
  25   2.0000      -0.437861       -11.9148 
  26   2.0000      -0.404968       -11.0197 
  27   0.0000       0.104331         2.8390 
  28   0.0000       0.151226         4.1151 
  29   0.0000       0.166926         4.5423 
  30   0.0000       0.173103         4.7104 
  31   0.0000       0.200136         5.4460 
  32   0.0000       0.204719         5.5707 
  33   0.0000       0.216700         5.8967 
  34   0.0000       0.225901         6.1471 
  35   0.0000       0.228336         6.2133 
  36   0.0000       0.251672         6.8483 
  37   0.0000       0.253871         6.9082 
  38   0.0000       0.262777         7.1505 
  39   0.0000       0.274353         7.4655 
  40   0.0000       0.311403         8.4737 
  41   0.0000       0.324168         8.8211 
  42   0.0000       0.336031         9.1439 
  43   0.0000       0.342583         9.3221 
  44   0.0000       0.364523         9.9192 
  45   0.0000       0.368055        10.0153 
  46   0.0000       0.388982        10.5847 
  47   0.0000       0.436447        11.8763 
  48   0.0000       0.450822        12.2675 
  49   0.0000       0.462667        12.5898 
  50   0.0000       0.497049        13.5254 
  51   0.0000       0.514658        14.0046 
  52   0.0000       0.543196        14.7811 
  53   0.0000       0.557051        15.1581 
  54   0.0000       0.581936        15.8353 
  55   0.0000       0.590166        16.0592 
  56   0.0000       0.600302        16.3351 
  57   0.0000       0.619689        16.8626 
  58   0.0000       0.631924        17.1955 
  59   0.0000       0.634800        17.2738 
  60   0.0000       0.638002        17.3609 
  61   0.0000       0.653114        17.7721 
  62   0.0000       0.659398        17.9431 
  63   0.0000       0.666174        18.1275 
  64   0.0000       0.671782        18.2801 
  65   0.0000       0.690249        18.7826 
  66   0.0000       0.698019        18.9941 
  67   0.0000       0.706544        19.2261 
  68   0.0000       0.727890        19.8069 
  69   0.0000       0.780501        21.2385 
  70   0.0000       0.792771        21.5724 
  71   0.0000       0.812486        22.1089 
  72   0.0000       0.838353        22.8127 
  73   0.0000       0.861058        23.4306 
  74   0.0000       0.879308        23.9272 
  75   0.0000       0.886227        24.1155 
  76   0.0000       0.915299        24.9066 
  77   0.0000       0.932622        25.3779 
  78   0.0000       0.937400        25.5079 
  79   0.0000       0.975325        26.5399 
  80   0.0000       1.028310        27.9817 
  81   0.0000       1.048635        28.5348 
  82   0.0000       1.073233        29.2042 
  83   0.0000       1.081520        29.4297 
  84   0.0000       1.093567        29.7575 
  85   0.0000       1.115026        30.3414 
  86   0.0000       1.140027        31.0217 
  87   0.0000       1.148999        31.2659 
  88   0.0000       1.190947        32.4073 
  89   0.0000       1.205598        32.8060 
  90   0.0000       1.229725        33.4625 
  91   0.0000       1.256176        34.1823 
  92   0.0000       1.288929        35.0735 
  93   0.0000       1.565171        42.5905 
  94   0.0000       1.579463        42.9794 
  95   0.0000       1.611783        43.8588 
  96   0.0000       1.651783        44.9473 
  97   0.0000       1.684882        45.8480 
  98   0.0000       1.688613        45.9495 
  99   0.0000       1.711422        46.5702 
 100   0.0000       1.724484        46.9256 
 101   0.0000       1.755183        47.7610 
 102   0.0000       1.757579        47.8262 
 103   0.0000       1.769594        48.1531 
 104   0.0000       1.779110        48.4120 
 105   0.0000       1.788669        48.6722 
 106   0.0000       1.801323        49.0165 
 107   0.0000       1.813800        49.3560 
 108   0.0000       1.823190        49.6115 
 109   0.0000       1.827105        49.7181 
 110   0.0000       1.836139        49.9639 
 111   0.0000       1.840611        50.0856 
 112   0.0000       1.851263        50.3754 
 113   0.0000       1.882916        51.2367 
 114   0.0000       1.898875        51.6710 
 115   0.0000       1.954280        53.1787 
 116   0.0000       1.975933        53.7679 
 117   0.0000       1.991207        54.1835 
 118   0.0000       2.069982        56.3271 
 119   0.0000       2.089501        56.8582 
 120   0.0000       2.137174        58.1555 
 121   0.0000       2.163914        58.8831 
 122   0.0000       2.196245        59.7629 
 123   0.0000       2.223921        60.5160 
 124   0.0000       2.237808        60.8938 
 125   0.0000       2.238733        60.9190 
 126   0.0000       2.264455        61.6189 
 127   0.0000       2.272627        61.8413 
 128   0.0000       2.275567        61.9213 
 129   0.0000       2.284587        62.1668 
 130   0.0000       2.300428        62.5978 
 131   0.0000       2.328254        63.3550 
 132   0.0000       2.357282        64.1449 
 133   0.0000       2.374713        64.6192 
 134   0.0000       2.422318        65.9146 
 135   0.0000       2.452942        66.7479 
 136   0.0000       2.478377        67.4401 
 137   0.0000       2.525261        68.7158 
 138   0.0000       2.546027        69.2809 
 139   0.0000       2.567889        69.8758 
 140   0.0000       2.581265        70.2398 
 141   0.0000       2.590453        70.4898 
 142   0.0000       2.608008        70.9675 
 143   0.0000       2.608336        70.9764 
 144   0.0000       2.622271        71.3556 
 145   0.0000       2.628352        71.5211 
 146   0.0000       2.643496        71.9332 
 147   0.0000       2.661865        72.4330 
 148   0.0000       2.676017        72.8181 
 149   0.0000       2.694666        73.3256 
 150   0.0000       2.709485        73.7288 
 151   0.0000       2.757768        75.0427 
 152   0.0000       2.774191        75.4896 
 153   0.0000       2.781640        75.6923 
 154   0.0000       2.819763        76.7297 
 155   0.0000       2.835630        77.1614 
 156   0.0000       2.844816        77.4114 
 157   0.0000       2.857231        77.7492 
 158   0.0000       2.869272        78.0769 
 159   0.0000       2.882782        78.4445 
 160   0.0000       2.924948        79.5919 
 161   0.0000       2.962220        80.6061 
 162   0.0000       3.050723        83.0144 
 163   0.0000       3.072151        83.5975 
 164   0.0000       3.094111        84.1950 
 165   0.0000       3.112345        84.6912 
 166   0.0000       3.123337        84.9903 
 167   0.0000       3.163921        86.0947 
 168   0.0000       3.209419        87.3327 
 169   0.0000       3.220240        87.6272 
 170   0.0000       3.281760        89.3012 
 171   0.0000       3.317176        90.2650 
 172   0.0000       3.338517        90.8457 
 173   0.0000       3.352307        91.2209 
 174   0.0000       3.392401        92.3119 
 175   0.0000       3.411928        92.8433 
 176   0.0000       3.433236        93.4231 
 177   0.0000       3.458968        94.1233 
 178   0.0000       3.470097        94.4261 
 179   0.0000       3.508947        95.4833 
 180   0.0000       3.534320        96.1737 
 181   0.0000       3.564650        96.9991 
 182   0.0000       3.601879        98.0121 
 183   0.0000       3.614191        98.3471 
 184   0.0000       3.637315        98.9764 
 185   0.0000       3.642655        99.1217 
 186   0.0000       3.667823        99.8065 
 187   0.0000       3.703827       100.7863 
 188   0.0000       3.731689       101.5444 
 189   0.0000       3.751074       102.0719 
 190   0.0000       3.765944       102.4766 
 191   0.0000       3.785696       103.0140 
 192   0.0000       3.838338       104.4465 
 193   0.0000       3.865875       105.1958 
 194   0.0000       3.869949       105.3067 
 195   0.0000       3.880532       105.5946 
 196   0.0000       3.890009       105.8525 
 197   0.0000       3.915258       106.5396 
 198   0.0000       3.925081       106.8069 
 199   0.0000       3.929543       106.9283 
 200   0.0000       3.970848       108.0523 
 201   0.0000       4.217009       114.7507 
 202   0.0000       4.352125       118.4273 
 203   0.0000       4.468745       121.6007 
 204   0.0000       4.498322       122.4056 
 205   0.0000       4.528487       123.2264 
 206   0.0000       4.538765       123.5061 
 207   0.0000       4.553402       123.9044 
 208   0.0000       4.589626       124.8901 
 209   0.0000       4.610524       125.4587 
 210   0.0000       4.701221       127.9267 
 211   0.0000       4.730624       128.7268 
 212   0.0000       4.756162       129.4218 
 213   0.0000       4.877678       132.7284 
 214   0.0000       4.904022       133.4452 
 215   0.0000       4.930108       134.1551 
 216   0.0000       5.657239       153.9413 
 217   0.0000       5.714866       155.5094 
 218   0.0000       5.743618       156.2918 
 219   0.0000       5.752618       156.5367 
 220   0.0000       5.787952       157.4982 
 221   0.0000       5.840137       158.9182 
 222   0.0000       5.842066       158.9707 
 223   0.0000       5.888555       160.2357 
 224   0.0000       5.956341       162.0803 
 225   0.0000       6.129351       166.7881 
 226   0.0000       6.137132       166.9999 
 227   0.0000       6.165165       167.7627 
 228   0.0000       6.172889       167.9728 
 229   0.0000       6.226984       169.4448 
 230   0.0000       6.237379       169.7277 
 231   0.0000       6.292854       171.2373 
 232   0.0000       6.334332       172.3659 
 233   0.0000       6.386861       173.7953 
 234   0.0000       6.615626       180.0203 
 235   0.0000       6.698882       182.2858 
 236   0.0000       6.785915       184.6541 
 237   0.0000       6.996851       190.3940 
 238   0.0000       7.012476       190.8192 
 239   0.0000       7.107878       193.4152 
 240   0.0000       7.153976       194.6696 
 241   0.0000       7.178581       195.3391 
 242   0.0000       7.222106       196.5235 
 243   0.0000       7.247850       197.2240 
 244   0.0000       7.275334       197.9719 
 245   0.0000       7.300942       198.6687 
 246   0.0000       7.453497       202.8200 
 247   0.0000       7.521932       204.6822 
 248   0.0000       7.557241       205.6430 
 249   0.0000       7.581397       206.3003 
 250   0.0000       7.701833       209.5775 
 251   0.0000       7.785263       211.8478 
 252   0.0000      23.360265       635.6651 
 253   0.0000      23.392028       636.5294 
 254   0.0000      23.419974       637.2899 
 255   0.0000      45.170007      1229.1384 
 256   0.0000      45.271772      1231.9075 
 257   0.0000      45.376388      1234.7543 

                    ********************************
                    * MULLIKEN POPULATION ANALYSIS *
                    ********************************

-----------------------
MULLIKEN ATOMIC CHARGES
-----------------------
   0 O :   -0.606730
   1 H :    0.402172
   2 C :   -0.109685
   3 H :    0.122206
   4 H :    0.105467
   5 H :    0.090378
   6 O :   -0.598560
   7 H :    0.380927
   8 C :   -0.054539
   9 H :    0.092588
  10 H :    0.074403
  11 H :    0.074571
  12 O :   -0.572689
  13 H :    0.350143
  14 C :   -0.097424
  15 H :    0.128444
  16 H :    0.107611
  17 H :    0.110716
Sum of atomic charges:    0.0000000

--------------------------------
MULLIKEN REDUCED ORBITAL CHARGES
--------------------------------
  0 O s       :     3.798869  s :     3.798869
      pz      :     1.433364  p :     4.775538
      px      :     1.718290
      py      :     1.623884
      dz2     :     0.003063  d :     0.030735
      dxz     :     0.004193
      dyz     :     0.013668
      dx2y2   :     0.004223
      dxy     :     0.005588
      f0      :     0.000100  f :     0.001589
      f+1     :     0.000305
      f-1     :     0.000376
      f+2     :     0.000272
      f-2     :     0.000344
      f+3     :     0.000080
      f-3     :     0.000111
  1 H s       :     0.543303  s :     0.543303
      pz      :     0.024033  p :     0.054525
      px      :     0.012297
      py      :     0.018194
  2 C s       :     3.198003  s :     3.198003
      pz      :     0.902108  p :     2.787940
      px      :     0.916046
      py      :     0.969786
      dz2     :     0.024866  d :     0.114653
      dxz     :     0.018997
      dyz     :     0.029563
      dx2y2   :     0.022720
      dxy     :     0.018507
      f0      :     0.000997  f :     0.009089
      f+1     :     0.001004
      f-1     :     0.001477
      f+2     :     0.002121
      f-2     :     0.001751
      f+3     :     0.001080
      f-3     :     0.000659
  3 H s       :     0.856535  s :     0.856535
      pz      :     0.010373  p :     0.021259
      px      :     0.003491
      py      :     0.007395
  4 H s       :     0.874349  s :     0.874349
      pz      :     0.004333  p :     0.020183
      px      :     0.005108
      py      :     0.010743
  5 H s       :     0.889395  s :     0.889395
      pz      :     0.004166  p :     0.020227
      px      :     0.012172
      py      :     0.003890
  6 O s       :     3.798492  s :     3.798492
      pz      :     1.767482  p :     4.767134
      px      :     1.651085
      py      :     1.348566
      dz2     :     0.003125  d :     0.031251
      dxz     :     0.006966
      dyz     :     0.005710
      dx2y2   :     0.011485
      dxy     :     0.003966
      f0      :     0.000230  f :     0.001684
      f+1     :     0.000108
      f-1     :     0.000231
      f+2     :     0.000319
      f-2     :     0.000185
      f+3     :     0.000233
      f-3     :     0.000377
  7 H s       :     0.561690  s :     0.561690
      pz      :     0.018594  p :     0.057383
      px      :     0.027046
      py      :     0.011743
  8 C s       :     3.179268  s :     3.179268
      pz      :     1.017400  p :     2.746005
      px      :     1.029962
      py      :     0.698644
      dz2     :     0.018397  d :     0.120062
      dxz     :     0.010530
      dyz     :     0.032621
      dx2y2   :     0.019041
      dxy     :     0.039473
      f0      :     0.001567  f :     0.009203
      f+1     :     0.000549
      f-1     :     0.001060
      f+2     :     0.001598
      f-2     :     0.000432
      f+3     :     0.001916
      f-3     :     0.002081
  9 H s       :     0.886672  s :     0.886672
      pz      :     0.007223  p :     0.020740
      px      :     0.010050
      py      :     0.003468
 10 H s       :     0.905628  s :     0.905628
      pz      :     0.004055  p :     0.019969
      px      :     0.010424
      py      :     0.005490
 11 H s       :     0.905496  s :     0.905496
      pz      :     0.013257  p :     0.019932
      px      :     0.004043
      py      :     0.002633
 12 O s       :     3.804698  s :     3.804698
      pz      :     1.514862  p :     4.734358
      px      :     1.701463
      py      :     1.518033
      dz2     :     0.005347  d :     0.031985
      dxz     :     0.009747
      dyz     :     0.004764
      dx2y2   :     0.005408
      dxy     :     0.006718
      f0      :     0.000217  f :     0.001647
      f+1     :     0.000346
      f-1     :     0.000185
      f+2     :     0.000299
      f-2     :     0.000278
      f+3     :     0.000274
      f-3     :     0.000048
 13 H s       :     0.607658  s :     0.607658
      pz      :     0.012229  p :     0.042199
      px      :     0.011956
      py      :     0.018014
 14 C s       :     3.200465  s :     3.200465
      pz      :     0.800348  p :     2.776909
      px      :     0.924000
      py      :     1.052561
      dz2     :     0.026125  d :     0.111064
      dxz     :     0.017020
      dyz     :     0.031851
      dx2y2   :     0.026617
      dxy     :     0.009452
      f0      :     0.001750  f :     0.008986
      f+1     :     0.001614
      f-1     :     0.001121
      f+2     :     0.001971
      f-2     :     0.001341
      f+3     :     0.000873
      f-3     :     0.000316
 15 H s       :     0.850115  s :     0.850115
      pz      :     0.004343  p :     0.021441
      px      :     0.004322
      py      :     0.012776
 16 H s       :     0.872184  s :     0.872184
      pz      :     0.002712  p :     0.020204
      px      :     0.013990
      py      :     0.003503
 17 H s       :     0.868658  s :     0.868658
      pz      :     0.009410  p :     0.020626
      px      :     0.003081
      py      :     0.008135


                     *******************************
                     * LOEWDIN POPULATION ANALYSIS *
                     *******************************

----------------------
LOEWDIN ATOMIC CHARGES
----------------------
   0 O :   -0.114920
   1 H :    0.174308
   2 C :   -0.341175
   3 H :    0.105815
   4 H :    0.091933
   5 H :    0.088849
   6 O :   -0.145836
   7 H :    0.168424
   8 C :   -0.352182
   9 H :    0.094270
  10 H :    0.083099
  11 H :    0.083069
  12 O :   -0.103776
  13 H :    0.197580
  14 C :   -0.329036
  15 H :    0.108562
  16 H :    0.093810
  17 H :    0.097207

-------------------------------
LOEWDIN REDUCED ORBITAL CHARGES
-------------------------------
  0 O s       :     3.376572  s :     3.376572
      pz      :     1.404283  p :     4.668740
      px      :     1.653164
      py      :     1.611293
      dz2     :     0.012278  d :     0.065630
      dxz     :     0.011700
      dyz     :     0.022595
      dx2y2   :     0.008471
      dxy     :     0.010586
      f0      :     0.000342  f :     0.003979
      f+1     :     0.000581
      f-1     :     0.000848
      f+2     :     0.000911
      f-2     :     0.000653
      f+3     :     0.000288
      f-3     :     0.000356
  1 H s       :     0.643007  s :     0.643007
      pz      :     0.077451  p :     0.182685
      px      :     0.037559
      py      :     0.067675
  2 C s       :     2.861221  s :     2.861221
      pz      :     0.970119  p :     3.000876
      px      :     0.997379
      py      :     1.033378
      dz2     :     0.077535  d :     0.421672
      dxz     :     0.074999
      dyz     :     0.109768
      dx2y2   :     0.081741
      dxy     :     0.077629
      f0      :     0.008825  f :     0.057406
      f+1     :     0.007217
      f-1     :     0.008460
      f+2     :     0.011216
      f-2     :     0.009826
      f+3     :     0.007026
      f-3     :     0.004836
  3 H s       :     0.834956  s :     0.834956
      pz      :     0.026693  p :     0.059229
      px      :     0.011245
      py      :     0.021290
  4 H s       :     0.849194  s :     0.849194
      pz      :     0.013871  p :     0.058873
      px      :     0.015822
      py      :     0.029180
  5 H s       :     0.852820  s :     0.852820
      pz      :     0.013708  p :     0.058331
      px      :     0.031793
      py      :     0.012830
  6 O s       :     3.381241  s :     3.381241
      pz      :     1.699046  p :     4.695458
      px      :     1.580940
      py      :     1.415473
      dz2     :     0.005791  d :     0.065184
      dxz     :     0.008395
      dyz     :     0.015316
      dx2y2   :     0.020454
      dxy     :     0.015229
      f0      :     0.000377  f :     0.003952
      f+1     :     0.000128
      f-1     :     0.000548
      f+2     :     0.000948
      f-2     :     0.000307
      f+3     :     0.000910
      f-3     :     0.000734
  7 H s       :     0.643348  s :     0.643348
      pz      :     0.063366  p :     0.188228
      px      :     0.091113
      py      :     0.033749
  8 C s       :     2.859852  s :     2.859852
      pz      :     1.076501  p :     2.996414
      px      :     1.077590
      py      :     0.842323
      dz2     :     0.072325  d :     0.437246
      dxz     :     0.035770
      dyz     :     0.110697
      dx2y2   :     0.090100
      dxy     :     0.128354
      f0      :     0.007648  f :     0.058670
      f+1     :     0.001683
      f-1     :     0.007373
      f+2     :     0.011973
      f-2     :     0.004476
      f+3     :     0.011969
      f-3     :     0.013549
  9 H s       :     0.847916  s :     0.847916
      pz      :     0.020820  p :     0.057815
      px      :     0.027005
      py      :     0.009990
 10 H s       :     0.859092  s :     0.859092
      pz      :     0.013563  p :     0.057809
      px      :     0.028769
      py      :     0.015477
 11 H s       :     0.859445  s :     0.859445
      pz      :     0.035200  p :     0.057487
      px      :     0.013497
      py      :     0.008789
 12 O s       :     3.385373  s :     3.385373
      pz      :     1.501177  p :     4.645263
      px      :     1.675851
      py      :     1.468234
      dz2     :     0.014029  d :     0.069021
      dxz     :     0.017358
      dyz     :     0.016427
      dx2y2   :     0.011480
      dxy     :     0.009727
      f0      :     0.000766  f :     0.004119
      f+1     :     0.000760
      f-1     :     0.000482
      f+2     :     0.000595
      f-2     :     0.000766
      f+3     :     0.000633
      f-3     :     0.000118
 13 H s       :     0.656661  s :     0.656661
      pz      :     0.035578  p :     0.145759
      px      :     0.041870
      py      :     0.068310
 14 C s       :     2.861521  s :     2.861521
      pz      :     0.906266  p :     2.993033
      px      :     1.007315
      py      :     1.079452
      dz2     :     0.107840  d :     0.416937
      dxz     :     0.085750
      dyz     :     0.101568
      dx2y2   :     0.088101
      dxy     :     0.033677
      f0      :     0.013446  f :     0.057545
      f+1     :     0.012536
      f-1     :     0.005935
      f+2     :     0.009063
      f-2     :     0.009427
      f+3     :     0.004232
      f-3     :     0.002906
 15 H s       :     0.831745  s :     0.831745
      pz      :     0.012343  p :     0.059693
      px      :     0.013724
      py      :     0.033626
 16 H s       :     0.847012  s :     0.847012
      pz      :     0.009800  p :     0.059178
      px      :     0.036791
      py      :     0.012587
 17 H s       :     0.843643  s :     0.843643
      pz      :     0.024816  p :     0.059150
      px      :     0.010685
      py      :     0.023650


                      *****************************
                      * MAYER POPULATION ANALYSIS *
                      *****************************

  NA   - Mulliken gross atomic population
  ZA   - Total nuclear charge
  QA   - Mulliken gross atomic charge
  VA   - Mayer's total valence
  BVA  - Mayer's bonded valence
  FA   - Mayer's free valence

  ATOM       NA         ZA         QA         VA         BVA        FA
  0 O      8.6067     8.0000    -0.6067     1.7264     1.7264    -0.0000
  1 H      0.5978     1.0000     0.4022     0.8608     0.8608    -0.0000
  2 C      6.1097     6.0000    -0.1097     3.8999     3.8999     0.0000
  3 H      0.8778     1.0000     0.1222     0.9728     0.9728     0.0000
  4 H      0.8945     1.0000     0.1055     0.9615     0.9615     0.0000
  5 H      0.9096     1.0000     0.0904     0.9587     0.9587     0.0000
  6 O      8.5986     8.0000    -0.5986     1.7373     1.7373     0.0000
  7 H      0.6191     1.0000     0.3809     0.8915     0.8915    -0.0000
  8 C      6.0545     6.0000    -0.0545     3.9334     3.9334    -0.0000
  9 H      0.9074     1.0000     0.0926     0.9597     0.9597    -0.0000
 10 H      0.9256     1.0000     0.0744     0.9601     0.9601    -0.0000
 11 H      0.9254     1.0000     0.0746     0.9625     0.9625     0.0000
 12 O      8.5727     8.0000    -0.5727     1.7825     1.7825     0.0000
 13 H      0.6499     1.0000     0.3501     0.8834     0.8834     0.0000
 14 C      6.0974     6.0000    -0.0974     3.8534     3.8534     0.0000
 15 H      0.8716     1.0000     0.1284     0.9663     0.9663     0.0000
 16 H      0.8924     1.0000     0.1076     0.9597     0.9597     0.0000
 17 H      0.8893     1.0000     0.1107     0.9645     0.9645     0.0000

  Mayer bond orders larger than 0.100000
B(  0-O ,  1-H ) :   0.8049 B(  0-O ,  2-C ) :   0.9102 B(  2-C ,  3-H ) :   0.9880 
B(  2-C ,  4-H ) :   0.9902 B(  2-C ,  5-H ) :   0.9822 B(  6-O ,  7-H ) :   0.8199 
B(  6-O ,  8-C ) :   0.9581 B(  8-C ,  9-H ) :   0.9871 B(  8-C , 10-H ) :   0.9882 
B(  8-C , 11-H ) :   0.9912 B( 12-O , 13-H ) :   0.8725 B( 12-O , 14-C ) :   0.8876 
B( 14-C , 15-H ) :   0.9842 B( 14-C , 16-H ) :   0.9854 B( 14-C , 17-H ) :   0.9830 


-------
TIMINGS
-------

Total SCF time: 0 days 0 hours 0 min 17 sec 

Total time                  ....      17.377 sec
Sum of individual times     ....      17.148 sec  ( 98.7%)

Fock matrix formation       ....      16.793 sec  ( 96.6%)
Diagonalization             ....       0.076 sec  (  0.4%)
Density matrix formation    ....       0.008 sec  (  0.0%)
Population analysis         ....       0.008 sec  (  0.0%)
Initial guess               ....       0.146 sec  (  0.8%)
Orbital Transformation      ....       0.000 sec  (  0.0%)
Orbital Orthonormalization  ....       0.000 sec  (  0.0%)
DIIS solution               ....       0.027 sec  (  0.2%)
SOSCF solution              ....       0.031 sec  (  0.2%)


           ************************************************************
           *        Program running with 6 parallel MPI-processes     *
           *              working on a common directory               *
           ************************************************************

------------------------------------------------------------------------------
                                ORCA  MP2 
------------------------------------------------------------------------------

Freezing NCore=12 chemical core electrons
MP2 will be done in the AO integral direct mode
The Q1-step will be done using symmetric double matrices
Dimension of the basis                    ...  258
Memory devoted for MP2                    ... 8000 MB   
Memory needed for all in one shot         ...  264 MB
Number of MOs that can be treated together...  120      
MP2 density construction                  ... relaxed
The MP2 gradient is requested => amplitudes will be stored on disk
Total number of MOs              ...   21
Number of MOs treated per batch  ...    4 
Number of batches necessary      ...    1 
OPERATORS   0/  0 PASS   0
-----------------------------------------------
 MP2 CORRELATION ENERGY   :     -1.261991378 Eh
-----------------------------------------------


---------------------
MP2 DENSITY FORMATION
---------------------

Completing the external part of the density      ... done
Storing the unrelaxed density                    ... done

Calculating G(D)                                 ... done
Completing the Lagrangian                        ... done
Solving the Z-vector equations                   ... 

------------------------------------------------------------------------------
                           ORCA CP-SCF CALCULATION
------------------------------------------------------------------------------

Input orbitals are from        ... 12meoh.boyd.etal.mol8,9,11-orca.engrad-mp2.def2tzvp.frozencore.gbw
Input Perturbation             ... 12meoh.boyd.etal.mol8,9,11-orca.engrad-mp2.def2tzvp.frozencore.pin.tmp
Wavefunction output            ... 12meoh.boyd.etal.mol8,9,11-orca.engrad-mp2.def2tzvp.frozencore.pout.tmp
Perturbation mode              ... Real perturbation (singlet)
Solver                         ... POPLE
Max. number of iterations      ... 128
Convergence tolerance          ... 1.000e-08
Integral handling              ... Direct
Number of perturbations        ... 1
Number of operators            ... 1
Orbital ranges used for CP-SCF:
 Operator 0:  Orbitals   0... 26  to  27...257
Variables per vector in CP-SCF ... 6237
Number of vectors sought       ... 1
     CP-SCF ITERATION   0: 
     CP-SCF ITERATION   1:      0.000368683565
     CP-SCF ITERATION   2:      0.000031056789
     CP-SCF ITERATION   3:      0.000004571163
     CP-SCF ITERATION   4:      0.000000202910
     CP-SCF ITERATION   5:      0.000000008332
                                                 ... done
Finalizing the relaxed density                   ... done
Transforming P to the AO basis                   ... done
Storing the relaxed density                      ... done

------------------------------------
ENERGY WEIGHTED DENSITY FINALIZATION
------------------------------------

Gathering the parts of the W-matrix              ...                                                      done
Forming the Z-density                            ... done
Transforming Z to the AO basis                   ... done
Calculating G(Z)                                 ... done
Finalizing the W-matrix                          ...                                                      done
Transforming W to the AO basis and storing       ... done

                *********************************************
                * UNRELAXED MP2 DENSITY POPULATION ANALYSIS *
                *********************************************

------------------------------------------------------------------------------
                           ORCA POPULATION ANALYSIS
------------------------------------------------------------------------------
Input electron density              ... 12meoh.boyd.etal.mol8,9,11-orca.engrad-mp2.def2tzvp.frozencore.pmp2ur
BaseName (.gbw .S,...)              ... 12meoh.boyd.etal.mol8,9,11-orca.engrad-mp2.def2tzvp.frozencore

                    ********************************
                    * MULLIKEN POPULATION ANALYSIS *
                    ********************************

-----------------------
MULLIKEN ATOMIC CHARGES
-----------------------
   0 O :   -0.593778
   1 H :    0.398071
   2 C :   -0.126528
   3 H :    0.124898
   4 H :    0.108005
   5 H :    0.093027
   6 O :   -0.586486
   7 H :    0.376350
   8 C :   -0.071041
   9 H :    0.095446
  10 H :    0.076928
  11 H :    0.077106
  12 O :   -0.560641
  13 H :    0.347440
  14 C :   -0.113091
  15 H :    0.131134
  16 H :    0.110000
  17 H :    0.113158
Sum of atomic charges:    0.0000000

--------------------------------
MULLIKEN REDUCED ORBITAL CHARGES
--------------------------------
  0 O s       :     3.793339  s :     3.793339
      pz      :     1.422374  p :     4.736858
      px      :     1.703980
      py      :     1.610504
      dz2     :     0.008905  d :     0.059278
      dxz     :     0.010050
      dyz     :     0.019030
      dx2y2   :     0.010004
      dxy     :     0.011288
      f0      :     0.000488  f :     0.004304
      f+1     :     0.000681
      f-1     :     0.000768
      f+2     :     0.000669
      f-2     :     0.000733
      f+3     :     0.000467
      f-3     :     0.000497
  1 H s       :     0.545727  s :     0.545727
      pz      :     0.024292  p :     0.056202
      px      :     0.013105
      py      :     0.018805
  2 C s       :     3.196223  s :     3.196223
      pz      :     0.901282  p :     2.782186
      px      :     0.914258
      py      :     0.966645
      dz2     :     0.029680  d :     0.135693
      dxz     :     0.022788
      dyz     :     0.033258
      dx2y2   :     0.027299
      dxy     :     0.022668
      f0      :     0.001484  f :     0.012426
      f+1     :     0.001510
      f-1     :     0.001935
      f+2     :     0.002601
      f-2     :     0.002161
      f+3     :     0.001552
      f-3     :     0.001183
  3 H s       :     0.850791  s :     0.850791
      pz      :     0.011316  p :     0.024311
      px      :     0.004614
      py      :     0.008381
  4 H s       :     0.868629  s :     0.868629
      pz      :     0.005450  p :     0.023366
      px      :     0.006199
      py      :     0.011717
  5 H s       :     0.883526  s :     0.883526
      pz      :     0.005297  p :     0.023447
      px      :     0.013100
      py      :     0.005050
  6 O s       :     3.793163  s :     3.793163
      pz      :     1.753812  p :     4.729750
      px      :     1.638840
      py      :     1.337098
      dz2     :     0.008855  d :     0.059201
      dxz     :     0.012515
      dyz     :     0.011326
      dx2y2   :     0.016833
      dxy     :     0.009672
      f0      :     0.000605  f :     0.004372
      f+1     :     0.000488
      f-1     :     0.000611
      f+2     :     0.000712
      f-2     :     0.000565
      f+3     :     0.000629
      f-3     :     0.000761
  7 H s       :     0.564493  s :     0.564493
      pz      :     0.019240  p :     0.059156
      px      :     0.027423
      py      :     0.012494
  8 C s       :     3.177402  s :     3.177402
      pz      :     1.013374  p :     2.740237
      px      :     1.025934
      py      :     0.700929
      dz2     :     0.022271  d :     0.140862
      dxz     :     0.015384
      dyz     :     0.037210
      dx2y2   :     0.022573
      dxy     :     0.043425
      f0      :     0.002025  f :     0.012540
      f+1     :     0.001064
      f-1     :     0.001534
      f+2     :     0.002067
      f-2     :     0.000953
      f+3     :     0.002439
      f-3     :     0.002457
  9 H s       :     0.880639  s :     0.880639
      pz      :     0.008260  p :     0.023915
      px      :     0.011030
      py      :     0.004625
 10 H s       :     0.899836  s :     0.899836
      pz      :     0.005207  p :     0.023236
      px      :     0.011410
      py      :     0.006619
 11 H s       :     0.899707  s :     0.899707
      pz      :     0.014171  p :     0.023187
      px      :     0.005195
      py      :     0.003820
 12 O s       :     3.799353  s :     3.799353
      pz      :     1.502386  p :     4.696992
      px      :     1.687762
      py      :     1.506845
      dz2     :     0.011088  d :     0.059962
      dxz     :     0.015162
      dyz     :     0.010521
      dx2y2   :     0.011013
      dxy     :     0.012178
      f0      :     0.000605  f :     0.004334
      f+1     :     0.000733
      f-1     :     0.000568
      f+2     :     0.000682
      f-2     :     0.000664
      f+3     :     0.000650
      f-3     :     0.000433
 13 H s       :     0.608741  s :     0.608741
      pz      :     0.012893  p :     0.043819
      px      :     0.012769
      py      :     0.018158
 14 C s       :     3.198454  s :     3.198454
      pz      :     0.800905  p :     2.770545
      px      :     0.921404
      py      :     1.048235
      dz2     :     0.030222  d :     0.131777
      dxz     :     0.020724
      dyz     :     0.035623
      dx2y2   :     0.030668
      dxy     :     0.014540
      f0      :     0.002243  f :     0.012315
      f+1     :     0.002020
      f-1     :     0.001616
      f+2     :     0.002436
      f-2     :     0.001803
      f+3     :     0.001343
      f-3     :     0.000855
 15 H s       :     0.844412  s :     0.844412
      pz      :     0.005435  p :     0.024454
      px      :     0.005395
      py      :     0.013624
 16 H s       :     0.866655  s :     0.866655
      pz      :     0.003867  p :     0.023345
      px      :     0.014844
      py      :     0.004635
 17 H s       :     0.863108  s :     0.863108
      pz      :     0.010376  p :     0.023734
      px      :     0.004224
      py      :     0.009134


                     *******************************
                     * LOEWDIN POPULATION ANALYSIS *
                     *******************************

----------------------
LOEWDIN ATOMIC CHARGES
----------------------
   0 O :   -0.105985
   1 H :    0.171673
   2 C :   -0.352350
   3 H :    0.107543
   4 H :    0.093421
   5 H :    0.090339
   6 O :   -0.138086
   7 H :    0.165733
   8 C :   -0.363130
   9 H :    0.095945
  10 H :    0.084501
  11 H :    0.084478
  12 O :   -0.094733
  13 H :    0.195709
  14 C :   -0.339504
  15 H :    0.110361
  16 H :    0.095310
  17 H :    0.098776

-------------------------------
LOEWDIN REDUCED ORBITAL CHARGES
-------------------------------
  0 O s       :     3.373197  s :     3.373197
      pz      :     1.393111  p :     4.630220
      px      :     1.638980
      py      :     1.598129
      dz2     :     0.017934  d :     0.095611
      dxz     :     0.017955
      dyz     :     0.028851
      dx2y2   :     0.014283
      dxy     :     0.016588
      f0      :     0.000750  f :     0.006957
      f+1     :     0.000994
      f-1     :     0.001308
      f+2     :     0.001341
      f-2     :     0.001119
      f+3     :     0.000687
      f-3     :     0.000758
  1 H s       :     0.642744  s :     0.642744
      pz      :     0.078442  p :     0.185583
      px      :     0.038408
      py      :     0.068733
  2 C s       :     2.860127  s :     2.860127
      pz      :     0.966206  p :     2.987031
      px      :     0.992854
      py      :     1.027971
      dz2     :     0.081595  d :     0.442894
      dxz     :     0.079199
      dyz     :     0.114047
      dx2y2   :     0.086045
      dxy     :     0.082008
      f0      :     0.009440  f :     0.062298
      f+1     :     0.007851
      f-1     :     0.009187
      f+2     :     0.011844
      f-2     :     0.010775
      f+3     :     0.007699
      f-3     :     0.005502
  3 H s       :     0.828226  s :     0.828226
      pz      :     0.028736  p :     0.064231
      px      :     0.012560
      py      :     0.022934
  4 H s       :     0.842467  s :     0.842467
      pz      :     0.015350  p :     0.064112
      px      :     0.017344
      py      :     0.031419
  5 H s       :     0.846022  s :     0.846022
      pz      :     0.015214  p :     0.063638
      px      :     0.034180
      py      :     0.014245
  6 O s       :     3.377966  s :     3.377966
      pz      :     1.686243  p :     4.658601
      px      :     1.569349
      py      :     1.403009
      dz2     :     0.011678  d :     0.094616
      dxz     :     0.014550
      dyz     :     0.020914
      dx2y2   :     0.026668
      dxy     :     0.020805
      f0      :     0.000786  f :     0.006904
      f+1     :     0.000518
      f-1     :     0.000965
      f+2     :     0.001384
      f-2     :     0.000718
      f+3     :     0.001331
      f-3     :     0.001203
  7 H s       :     0.643237  s :     0.643237
      pz      :     0.064317  p :     0.191030
      px      :     0.092093
      py      :     0.034620
  8 C s       :     2.858777  s :     2.858777
      pz      :     1.070350  p :     2.982613
      px      :     1.071381
      py      :     0.840883
      dz2     :     0.076830  d :     0.458160
      dxz     :     0.041015
      dyz     :     0.114358
      dx2y2   :     0.094316
      dxy     :     0.131643
      f0      :     0.008375  f :     0.063579
      f+1     :     0.002377
      f-1     :     0.008155
      f+2     :     0.012511
      f-2     :     0.005147
      f+3     :     0.012545
      f-3     :     0.014468
  9 H s       :     0.841064  s :     0.841064
      pz      :     0.022476  p :     0.062991
      px      :     0.029002
      py      :     0.011514
 10 H s       :     0.852317  s :     0.852317
      pz      :     0.014900  p :     0.063182
      px      :     0.030923
      py      :     0.017358
 11 H s       :     0.852677  s :     0.852677
      pz      :     0.037724  p :     0.062844
      px      :     0.014836
      py      :     0.010284
 12 O s       :     3.381892  s :     3.381892
      pz      :     1.488106  p :     4.607434
      px      :     1.662325
      py      :     1.457003
      dz2     :     0.019839  d :     0.098342
      dxz     :     0.023552
      dyz     :     0.022270
      dx2y2   :     0.017171
      dxy     :     0.015510
      f0      :     0.001181  f :     0.007064
      f+1     :     0.001210
      f-1     :     0.000892
      f+2     :     0.001030
      f-2     :     0.001196
      f+3     :     0.001043
      f-3     :     0.000512
 13 H s       :     0.655074  s :     0.655074
      pz      :     0.036504  p :     0.149218
      px      :     0.042925
      py      :     0.069789
 14 C s       :     2.860349  s :     2.860349
      pz      :     0.903571  p :     2.979069
      px      :     1.002372
      py      :     1.073126
      dz2     :     0.111518  d :     0.437685
      dxz     :     0.089798
      dyz     :     0.105277
      dx2y2   :     0.092436
      dxy     :     0.038656
      f0      :     0.013942  f :     0.062400
      f+1     :     0.013350
      f-1     :     0.006695
      f+2     :     0.009888
      f-2     :     0.010035
      f+3     :     0.004947
      f-3     :     0.003543
 15 H s       :     0.825036  s :     0.825036
      pz      :     0.013793  p :     0.064603
      px      :     0.015075
      py      :     0.035735
 16 H s       :     0.840356  s :     0.840356
      pz      :     0.011190  p :     0.064334
      px      :     0.039301
      py      :     0.013843
 17 H s       :     0.836967  s :     0.836967
      pz      :     0.026858  p :     0.064257
      px      :     0.011958
      py      :     0.025441


                      *****************************
                      * MAYER POPULATION ANALYSIS *
                      *****************************

  NA   - Mulliken gross atomic population
  ZA   - Total nuclear charge
  QA   - Mulliken gross atomic charge
  VA   - Mayer's total valence
  BVA  - Mayer's bonded valence
  FA   - Mayer's free valence

  ATOM       NA         ZA         QA         VA         BVA        FA
  0 O      8.5938     8.0000    -0.5938     2.0354     1.6237     0.4116
  1 H      0.6019     1.0000     0.3981     0.8678     0.8206     0.0472
  2 C      6.1265     6.0000    -0.1265     4.0094     3.7244     0.2850
  3 H      0.8751     1.0000     0.1249     0.9812     0.9346     0.0466
  4 H      0.8920     1.0000     0.1080     0.9707     0.9223     0.0484
  5 H      0.9070     1.0000     0.0930     0.9685     0.9192     0.0493
  6 O      8.5865     8.0000    -0.5865     2.0441     1.6348     0.4092
  7 H      0.6236     1.0000     0.3764     0.8991     0.8502     0.0489
  8 C      6.0710     6.0000    -0.0710     4.0365     3.7555     0.2811
  9 H      0.9046     1.0000     0.0954     0.9692     0.9211     0.0482
 10 H      0.9231     1.0000     0.0769     0.9706     0.9202     0.0504
 11 H      0.9229     1.0000     0.0771     0.9729     0.9226     0.0504
 12 O      8.5606     8.0000    -0.5606     2.0866     1.6778     0.4088
 13 H      0.6526     1.0000     0.3474     0.8896     0.8381     0.0515
 14 C      6.1131     6.0000    -0.1131     3.9616     3.6829     0.2787
 15 H      0.8689     1.0000     0.1311     0.9745     0.9286     0.0459
 16 H      0.8900     1.0000     0.1100     0.9690     0.9207     0.0483
 17 H      0.8868     1.0000     0.1132     0.9736     0.9257     0.0479

  Mayer bond orders larger than 0.100000
B(  0-O ,  1-H ) :   0.7665 B(  0-O ,  2-C ) :   0.8506 B(  2-C ,  3-H ) :   0.9505 
B(  2-C ,  4-H ) :   0.9519 B(  2-C ,  5-H ) :   0.9437 B(  6-O ,  7-H ) :   0.7811 
B(  6-O ,  8-C ) :   0.8971 B(  8-C ,  9-H ) :   0.9490 B(  8-C , 10-H ) :   0.9493 
B(  8-C , 11-H ) :   0.9522 B( 12-O , 13-H ) :   0.8281 B( 12-O , 14-C ) :   0.8310 
B( 14-C , 15-H ) :   0.9472 B( 14-C , 16-H ) :   0.9473 B( 14-C , 17-H ) :   0.9452 



                *******************************************
                * RELAXED MP2 DENSITY POPULATION ANALYSIS *
                *******************************************

------------------------------------------------------------------------------
                           ORCA POPULATION ANALYSIS
------------------------------------------------------------------------------
Input electron density              ... 12meoh.boyd.etal.mol8,9,11-orca.engrad-mp2.def2tzvp.frozencore.pmp2re
BaseName (.gbw .S,...)              ... 12meoh.boyd.etal.mol8,9,11-orca.engrad-mp2.def2tzvp.frozencore

                    ********************************
                    * MULLIKEN POPULATION ANALYSIS *
                    ********************************

-----------------------
MULLIKEN ATOMIC CHARGES
-----------------------
   0 O :   -0.544289
   1 H :    0.378879
   2 C :   -0.212535
   3 H :    0.143435
   4 H :    0.125183
   5 H :    0.110937
   6 O :   -0.538799
   7 H :    0.353747
   8 C :   -0.156089
   9 H :    0.114629
  10 H :    0.093546
  11 H :    0.093454
  12 O :   -0.517972
  13 H :    0.343011
  14 C :   -0.193453
  15 H :    0.149499
  16 H :    0.126778
  17 H :    0.130037
Sum of atomic charges:    0.0000000

--------------------------------
MULLIKEN REDUCED ORBITAL CHARGES
--------------------------------
  0 O s       :     3.793034  s :     3.793034
      pz      :     1.412959  p :     4.689218
      px      :     1.680370
      py      :     1.595889
      dz2     :     0.009174  d :     0.057784
      dxz     :     0.009745
      dyz     :     0.017657
      dx2y2   :     0.010208
      dxy     :     0.010999
      f0      :     0.000487  f :     0.004253
      f+1     :     0.000677
      f-1     :     0.000751
      f+2     :     0.000667
      f-2     :     0.000708
      f+3     :     0.000466
      f-3     :     0.000496
  1 H s       :     0.564881  s :     0.564881
      pz      :     0.023625  p :     0.056239
      px      :     0.013852
      py      :     0.018762
  2 C s       :     3.219210  s :     3.219210
      pz      :     0.924872  p :     2.855024
      px      :     0.938155
      py      :     0.991996
      dz2     :     0.030243  d :     0.126435
      dxz     :     0.020054
      dyz     :     0.030104
      dx2y2   :     0.025832
      dxy     :     0.020200
      f0      :     0.001409  f :     0.011866
      f+1     :     0.001470
      f-1     :     0.001832
      f+2     :     0.002473
      f-2     :     0.002063
      f+3     :     0.001471
      f-3     :     0.001149
  3 H s       :     0.833412  s :     0.833412
      pz      :     0.010436  p :     0.023152
      px      :     0.004782
      py      :     0.007934
  4 H s       :     0.852556  s :     0.852556
      pz      :     0.005441  p :     0.022261
      px      :     0.006079
      py      :     0.010742
  5 H s       :     0.866660  s :     0.866660
      pz      :     0.005287  p :     0.022403
      px      :     0.011911
      py      :     0.005205
  6 O s       :     3.789138  s :     3.789138
      pz      :     1.735893  p :     4.687914
      px      :     1.625001
      py      :     1.327020
      dz2     :     0.008697  d :     0.057427
      dxz     :     0.012023
      dyz     :     0.011375
      dx2y2   :     0.015304
      dxy     :     0.010029
      f0      :     0.000600  f :     0.004321
      f+1     :     0.000487
      f-1     :     0.000601
      f+2     :     0.000702
      f-2     :     0.000560
      f+3     :     0.000634
      f-3     :     0.000736
  7 H s       :     0.587012  s :     0.587012
      pz      :     0.019550  p :     0.059241
      px      :     0.026836
      py      :     0.012856
  8 C s       :     3.198461  s :     3.198461
      pz      :     1.042881  p :     2.812990
      px      :     1.054976
      py      :     0.715134
      dz2     :     0.017851  d :     0.132626
      dxz     :     0.013103
      dyz     :     0.038774
      dx2y2   :     0.020974
      dxy     :     0.041924
      f0      :     0.001916  f :     0.012012
      f+1     :     0.001020
      f-1     :     0.001472
      f+2     :     0.002008
      f-2     :     0.000906
      f+3     :     0.002359
      f-3     :     0.002331
  9 H s       :     0.862560  s :     0.862560
      pz      :     0.007905  p :     0.022811
      px      :     0.010249
      py      :     0.004657
 10 H s       :     0.884254  s :     0.884254
      pz      :     0.005341  p :     0.022199
      px      :     0.010472
      py      :     0.006386
 11 H s       :     0.884410  s :     0.884410
      pz      :     0.012798  p :     0.022136
      px      :     0.005328
      py      :     0.004010
 12 O s       :     3.802948  s :     3.802948
      pz      :     1.486838  p :     4.652594
      px      :     1.672578
      py      :     1.493177
      dz2     :     0.010942  d :     0.058151
      dxz     :     0.014141
      dyz     :     0.010569
      dx2y2   :     0.010851
      dxy     :     0.011648
      f0      :     0.000605  f :     0.004279
      f+1     :     0.000711
      f-1     :     0.000566
      f+2     :     0.000673
      f-2     :     0.000656
      f+3     :     0.000637
      f-3     :     0.000432
 13 H s       :     0.612626  s :     0.612626
      pz      :     0.013231  p :     0.044363
      px      :     0.013409
      py      :     0.017723
 14 C s       :     3.219927  s :     3.219927
      pz      :     0.820197  p :     2.840213
      px      :     0.946390
      py      :     1.073626
      dz2     :     0.029139  d :     0.121576
      dxz     :     0.019834
      dyz     :     0.031656
      dx2y2   :     0.026694
      dxy     :     0.014254
      f0      :     0.002112  f :     0.011737
      f+1     :     0.001937
      f-1     :     0.001536
      f+2     :     0.002347
      f-2     :     0.001714
      f+3     :     0.001265
      f-3     :     0.000827
 15 H s       :     0.827235  s :     0.827235
      pz      :     0.005407  p :     0.023266
      px      :     0.005414
      py      :     0.012445
 16 H s       :     0.850997  s :     0.850997
      pz      :     0.004051  p :     0.022224
      px      :     0.013342
      py      :     0.004831
 17 H s       :     0.847358  s :     0.847358
      pz      :     0.009557  p :     0.022605
      px      :     0.004470
      py      :     0.008578


                     *******************************
                     * LOEWDIN POPULATION ANALYSIS *
                     *******************************

----------------------
LOEWDIN ATOMIC CHARGES
----------------------
   0 O :   -0.086145
   1 H :    0.165933
   2 C :   -0.387816
   3 H :    0.114923
   4 H :    0.099562
   5 H :    0.097081
   6 O :   -0.123032
   7 H :    0.159183
   8 C :   -0.398471
   9 H :    0.103447
  10 H :    0.090589
  11 H :    0.090481
  12 O :   -0.076107
  13 H :    0.198673
  14 C :   -0.373293
  15 H :    0.117754
  16 H :    0.101790
  17 H :    0.105447

-------------------------------
LOEWDIN REDUCED ORBITAL CHARGES
-------------------------------
  0 O s       :     3.375692  s :     3.375692
      pz      :     1.391614  p :     4.607154
      px      :     1.625359
      py      :     1.590182
      dz2     :     0.018412  d :     0.096218
      dxz     :     0.017999
      dyz     :     0.028444
      dx2y2   :     0.014740
      dxy     :     0.016622
      f0      :     0.000762  f :     0.007081
      f+1     :     0.001012
      f-1     :     0.001340
      f+2     :     0.001367
      f-2     :     0.001139
      f+3     :     0.000698
      f-3     :     0.000763
  1 H s       :     0.647678  s :     0.647678
      pz      :     0.078107  p :     0.186389
      px      :     0.039020
      py      :     0.069261
  2 C s       :     2.866440  s :     2.866440
      pz      :     0.979121  p :     3.027559
      px      :     1.006840
      py      :     1.041598
      dz2     :     0.081055  d :     0.433106
      dxz     :     0.075552
      dyz     :     0.111331
      dx2y2   :     0.085532
      dxy     :     0.079635
      f0      :     0.009291  f :     0.060711
      f+1     :     0.007662
      f-1     :     0.008894
      f+2     :     0.011388
      f-2     :     0.010645
      f+3     :     0.007554
      f-3     :     0.005277
  3 H s       :     0.820395  s :     0.820395
      pz      :     0.028663  p :     0.064682
      px      :     0.013052
      py      :     0.022968
  4 H s       :     0.835546  s :     0.835546
      pz      :     0.015848  p :     0.064892
      px      :     0.017612
      py      :     0.031432
  5 H s       :     0.838410  s :     0.838410
      pz      :     0.015601  p :     0.064509
      px      :     0.034157
      py      :     0.014751
  6 O s       :     3.380320  s :     3.380320
      pz      :     1.677118  p :     4.641020
      px      :     1.564180
      py      :     1.399721
      dz2     :     0.011567  d :     0.094665
      dxz     :     0.014587
      dyz     :     0.021296
      dx2y2   :     0.025938
      dxy     :     0.021276
      f0      :     0.000804  f :     0.007028
      f+1     :     0.000520
      f-1     :     0.000979
      f+2     :     0.001407
      f-2     :     0.000732
      f+3     :     0.001357
      f-3     :     0.001229
  7 H s       :     0.649205  s :     0.649205
      pz      :     0.064836  p :     0.191612
      px      :     0.091852
      py      :     0.034924
  8 C s       :     2.864738  s :     2.864738
      pz      :     1.086671  p :     3.022344
      px      :     1.087558
      py      :     0.848115
      dz2     :     0.073100  d :     0.449392
      dxz     :     0.038429
      dyz     :     0.115813
      dx2y2   :     0.091366
      dxy     :     0.130684
      f0      :     0.008141  f :     0.061997
      f+1     :     0.002296
      f-1     :     0.007923
      f+2     :     0.012239
      f-2     :     0.005028
      f+3     :     0.012082
      f-3     :     0.014288
  9 H s       :     0.833046  s :     0.833046
      pz      :     0.022621  p :     0.063507
      px      :     0.028946
      py      :     0.011939
 10 H s       :     0.845361  s :     0.845361
      pz      :     0.015308  p :     0.064050
      px      :     0.030819
      py      :     0.017923
 11 H s       :     0.845829  s :     0.845829
      pz      :     0.037485  p :     0.063690
      px      :     0.015273
      py      :     0.010931
 12 O s       :     3.384715  s :     3.384715
      pz      :     1.479593  p :     4.585792
      px      :     1.653052
      py      :     1.453147
      dz2     :     0.020143  d :     0.098423
      dxz     :     0.023193
      dyz     :     0.022562
      dx2y2   :     0.017108
      dxy     :     0.015417
      f0      :     0.001208  f :     0.007177
      f+1     :     0.001234
      f-1     :     0.000904
      f+2     :     0.001049
      f-2     :     0.001218
      f+3     :     0.001048
      f-3     :     0.000517
 13 H s       :     0.651613  s :     0.651613
      pz      :     0.036542  p :     0.149714
      px      :     0.043768
      py      :     0.069404
 14 C s       :     2.866439  s :     2.866439
      pz      :     0.915032  p :     3.019328
      px      :     1.016304
      py      :     1.087992
      dz2     :     0.111344  d :     0.426750
      dxz     :     0.087462
      dyz     :     0.101086
      dx2y2   :     0.089032
      dxy     :     0.037826
      f0      :     0.013493  f :     0.060776
      f+1     :     0.013139
      f-1     :     0.006495
      f+2     :     0.009623
      f-2     :     0.009760
      f+3     :     0.004830
      f-3     :     0.003435
 15 H s       :     0.817283  s :     0.817283
      pz      :     0.014162  p :     0.064963
      px      :     0.015408
      py      :     0.035393
 16 H s       :     0.833142  s :     0.833142
      pz      :     0.011705  p :     0.065069
      px      :     0.039042
      py      :     0.014322
 17 H s       :     0.829604  s :     0.829604
      pz      :     0.027005  p :     0.064948
      px      :     0.012455
      py      :     0.025487


                      *****************************
                      * MAYER POPULATION ANALYSIS *
                      *****************************

  NA   - Mulliken gross atomic population
  ZA   - Total nuclear charge
  QA   - Mulliken gross atomic charge
  VA   - Mayer's total valence
  BVA  - Mayer's bonded valence
  FA   - Mayer's free valence

  ATOM       NA         ZA         QA         VA         BVA        FA
  0 O      8.5443     8.0000    -0.5443     2.1104     1.7064     0.4040
  1 H      0.6211     1.0000     0.3789     0.8922     0.8456     0.0465
  2 C      6.2125     6.0000    -0.2125     4.0296     3.7474     0.2822
  3 H      0.8566     1.0000     0.1434     0.9745     0.9286     0.0459
  4 H      0.8748     1.0000     0.1252     0.9625     0.9147     0.0478
  5 H      0.8891     1.0000     0.1109     0.9610     0.9124     0.0486
  6 O      8.5388     8.0000    -0.5388     2.1104     1.7081     0.4024
  7 H      0.6463     1.0000     0.3537     0.9271     0.8790     0.0482
  8 C      6.1561     6.0000    -0.1561     4.0597     3.7809     0.2788
  9 H      0.8854     1.0000     0.1146     0.9605     0.9130     0.0476
 10 H      0.9065     1.0000     0.0935     0.9627     0.9130     0.0497
 11 H      0.9065     1.0000     0.0935     0.9654     0.9157     0.0497
 12 O      8.5180     8.0000    -0.5180     2.1589     1.7580     0.4009
 13 H      0.6570     1.0000     0.3430     0.8919     0.8402     0.0516
 14 C      6.1935     6.0000    -0.1935     3.9750     3.6987     0.2763
 15 H      0.8505     1.0000     0.1495     0.9665     0.9212     0.0453
 16 H      0.8732     1.0000     0.1268     0.9614     0.9137     0.0477
 17 H      0.8700     1.0000     0.1300     0.9665     0.9192     0.0473

  Mayer bond orders larger than 0.100000
B(  0-O ,  1-H ) :   0.7651 B(  0-O ,  2-C ) :   0.8906 B(  2-C ,  3-H ) :   0.9418 
B(  2-C ,  4-H ) :   0.9414 B(  2-C ,  5-H ) :   0.9322 B(  6-O ,  7-H ) :   0.7824 
B(  6-O ,  8-C ) :   0.9508 B(  8-C ,  9-H ) :   0.9410 B(  8-C , 10-H ) :   0.9376 
B(  8-C , 11-H ) :   0.9415 B( 12-O , 13-H ) :   0.8277 B( 12-O , 14-C ) :   0.8713 
B( 14-C , 15-H ) :   0.9387 B( 14-C , 16-H ) :   0.9362 B( 14-C , 17-H ) :   0.9345 



----------------------------------
MP2 DERIVATIVE INTEGRAL GENERATION
----------------------------------


Input Wavefunction Amplitudes       ... 12meoh.boyd.etal.mol8,9,11-orca.engrad-mp2.def2tzvp.frozencore.mp2tsaa.tmp
Input Correlated Electron Density   ... 12meoh.boyd.etal.mol8,9,11-orca.engrad-mp2.def2tzvp.frozencore.pmp2re
Input Energy Weighted Density       ... 12meoh.boyd.etal.mol8,9,11-orca.engrad-mp2.def2tzvp.frozencore.wmp2.tmp
Input SCF Electron Density          ... 12meoh.boyd.etal.mol8,9,11-orca.engrad-mp2.def2tzvp.frozencore.scfp

One-Electron Terms    ...
                        ... One-Electron Terms done
Prescreening matrices              ... done

Batch handling in the gradient evaluation:
Memory available                      ... 8000.0 MB
Memory per occupied orbital in Q2     ...   10.7 MB
Memory per occupied orbital in Q3     ...    0.1 MB
Total memory requirement per |i>      ...   10.8 MB
Max. Number of orbitals possible      ...    743
Number of orbitals treated per batch  ...     21
Number of batches to be done          ...      1
Batch   0: i=    6 ...    26

---------------------------------------
MP2 TOTAL ENERGY:     -346.541670823 Eh
---------------------------------------

The final MP2 gradient
  0:  -0.00361195   0.00836800  -0.00556607
  1:  -0.00120361  -0.00649733   0.00780177
  2:  -0.00097445  -0.00104995  -0.00129799
  3:   0.00104685   0.00282669  -0.00272322
  4:  -0.00043690  -0.00313995  -0.00049446
  5:   0.00220615  -0.00114310   0.00140640
  6:  -0.00475656   0.00105803  -0.00499824
  7:   0.01192036  -0.00801617   0.00680599
  8:  -0.00324914   0.00364430  -0.00021239
  9:  -0.00226296   0.00111095  -0.00183543
 10:   0.00241489  -0.00028992  -0.00085027
 11:  -0.00060954   0.00091622   0.00320076
 12:  -0.00864053   0.02193880   0.01263883
 13:   0.01019716  -0.02052181  -0.01211289
 14:  -0.00664671  -0.00001805  -0.00873768
 15:  -0.00003502   0.00363640   0.00332386
 16:   0.00428201  -0.00012049  -0.00005940
 17:   0.00035993  -0.00270261   0.00371044

-----------------------------------
NORM OF THE MP2 GRADIENT:  0.046715
-----------------------------------

-------------------------   --------------------
FINAL SINGLE POINT ENERGY      -346.541670822532
-------------------------   --------------------


                            ***************************************
                            *     ORCA property calculations      *
                            ***************************************

                                    ---------------------
                                    Active property flags
                                    ---------------------
   (+) Dipole Moment


------------------------------------------------------------------------------
                       ORCA ELECTRIC PROPERTIES CALCULATION
------------------------------------------------------------------------------

Dipole Moment Calculation                       ... on
Quadrupole Moment Calculation                   ... off
Polarizability Calculation                      ... off
GBWName                                         ... 12meoh.boyd.etal.mol8,9,11-orca.engrad-mp2.def2tzvp.frozencore.gbw
Electron density file                           ... 12meoh.boyd.etal.mol8,9,11-orca.engrad-mp2.def2tzvp.frozencore.scfp
The origin for moment calculation is the CENTER OF MASS  = ( 5.627233,  4.157015  0.224943)

-------------
DIPOLE MOMENT
-------------
                                X             Y             Z
Electronic contribution:     -1.61239      -1.46087      -0.19989
Nuclear contribution   :      3.12246       0.39728       1.44391
                        -----------------------------------------
Total Dipole Moment    :      1.51007      -1.06360       1.24402
                        -----------------------------------------
Magnitude (a.u.)       :      2.22691
Magnitude (Debye)      :      5.66036



--------------------
Rotational spectrum 
--------------------
 
Rotational constants in cm-1:     0.132465     0.032382     0.028271 
Rotational constants in MHz :  3971.198413   970.781792   847.533013 

 Dipole components along the rotational axes: 
x,y,z [a.u.] :    -2.129964    -0.510781    -0.401857 
x,y,z [Debye]:    -5.413939    -1.298301    -1.021440 

 

                         *** MP2 UNRELAXED DENSITY ***

------------------------------------------------------------------------------
                       ORCA ELECTRIC PROPERTIES CALCULATION
------------------------------------------------------------------------------

Dipole Moment Calculation                       ... on
Quadrupole Moment Calculation                   ... off
Polarizability Calculation                      ... off
GBWName                                         ... 12meoh.boyd.etal.mol8,9,11-orca.engrad-mp2.def2tzvp.frozencore.gbw
Electron density file                           ... 12meoh.boyd.etal.mol8,9,11-orca.engrad-mp2.def2tzvp.frozencore.pmp2ur
The origin for moment calculation is the CENTER OF MASS  = ( 5.627233,  4.157015  0.224943)

-------------
DIPOLE MOMENT
-------------
                                X             Y             Z
Electronic contribution:     -1.63458      -1.45721      -0.20770
Nuclear contribution   :      3.12246       0.39728       1.44391
                        -----------------------------------------
Total Dipole Moment    :      1.48788      -1.05993       1.23621
                        -----------------------------------------
Magnitude (a.u.)       :      2.20578
Magnitude (Debye)      :      5.60664



--------------------
Rotational spectrum 
--------------------
 
Rotational constants in cm-1:     0.132465     0.032382     0.028271 
Rotational constants in MHz :  3971.198413   970.781792   847.533013 

 Dipole components along the rotational axes: 
x,y,z [a.u.] :    -2.112799    -0.499771    -0.389573 
x,y,z [Debye]:    -5.370309    -1.270318    -0.990217 

 

                           *** MP2 RELAXED DENSITY ***

------------------------------------------------------------------------------
                       ORCA ELECTRIC PROPERTIES CALCULATION
------------------------------------------------------------------------------

Dipole Moment Calculation                       ... on
Quadrupole Moment Calculation                   ... off
Polarizability Calculation                      ... off
GBWName                                         ... 12meoh.boyd.etal.mol8,9,11-orca.engrad-mp2.def2tzvp.frozencore.gbw
Electron density file                           ... 12meoh.boyd.etal.mol8,9,11-orca.engrad-mp2.def2tzvp.frozencore.pmp2re
The origin for moment calculation is the CENTER OF MASS  = ( 5.627233,  4.157015  0.224943)

-------------
DIPOLE MOMENT
-------------
                                X             Y             Z
Electronic contribution:     -1.65108      -1.46542      -0.20492
Nuclear contribution   :      3.12246       0.39728       1.44391
                        -----------------------------------------
Total Dipole Moment    :      1.47137      -1.06815       1.23900
                        -----------------------------------------
Magnitude (a.u.)       :      2.20022
Magnitude (Debye)      :      5.59252



--------------------
Rotational spectrum 
--------------------
 
Rotational constants in cm-1:     0.132465     0.032382     0.028271 
Rotational constants in MHz :  3971.198413   970.781792   847.533013 

 Dipole components along the rotational axes: 
x,y,z [a.u.] :    -2.112275    -0.489025    -0.374340 
x,y,z [Debye]:    -5.368977    -1.243003    -0.951496 

 

Timings for individual modules:

Sum of individual times         ...       87.770 sec (=   1.463 min)
GTO integral calculation        ...        2.825 sec (=   0.047 min)   3.2 %
SCF iterations                  ...       19.022 sec (=   0.317 min)  21.7 %
MP2 module                      ...       65.923 sec (=   1.099 min)  75.1 %
                             ****ORCA TERMINATED NORMALLY****
TOTAL RUN TIME: 0 days 0 hours 1 minutes 28 seconds 973 msec
