
                                 *****************
                                 * O   R   C   A *
                                 *****************

           --- An Ab Initio, DFT and Semiempirical electronic structure package ---

                  #######################################################
                  #                        -***-                        #
                  #          Department of theory and spectroscopy      #
                  #               Directorship: Frank Neese             #
                  #        Max Planck Institute fuer Kohlenforschung    #
                  #                Kaiser Wilhelm Platz 1               #
                  #                 D-45470 Muelheim/Ruhr               #
                  #                      Germany                        #
                  #                                                     #
                  #                  All rights reserved                #
                  #                        -***-                        #
                  #######################################################


                         Program Version 4.2.0 -  RELEASE  -


 With contributions from (in alphabetic order):
   Daniel Aravena         : Magnetic Suceptibility
   Michael Atanasov       : Ab Initio Ligand Field Theory (pilot matlab implementation)
   Alexander A. Auer      : GIAO ZORA, VPT2
   Ute Becker             : Parallelization
   Giovanni Bistoni       : ED, misc. LED, open-shell LED, HFLED
   Martin Brehm           : Molecular dynamics
   Dmytro Bykov           : SCF Hessian
   Vijay G. Chilkuri      : MRCI spin determinant printing, contributions to CSF-ICE
   Dipayan Datta          : RHF DLPNO-CCSD density
   Achintya Kumar Dutta   : EOM-CC, STEOM-CC
   Dmitry Ganyushin       : Spin-Orbit,Spin-Spin,Magnetic field MRCI
   Miquel Garcia          : C-PCM Hessian, Gaussian charge scheme
   Yang Guo               : DLPNO-NEVPT2, CIM, IAO-localization
   Andreas Hansen         : Spin unrestricted coupled pair/coupled cluster methods
   Benjamin Helmich-Paris : CASSCF linear response (MC-RPA)
   Lee Huntington         : MR-EOM, pCC
   Robert Izsak           : Overlap fitted RIJCOSX, COSX-SCS-MP3, EOM
   Christian Kollmar      : KDIIS, OOCD, Brueckner-CCSD(T), CCSD density
   Simone Kossmann        : Meta GGA functionals, TD-DFT gradient, OOMP2, MP2 Hessian
   Martin Krupicka        : AUTO-CI
   Lucas Lang             : DCDCAS
   Dagmar Lenk            : GEPOL surface, SMD
   Dimitrios Liakos       : Extrapolation schemes; Compound Job, initial MDCI parallelization
   Dimitrios Manganas     : Further ROCIS development; embedding schemes
   Dimitrios Pantazis     : SARC Basis sets
   Taras Petrenko         : DFT Hessian,TD-DFT gradient, ASA, ECA, R-Raman, ABS, FL, XAS/XES, NRVS
   Peter Pinski           : DLPNO-MP2, DLPNO-MP2 Gradient
   Christoph Reimann      : Effective Core Potentials
   Marius Retegan         : Local ZFS, SOC
   Christoph Riplinger    : Optimizer, TS searches, QM/MM, DLPNO-CCSD(T), (RO)-DLPNO pert. Triples
   Tobias Risthaus        : Range-separated hybrids, TD-DFT gradient, RPA, STAB
   Michael Roemelt        : Original ROCIS implementation
   Masaaki Saitow         : Open-shell DLPNO-CCSD energy and density
   Barbara Sandhoefer     : DKH picture change effects
   Avijit Sen             : IP-ROCIS
   Kantharuban Sivalingam : CASSCF convergence, NEVPT2, FIC-MRCI
   Bernardo de Souza      : ESD, SOC TD-DFT
   Georgi Stoychev        : AutoAux, RI-MP2 NMR
   Willem Van den Heuvel  : Paramagnetic NMR
   Boris Wezisla          : Elementary symmetry handling
   Frank Wennmohs         : Technical directorship


 We gratefully acknowledge several colleagues who have allowed us to
 interface, adapt or use parts of their codes:
   Stefan Grimme, W. Hujo, H. Kruse,             : VdW corrections, initial TS optimization,
                  C. Bannwarth                     DFT functionals, gCP, sTDA/sTD-DF
   Ed Valeev, F. Pavosevic, A. Kumar             : LibInt (2-el integral package), F12 methods
   Garnet Chan, S. Sharma, J. Yang, R. Olivares  : DMRG
   Ulf Ekstrom                                   : XCFun DFT Library
   Mihaly Kallay                                 : mrcc  (arbitrary order and MRCC methods)
   Andreas Klamt, Michael Diedenhofen            : otool_cosmo (COSMO solvation model)
   Jiri Pittner, Ondrej Demel                    : Mk-CCSD
   Frank Weinhold                                : gennbo (NPA and NBO analysis)
   Christopher J. Cramer and Donald G. Truhlar   : smd solvation model
   Lars Goerigk                                  : TD-DFT with DH, B97 family of functionals
   V. Asgeirsson, H. Jonsson                     : NEB implementation
   FAccTs GmbH                                   : IRC, NEB, NEB-TS, Multilevel, MM, QM/MM, CI optimization
   S Lehtola, MJT Oliveira, MAL Marques          : LibXC Library


 Your calculation uses the libint2 library for the computation of 2-el integrals
 For citations please refer to: http://libint.valeyev.net

 Your ORCA version has been built with support for libXC version: 4.2.3
 For citations please refer to: https://tddft.org/programs/libxc/

 This ORCA versions uses:
   CBLAS   interface :  Fast vector & matrix operations
   LAPACKE interface :  Fast linear algebra routines
   SCALAPACK package :  Parallel linear algebra routines


----- Orbital basis set information -----
Your calculation utilizes the basis: def2-TZVP
   F. Weigend and R. Ahlrichs, Phys. Chem. Chem. Phys. 7, 3297 (2005).

================================================================================
                                        WARNINGS
                       Please study these warnings very carefully!
================================================================================


WARNING: The frozen-core approximation for MP2-gradient calculations is turned on by default.

INFO   : the flag for use of LIBINT has been found!

================================================================================
                                       INPUT FILE
================================================================================
NAME = 12h2o.su.etal.mol2,3,5,6,7,8,10,11-orca.engrad-mp2.def2tzvp.frozencore.inp
|  1> # 12h2o.su.etal.mol2,3,5,6,7,8,10,11
|  2> ! MP2 def2-TZVP EnGrad TightSCF
|  3> 
|  4> %pal
|  5>     nprocs 6
|  6> end
|  7> 
|  8> %maxcore 8000
|  9> 
| 10> %scf
| 11>     ConvForced true
| 12> end
| 13> 
| 14> *xyz 0 1
| 15> O   0.923410000  -1.794470000  -2.768350000
| 16> H   1.359750000  -2.338250000  -3.430940000
| 17> H   1.303000000  -0.879480000  -2.865760000
| 18> O  -1.752130000  -0.741530000  -2.896280000
| 19> H  -2.036450000  -0.920500000  -1.984040000
| 20> H  -0.921210000  -1.242140000  -2.984230000
| 21> O   0.885520000  -1.737840000   0.052730000
| 22> H   1.284090000  -0.839590000   0.017130000
| 23> H   1.032320000  -2.090180000  -0.841890000
| 24> O   1.737840000   0.885520000  -0.052730000
| 25> H   2.090180000   1.032320000   0.841890000
| 26> H   0.839590000   1.284090000  -0.017130000
| 27> O  -1.737840000  -0.885520000  -0.052730000
| 28> H  -2.090180000  -1.032320000   0.841890000
| 29> H  -0.839590000  -1.284090000  -0.017130000
| 30> O   1.752130000   0.741530000  -2.896280000
| 31> H   2.036450000   0.920500000  -1.984040000
| 32> H   0.921210000   1.242140000  -2.984230000
| 33> O  -0.923410000   1.794470000  -2.768350000
| 34> H  -1.359750000   2.338250000  -3.430940000
| 35> H  -1.303000000   0.879480000  -2.865760000
| 36> O  -0.741530000   1.752130000   2.896280000
| 37> H  -0.920500000   2.036450000   1.984040000
| 38> H  -1.242140000   0.921210000   2.984230000
| 39> *
| 40> 
| 41>                          ****END OF INPUT****
================================================================================

                     *******************************
                     * Energy+Gradient Calculation *
                     *******************************

---------------------------------
CARTESIAN COORDINATES (ANGSTROEM)
---------------------------------
  O      0.923410   -1.794470   -2.768350
  H      1.359750   -2.338250   -3.430940
  H      1.303000   -0.879480   -2.865760
  O     -1.752130   -0.741530   -2.896280
  H     -2.036450   -0.920500   -1.984040
  H     -0.921210   -1.242140   -2.984230
  O      0.885520   -1.737840    0.052730
  H      1.284090   -0.839590    0.017130
  H      1.032320   -2.090180   -0.841890
  O      1.737840    0.885520   -0.052730
  H      2.090180    1.032320    0.841890
  H      0.839590    1.284090   -0.017130
  O     -1.737840   -0.885520   -0.052730
  H     -2.090180   -1.032320    0.841890
  H     -0.839590   -1.284090   -0.017130
  O      1.752130    0.741530   -2.896280
  H      2.036450    0.920500   -1.984040
  H      0.921210    1.242140   -2.984230
  O     -0.923410    1.794470   -2.768350
  H     -1.359750    2.338250   -3.430940
  H     -1.303000    0.879480   -2.865760
  O     -0.741530    1.752130    2.896280
  H     -0.920500    2.036450    1.984040
  H     -1.242140    0.921210    2.984230

----------------------------
CARTESIAN COORDINATES (A.U.)
----------------------------
  NO LB      ZA    FRAG     MASS         X           Y           Z
   0 O     8.0000    0    15.999    1.744992   -3.391057   -5.231423
   1 H     1.0000    0     1.008    2.569555   -4.418652   -6.483537
   2 H     1.0000    0     1.008    2.462313   -1.661976   -5.415502
   3 O     8.0000    0    15.999   -3.311046   -1.401289   -5.473176
   4 H     1.0000    0     1.008   -3.848333   -1.739493   -3.749292
   5 H     1.0000    0     1.008   -1.740835   -2.347304   -5.639377
   6 O     8.0000    0    15.999    1.673390   -3.284042    0.099645
   7 H     1.0000    0     1.008    2.426578   -1.586595    0.032371
   8 H     1.0000    0     1.008    1.950802   -3.949868   -1.590942
   9 O     8.0000    0    15.999    3.284042    1.673390   -0.099645
  10 H     1.0000    0     1.008    3.949868    1.950802    1.590942
  11 H     1.0000    0     1.008    1.586595    2.426578   -0.032371
  12 O     8.0000    0    15.999   -3.284042   -1.673390   -0.099645
  13 H     1.0000    0     1.008   -3.949868   -1.950802    1.590942
  14 H     1.0000    0     1.008   -1.586595   -2.426578   -0.032371
  15 O     8.0000    0    15.999    3.311046    1.401289   -5.473176
  16 H     1.0000    0     1.008    3.848333    1.739493   -3.749292
  17 H     1.0000    0     1.008    1.740835    2.347304   -5.639377
  18 O     8.0000    0    15.999   -1.744992    3.391057   -5.231423
  19 H     1.0000    0     1.008   -2.569555    4.418652   -6.483537
  20 H     1.0000    0     1.008   -2.462313    1.661976   -5.415502
  21 O     8.0000    0    15.999   -1.401289    3.311046    5.473176
  22 H     1.0000    0     1.008   -1.739493    3.848333    3.749292
  23 H     1.0000    0     1.008   -2.347304    1.740835    5.639377

--------------------------------
INTERNAL COORDINATES (ANGSTROEM)
--------------------------------
 O      0   0   0     0.000000000000     0.00000000     0.00000000
 H      1   0   0     0.961828878803     0.00000000     0.00000000
 H      1   2   0     0.995381322057   106.21731035     0.00000000
 O      1   2   3     2.878117964938   126.72240291   103.59081140
 H      4   1   2     0.972136791249    99.37069922   136.92500856
 H      4   1   2     0.974050112161    12.30570018    24.40947955
 O      1   2   3     2.821902722526   134.92023192   245.52250503
 H      7   1   2     0.983350632989    88.66470709   117.24500673
 H      7   1   2     0.972645187106    21.75017499   343.08822912
 O      8   7   1     1.785153773264   170.81379649    89.95043540
 H     10   8   7     0.972645187106   101.65007623   109.44492584
 H     10   8   7     0.983350632989    99.09581498     3.33484705
 O      5   4   1     1.954571525578   151.55104644    46.66533865
 H     13   5   4     0.972645187106   148.29772527   173.62852352
 H     13   5   4     0.983350632989    99.67573411   310.71905253
 O      3   1   2     1.682356278379   171.61043709   164.26103839
 H     16   3   1     0.972136791249   103.79460456    70.64587838
 H     16   3   1     0.974050112161   105.61118924   321.69395179
 O     18  16   3     1.937600461318   161.54375213    39.05245435
 H     19  18  16     0.961828878803   121.08403650   202.75419110
 H     19  18  16     0.995381322057    95.17003195   315.21089530
 O     12  10   8     3.347679752321   121.30565948    83.11460775
 H     22  12  10     0.972136791249    46.46358234   170.36223581
 H     22  12  10     0.974050112161   101.65702229   268.49406050

---------------------------
INTERNAL COORDINATES (A.U.)
---------------------------
 O      0   0   0     0.000000000000     0.00000000     0.00000000
 H      1   0   0     1.817593168635     0.00000000     0.00000000
 H      1   2   0     1.880998097508   106.21731035     0.00000000
 O      1   2   3     5.438854734852   126.72240291   103.59081140
 H      4   1   2     1.837072300170    99.37069922   136.92500856
 H      4   1   2     1.840687952699    12.30570018    24.40947955
 O      1   2   3     5.332623322141   134.92023192   245.52250503
 H      7   1   2     1.858263389967    88.66470709   117.24500673
 H      7   1   2     1.838033029106    21.75017499   343.08822912
 O      8   7   1     3.373451738406   170.81379649    89.95043540
 H     10   8   7     1.838033029106   101.65007623   109.44492584
 H     10   8   7     1.858263389967    99.09581498     3.33484705
 O      5   4   1     3.693604892503   151.55104644    46.66533865
 H     13   5   4     1.838033029106   148.29772527   173.62852352
 H     13   5   4     1.858263389967    99.67573411   310.71905253
 O      3   1   2     3.179192625819   171.61043709   164.26103839
 H     16   3   1     1.837072300170   103.79460456    70.64587838
 H     16   3   1     1.840687952699   105.61118924   321.69395179
 O     18  16   3     3.661534228851   161.54375213    39.05245435
 H     19  18  16     1.817593168635   121.08403650   202.75419110
 H     19  18  16     1.880998097508    95.17003195   315.21089530
 O     12  10   8     6.326197915960   121.30565948    83.11460775
 H     22  12  10     1.837072300170    46.46358234   170.36223581
 H     22  12  10     1.840687952699   101.65702229   268.49406050

---------------------
BASIS SET INFORMATION
---------------------
There are 2 groups of distinct atoms

 Group   1 Type O   : 11s6p2d1f contracted to 5s3p2d1f pattern {62111/411/11/1}
 Group   2 Type H   : 5s1p contracted to 3s1p pattern {311/1}

Atom   0O    basis set group =>   1
Atom   1H    basis set group =>   2
Atom   2H    basis set group =>   2
Atom   3O    basis set group =>   1
Atom   4H    basis set group =>   2
Atom   5H    basis set group =>   2
Atom   6O    basis set group =>   1
Atom   7H    basis set group =>   2
Atom   8H    basis set group =>   2
Atom   9O    basis set group =>   1
Atom  10H    basis set group =>   2
Atom  11H    basis set group =>   2
Atom  12O    basis set group =>   1
Atom  13H    basis set group =>   2
Atom  14H    basis set group =>   2
Atom  15O    basis set group =>   1
Atom  16H    basis set group =>   2
Atom  17H    basis set group =>   2
Atom  18O    basis set group =>   1
Atom  19H    basis set group =>   2
Atom  20H    basis set group =>   2
Atom  21O    basis set group =>   1
Atom  22H    basis set group =>   2
Atom  23H    basis set group =>   2


           ************************************************************
           *        Program running with 6 parallel MPI-processes     *
           *              working on a common directory               *
           ************************************************************
------------------------------------------------------------------------------
                           ORCA GTO INTEGRAL CALCULATION
------------------------------------------------------------------------------

                         BASIS SET STATISTICS AND STARTUP INFO

 # of primitive gaussian shells          ...  256
 # of primitive gaussian functions       ...  496
 # of contracted shells                  ...  152
 # of contracted basis functions         ...  344
 Highest angular momentum                ...    3
 Maximum contraction depth               ...    6
 Integral package used                   ... LIBINT
 Integral threshhold            Thresh   ...  2.500e-11
 Primitive cut-off              TCut     ...  2.500e-12


------------------------------ INTEGRAL EVALUATION ----------------------------


 * One electron integrals 
 Pre-screening matrix                    ... done
 Shell pair data                         ... done (   0.002 sec)



           ************************************************************
           *        Program running with 6 parallel MPI-processes     *
           *              working on a common directory               *
           ************************************************************
-------------------------------------------------------------------------------
                                 ORCA SCF
-------------------------------------------------------------------------------

------------
SCF SETTINGS
------------
Hamiltonian:
 Ab initio Hamiltonian  Method          .... Hartree-Fock(GTOs)


General Settings:
 Integral files         IntName         .... 12h2o.su.etal.mol2,3,5,6,7,8,10,11-orca.engrad-mp2.def2tzvp.frozencore
 Hartree-Fock type      HFTyp           .... RHF
 Total Charge           Charge          ....    0
 Multiplicity           Mult            ....    1
 Number of Electrons    NEL             ....   80
 Basis Dimension        Dim             ....  344
 Nuclear Repulsion      ENuc            ....    471.2707650358 Eh

Convergence Acceleration:
 DIIS                   CNVDIIS         .... on
   Start iteration      DIISMaxIt       ....    12
   Startup error        DIISStart       ....  0.200000
   # of expansion vecs  DIISMaxEq       ....     5
   Bias factor          DIISBfac        ....   1.050
   Max. coefficient     DIISMaxC        ....  10.000
 Newton-Raphson         CNVNR           .... off
 SOSCF                  CNVSOSCF        .... on
   Start iteration      SOSCFMaxIt      ....   150
   Startup grad/error   SOSCFStart      ....  0.003300
 Level Shifting         CNVShift        .... on
   Level shift para.    LevelShift      ....    0.2500
   Turn off err/grad.   ShiftErr        ....    0.0010
 Zerner damping         CNVZerner       .... off
 Static damping         CNVDamp         .... on
   Fraction old density DampFac         ....    0.7000
   Max. Damping (<1)    DampMax         ....    0.9800
   Min. Damping (>=0)   DampMin         ....    0.0000
   Turn off err/grad.   DampErr         ....    0.1000
 Fernandez-Rico         CNVRico         .... off

SCF Procedure:
 Maximum # iterations   MaxIter         ....   125
 SCF integral mode      SCFMode         .... Direct
   Integral package                     .... LIBINT
 Reset frequency        DirectResetFreq ....    20
 Integral Threshold     Thresh          ....  2.500e-11 Eh
 Primitive CutOff       TCut            ....  2.500e-12 Eh

Convergence Tolerance:
 Convergence Check Mode ConvCheckMode   .... Total+1el-Energy
 Convergence forced     ConvForced      .... 1
 Energy Change          TolE            ....  1.000e-08 Eh
 1-El. energy change                    ....  1.000e-05 Eh
 Orbital Gradient       TolG            ....  1.000e-05
 Orbital Rotation angle TolX            ....  1.000e-05
 DIIS Error             TolErr          ....  5.000e-07


Diagonalization of the overlap matrix:
Smallest eigenvalue                        ... 3.631e-03
Time for diagonalization                   ...    0.017 sec
Threshold for overlap eigenvalues          ... 1.000e-08
Number of eigenvalues below threshold      ... 0
Time for construction of square roots      ...    0.009 sec
Total time needed                          ...    0.026 sec

-------------------
DFT GRID GENERATION
-------------------

General Integration Accuracy     IntAcc      ...  4.340
Radial Grid Type                 RadialGrid  ... Gauss-Chebyshev
Angular Grid (max. acc.)         AngularGrid ... Lebedev-110
Angular grid pruning method      GridPruning ... 3 (G Style)
Weight generation scheme         WeightScheme... Becke
Basis function cutoff            BFCut       ...    1.0000e-11
Integration weight cutoff        WCut        ...    1.0000e-14
Grids for H and He will be reduced by one unit

# of grid points (after initial pruning)     ...  26432 (   0.0 sec)
# of grid points (after weights+screening)   ...  24539 (   0.0 sec)
nearest neighbour list constructed           ...    0.0 sec
Grid point re-assignment to atoms done       ...    0.0 sec
Grid point division into batches done        ...    0.0 sec
Reduced shell lists constructed in    0.1 sec

Total number of grid points                  ...    24539
Total number of batches                      ...      396
Average number of points per batch           ...       61
Average number of grid points per atom       ...     1022
Average number of shells per batch           ...    78.55 (51.68%)
Average number of basis functions per batch  ...   161.00 (46.80%)
Average number of large shells per batch     ...    53.81 (68.50%)
Average number of large basis fcns per batch ...   104.73 (65.05%)
Maximum spatial batch extension              ...  16.16, 14.08, 12.94 au
Average spatial batch extension              ...   0.55,  0.49,  0.46 au

Time for grid setup =    0.092 sec

------------------------------
INITIAL GUESS: MODEL POTENTIAL
------------------------------
Loading Hartree-Fock densities                     ... done
Calculating cut-offs                               ... done
Setting up the integral package                    ... done
Initializing the effective Hamiltonian             ... done
Starting the Coulomb interaction                   ... done (   0.0 sec)
Reading the grid                                   ... done
Mapping shells                                     ... done
Starting the XC term evaluation                    ... done (   0.0 sec)
Transforming the Hamiltonian                       ... done (   0.0 sec)
Diagonalizing the Hamiltonian                      ... done (   0.0 sec)
Back transforming the eigenvectors                 ... done (   0.0 sec)
Now organizing SCF variables                       ... done
                      ------------------
                      INITIAL GUESS DONE (   0.3 sec)
                      ------------------
--------------
SCF ITERATIONS
--------------
ITER       Energy         Delta-E        Max-DP      RMS-DP      [F,P]     Damp
               ***  Starting incremental Fock matrix formation  ***
  0   -607.8440703663   0.000000000000 0.04272171  0.00082651  0.3400156 0.7000
  1   -608.1090140569  -0.264943690555 0.02799766  0.00057347  0.2169416 0.7000
                               ***Turning on DIIS***
  2   -608.2499376106  -0.140923553681 0.01607842  0.00032200  0.1638049 0.7000
  3   -609.5577702564  -1.307832645860 0.00731933  0.00014839  0.1218564 0.7000
  4   -609.2923872556   0.265383000841 0.01589356  0.00034179  0.0861167 0.0000
  5   -608.5710864453   0.721300810345 0.00219698  0.00005410  0.0053541 0.0000
                      *** Initiating the SOSCF procedure ***
                           *** Shutting down DIIS ***
                      *** Re-Reading the Fockian *** 
                      *** Removing any level shift *** 
ITER      Energy       Delta-E        Grad      Rot      Max-DP    RMS-DP
  6   -608.53289470   0.0381917459  0.000812  0.000812  0.001382  0.000033
               *** Restarting incremental Fock matrix formation ***
  7   -608.52248976   0.0104049435  0.000265  0.000356  0.000675  0.000015
  8   -608.52250089  -0.0000111358  0.000157  0.000320  0.000553  0.000013
  9   -608.52250366  -0.0000027684  0.000085  0.000053  0.000115  0.000002
 10   -608.52250389  -0.0000002272  0.000012  0.000007  0.000020  0.000000
                  ***Gradient check signals convergence***
              ***Rediagonalizing the Fockian in SOSCF/NRSCF***

               *****************************************************
               *                     SUCCESS                       *
               *           SCF CONVERGED AFTER  11 CYCLES          *
               *****************************************************


----------------
TOTAL SCF ENERGY
----------------

Total Energy       :         -608.52250389 Eh          -16558.73916 eV

Components:
Nuclear Repulsion  :          471.27076504 Eh           12823.92947 eV
Electronic Energy  :        -1079.79326893 Eh          -29382.66863 eV
One Electron Energy:        -1779.76121084 Eh          -48429.76467 eV
Two Electron Energy:          699.96794191 Eh           19047.09603 eV

Virial components:
Potential Energy   :        -1216.28307046 Eh          -33096.74495 eV
Kinetic Energy     :          607.76056657 Eh           16538.00579 eV
Virial Ratio       :            2.00125368


---------------
SCF CONVERGENCE
---------------

  Last Energy change         ...   -5.3267e-09  Tolerance :   1.0000e-08
  Last MAX-Density change    ...    6.3871e-06  Tolerance :   1.0000e-07
  Last RMS-Density change    ...    1.3326e-07  Tolerance :   5.0000e-09
  Last Orbital Gradient      ...    2.0609e-06  Tolerance :   1.0000e-05
  Last Orbital Rotation      ...    2.9735e-06  Tolerance :   1.0000e-05

             **** THE GBW FILE WAS UPDATED (12h2o.su.etal.mol2,3,5,6,7,8,10,11-orca.engrad-mp2.def2tzvp.frozencore.gbw) ****
             **** DENSITY FILE WAS UPDATED (12h2o.su.etal.mol2,3,5,6,7,8,10,11-orca.engrad-mp2.def2tzvp.frozencore.scfp) ****
             **** ENERGY FILE WAS UPDATED (12h2o.su.etal.mol2,3,5,6,7,8,10,11-orca.engrad-mp2.def2tzvp.frozencore.en.tmp) ****
             **** THE GBW FILE WAS UPDATED (12h2o.su.etal.mol2,3,5,6,7,8,10,11-orca.engrad-mp2.def2tzvp.frozencore.gbw) ****
             **** DENSITY FILE WAS UPDATED (12h2o.su.etal.mol2,3,5,6,7,8,10,11-orca.engrad-mp2.def2tzvp.frozencore.scfp) ****
----------------
ORBITAL ENERGIES
----------------

  NO   OCC          E(Eh)            E(eV) 
   0   2.0000     -20.619812      -561.0936 
   1   2.0000     -20.580091      -560.0127 
   2   2.0000     -20.565323      -559.6109 
   3   2.0000     -20.557625      -559.4014 
   4   2.0000     -20.557594      -559.4006 
   5   2.0000     -20.546677      -559.1035 
   6   2.0000     -20.544335      -559.0398 
   7   2.0000     -20.543408      -559.0146 
   8   2.0000      -1.403137       -38.1813 
   9   2.0000      -1.362811       -37.0840 
  10   2.0000      -1.358995       -36.9801 
  11   2.0000      -1.348466       -36.6936 
  12   2.0000      -1.342515       -36.5317 
  13   2.0000      -1.338635       -36.4261 
  14   2.0000      -1.328393       -36.1474 
  15   2.0000      -1.319198       -35.8972 
  16   2.0000      -0.761149       -20.7119 
  17   2.0000      -0.730728       -19.8841 
  18   2.0000      -0.722130       -19.6501 
  19   2.0000      -0.719781       -19.5862 
  20   2.0000      -0.713530       -19.4161 
  21   2.0000      -0.711730       -19.3671 
  22   2.0000      -0.705407       -19.1951 
  23   2.0000      -0.698196       -18.9989 
  24   2.0000      -0.649940       -17.6858 
  25   2.0000      -0.619557       -16.8590 
  26   2.0000      -0.602916       -16.4062 
  27   2.0000      -0.597656       -16.2630 
  28   2.0000      -0.595871       -16.2145 
  29   2.0000      -0.578079       -15.7303 
  30   2.0000      -0.573480       -15.6052 
  31   2.0000      -0.549026       -14.9398 
  32   2.0000      -0.541680       -14.7399 
  33   2.0000      -0.523860       -14.2550 
  34   2.0000      -0.511713       -13.9244 
  35   2.0000      -0.508591       -13.8395 
  36   2.0000      -0.504449       -13.7268 
  37   2.0000      -0.494387       -13.4530 
  38   2.0000      -0.493293       -13.4232 
  39   2.0000      -0.488649       -13.2968 
  40   0.0000       0.079835         2.1724 
  41   0.0000       0.124387         3.3847 
  42   0.0000       0.136091         3.7032 
  43   0.0000       0.151994         4.1360 
  44   0.0000       0.163452         4.4478 
  45   0.0000       0.191925         5.2225 
  46   0.0000       0.222109         6.0439 
  47   0.0000       0.237960         6.4752 
  48   0.0000       0.245276         6.6743 
  49   0.0000       0.254931         6.9370 
  50   0.0000       0.301282         8.1983 
  51   0.0000       0.311135         8.4664 
  52   0.0000       0.317068         8.6278 
  53   0.0000       0.339605         9.2411 
  54   0.0000       0.345710         9.4073 
  55   0.0000       0.357096         9.7171 
  56   0.0000       0.409553        11.1445 
  57   0.0000       0.470605        12.8058 
  58   0.0000       0.488987        13.3060 
  59   0.0000       0.497582        13.5399 
  60   0.0000       0.500402        13.6166 
  61   0.0000       0.513397        13.9702 
  62   0.0000       0.517082        14.0705 
  63   0.0000       0.533610        14.5203 
  64   0.0000       0.535444        14.5702 
  65   0.0000       0.543146        14.7797 
  66   0.0000       0.549577        14.9547 
  67   0.0000       0.557463        15.1693 
  68   0.0000       0.562422        15.3043 
  69   0.0000       0.577295        15.7090 
  70   0.0000       0.587702        15.9922 
  71   0.0000       0.610781        16.6202 
  72   0.0000       0.615145        16.7389 
  73   0.0000       0.625396        17.0179 
  74   0.0000       0.629482        17.1291 
  75   0.0000       0.647975        17.6323 
  76   0.0000       0.663573        18.0567 
  77   0.0000       0.691341        18.8123 
  78   0.0000       0.707825        19.2609 
  79   0.0000       0.717920        19.5356 
  80   0.0000       0.734448        19.9854 
  81   0.0000       0.744404        20.2563 
  82   0.0000       0.746546        20.3146 
  83   0.0000       0.768773        20.9194 
  84   0.0000       0.774297        21.0697 
  85   0.0000       0.777541        21.1580 
  86   0.0000       0.783357        21.3162 
  87   0.0000       0.801135        21.8000 
  88   0.0000       0.805235        21.9116 
  89   0.0000       0.821158        22.3449 
  90   0.0000       0.846435        23.0327 
  91   0.0000       0.856207        23.2986 
  92   0.0000       0.869845        23.6697 
  93   0.0000       0.883999        24.0548 
  94   0.0000       0.907475        24.6937 
  95   0.0000       0.912446        24.8289 
  96   0.0000       0.934324        25.4243 
  97   0.0000       0.978326        26.6216 
  98   0.0000       0.995200        27.0808 
  99   0.0000       1.048649        28.5352 
 100   0.0000       1.071299        29.1515 
 101   0.0000       1.084096        29.4998 
 102   0.0000       1.101125        29.9631 
 103   0.0000       1.206336        32.8261 
 104   0.0000       1.343694        36.5638 
 105   0.0000       1.355133        36.8750 
 106   0.0000       1.390950        37.8497 
 107   0.0000       1.391762        37.8718 
 108   0.0000       1.400019        38.0964 
 109   0.0000       1.417731        38.5784 
 110   0.0000       1.424101        38.7518 
 111   0.0000       1.429631        38.9022 
 112   0.0000       1.436335        39.0846 
 113   0.0000       1.439804        39.1791 
 114   0.0000       1.447633        39.3921 
 115   0.0000       1.470907        40.0254 
 116   0.0000       1.491424        40.5837 
 117   0.0000       1.521721        41.4081 
 118   0.0000       1.525044        41.4986 
 119   0.0000       1.534873        41.7660 
 120   0.0000       1.552691        42.2509 
 121   0.0000       1.572063        42.7780 
 122   0.0000       1.574581        42.8465 
 123   0.0000       1.588729        43.2315 
 124   0.0000       1.600791        43.5597 
 125   0.0000       1.636286        44.5256 
 126   0.0000       1.645632        44.7799 
 127   0.0000       1.665503        45.3207 
 128   0.0000       1.771912        48.2162 
 129   0.0000       1.801462        49.0203 
 130   0.0000       1.816396        49.4267 
 131   0.0000       1.849538        50.3285 
 132   0.0000       1.887935        51.3733 
 133   0.0000       1.898433        51.6590 
 134   0.0000       1.911962        52.0271 
 135   0.0000       1.922020        52.3008 
 136   0.0000       1.931272        52.5526 
 137   0.0000       1.943243        52.8783 
 138   0.0000       1.968534        53.5665 
 139   0.0000       1.974972        53.7417 
 140   0.0000       1.994061        54.2612 
 141   0.0000       2.006716        54.6055 
 142   0.0000       2.010291        54.7028 
 143   0.0000       2.028343        55.1940 
 144   0.0000       2.040599        55.5275 
 145   0.0000       2.073124        56.4126 
 146   0.0000       2.094917        57.0056 
 147   0.0000       2.132232        58.0210 
 148   0.0000       2.132494        58.0281 
 149   0.0000       2.166826        58.9623 
 150   0.0000       2.198985        59.8374 
 151   0.0000       2.216715        60.3199 
 152   0.0000       2.243696        61.0541 
 153   0.0000       2.256545        61.4037 
 154   0.0000       2.275614        61.9226 
 155   0.0000       2.289746        62.3072 
 156   0.0000       2.295362        62.4600 
 157   0.0000       2.304106        62.6979 
 158   0.0000       2.332244        63.4636 
 159   0.0000       2.337625        63.6100 
 160   0.0000       2.348281        63.9000 
 161   0.0000       2.360971        64.2453 
 162   0.0000       2.367576        64.4250 
 163   0.0000       2.385341        64.9084 
 164   0.0000       2.395753        65.1917 
 165   0.0000       2.411222        65.6127 
 166   0.0000       2.420112        65.8546 
 167   0.0000       2.421761        65.8995 
 168   0.0000       2.455152        66.8081 
 169   0.0000       2.480053        67.4857 
 170   0.0000       2.512271        68.3624 
 171   0.0000       2.537016        69.0357 
 172   0.0000       2.555431        69.5368 
 173   0.0000       2.566010        69.8247 
 174   0.0000       2.572000        69.9877 
 175   0.0000       2.604013        70.8588 
 176   0.0000       2.611570        71.0644 
 177   0.0000       2.615761        71.1785 
 178   0.0000       2.635188        71.7071 
 179   0.0000       2.643933        71.9451 
 180   0.0000       2.654334        72.2281 
 181   0.0000       2.657507        72.3145 
 182   0.0000       2.661183        72.4145 
 183   0.0000       2.677355        72.8545 
 184   0.0000       2.692550        73.2680 
 185   0.0000       2.698249        73.4231 
 186   0.0000       2.722905        74.0940 
 187   0.0000       2.742322        74.6224 
 188   0.0000       2.750793        74.8529 
 189   0.0000       2.774742        75.5046 
 190   0.0000       2.808026        76.4103 
 191   0.0000       2.834807        77.1390 
 192   0.0000       2.896245        78.8108 
 193   0.0000       2.919254        79.4370 
 194   0.0000       2.933468        79.8237 
 195   0.0000       2.934338        79.8474 
 196   0.0000       2.952233        80.3343 
 197   0.0000       2.960676        80.5641 
 198   0.0000       2.974273        80.9341 
 199   0.0000       2.988495        81.3211 
 200   0.0000       3.000646        81.6517 
 201   0.0000       3.022457        82.2452 
 202   0.0000       3.034938        82.5849 
 203   0.0000       3.043352        82.8138 
 204   0.0000       3.058854        83.2356 
 205   0.0000       3.065300        83.4110 
 206   0.0000       3.101776        84.4036 
 207   0.0000       3.108316        84.5816 
 208   0.0000       3.128736        85.1372 
 209   0.0000       3.138764        85.4101 
 210   0.0000       3.167013        86.1788 
 211   0.0000       3.173194        86.3470 
 212   0.0000       3.215644        87.5021 
 213   0.0000       3.247494        88.3688 
 214   0.0000       3.280331        89.2623 
 215   0.0000       3.296147        89.6927 
 216   0.0000       3.311318        90.1055 
 217   0.0000       3.330113        90.6170 
 218   0.0000       3.348903        91.1283 
 219   0.0000       3.397143        92.4410 
 220   0.0000       3.430980        93.3617 
 221   0.0000       3.486904        94.8835 
 222   0.0000       3.519339        95.7661 
 223   0.0000       3.560437        96.8844 
 224   0.0000       4.004024       108.9550 
 225   0.0000       4.011110       109.1478 
 226   0.0000       4.055175       110.3469 
 227   0.0000       4.067813       110.6908 
 228   0.0000       4.101026       111.5946 
 229   0.0000       4.135348       112.5285 
 230   0.0000       4.146040       112.8195 
 231   0.0000       4.201965       114.3413 
 232   0.0000       4.253403       115.7410 
 233   0.0000       4.292067       116.7931 
 234   0.0000       4.328020       117.7714 
 235   0.0000       4.333808       117.9289 
 236   0.0000       4.350050       118.3709 
 237   0.0000       4.362564       118.7114 
 238   0.0000       4.394680       119.5853 
 239   0.0000       4.407326       119.9294 
 240   0.0000       5.488455       149.3485 
 241   0.0000       5.530727       150.4987 
 242   0.0000       5.539402       150.7348 
 243   0.0000       5.542164       150.8099 
 244   0.0000       5.548216       150.9746 
 245   0.0000       5.551641       151.0678 
 246   0.0000       5.556378       151.1967 
 247   0.0000       5.557945       151.2394 
 248   0.0000       5.615287       152.7997 
 249   0.0000       5.635111       153.3392 
 250   0.0000       5.635977       153.3627 
 251   0.0000       5.656202       153.9131 
 252   0.0000       5.658838       153.9848 
 253   0.0000       5.686233       154.7303 
 254   0.0000       5.691558       154.8752 
 255   0.0000       5.706314       155.2767 
 256   0.0000       5.766221       156.9069 
 257   0.0000       5.792816       157.6305 
 258   0.0000       5.804212       157.9407 
 259   0.0000       5.807244       158.0231 
 260   0.0000       5.820859       158.3936 
 261   0.0000       5.826520       158.5477 
 262   0.0000       5.830502       158.6560 
 263   0.0000       5.836172       158.8103 
 264   0.0000       5.836592       158.8218 
 265   0.0000       5.838919       158.8851 
 266   0.0000       5.844037       159.0243 
 267   0.0000       5.851489       159.2271 
 268   0.0000       5.866319       159.6307 
 269   0.0000       5.870489       159.7441 
 270   0.0000       5.877092       159.9238 
 271   0.0000       5.880530       160.0174 
 272   0.0000       5.888271       160.2280 
 273   0.0000       5.896271       160.4457 
 274   0.0000       5.900137       160.5509 
 275   0.0000       5.902922       160.6267 
 276   0.0000       5.913730       160.9208 
 277   0.0000       5.919474       161.0771 
 278   0.0000       5.926379       161.2650 
 279   0.0000       5.946393       161.8096 
 280   0.0000       6.415253       174.5679 
 281   0.0000       6.469697       176.0494 
 282   0.0000       6.471893       176.1091 
 283   0.0000       6.473999       176.1665 
 284   0.0000       6.480316       176.3384 
 285   0.0000       6.493470       176.6963 
 286   0.0000       6.498413       176.8308 
 287   0.0000       6.513118       177.2310 
 288   0.0000       6.643076       180.7673 
 289   0.0000       6.674071       181.6107 
 290   0.0000       6.677221       181.6964 
 291   0.0000       6.700426       182.3279 
 292   0.0000       6.724465       182.9820 
 293   0.0000       6.738245       183.3570 
 294   0.0000       6.756488       183.8534 
 295   0.0000       6.788488       184.7241 
 296   0.0000       6.812157       185.3682 
 297   0.0000       6.833903       185.9600 
 298   0.0000       6.837028       186.0450 
 299   0.0000       6.849172       186.3754 
 300   0.0000       6.856918       186.5862 
 301   0.0000       6.865440       186.8181 
 302   0.0000       6.869383       186.9254 
 303   0.0000       6.882847       187.2918 
 304   0.0000       6.901698       187.8048 
 305   0.0000       6.913244       188.1189 
 306   0.0000       6.924633       188.4288 
 307   0.0000       6.929321       188.5564 
 308   0.0000       6.933745       188.6768 
 309   0.0000       6.936998       188.7653 
 310   0.0000       6.942833       188.9241 
 311   0.0000       6.959922       189.3891 
 312   0.0000       6.971691       189.7093 
 313   0.0000       6.993945       190.3149 
 314   0.0000       6.995849       190.3667 
 315   0.0000       7.004499       190.6021 
 316   0.0000       7.022919       191.1033 
 317   0.0000       7.065396       192.2592 
 318   0.0000       7.104371       193.3198 
 319   0.0000       7.135109       194.1562 
 320   0.0000       7.338089       199.6796 
 321   0.0000       7.351972       200.0573 
 322   0.0000       7.386053       200.9847 
 323   0.0000       7.401371       201.4015 
 324   0.0000       7.458359       202.9523 
 325   0.0000       7.483468       203.6355 
 326   0.0000       7.493041       203.8960 
 327   0.0000       7.503495       204.1805 
 328   0.0000       7.505285       204.2292 
 329   0.0000       7.511765       204.4055 
 330   0.0000       7.568164       205.9402 
 331   0.0000       7.572907       206.0693 
 332   0.0000       7.588212       206.4858 
 333   0.0000       7.592190       206.5940 
 334   0.0000       7.603846       206.9112 
 335   0.0000       7.621177       207.3828 
 336   0.0000      44.838294      1220.1120 
 337   0.0000      44.944233      1222.9947 
 338   0.0000      44.977551      1223.9014 
 339   0.0000      45.009813      1224.7793 
 340   0.0000      45.017194      1224.9801 
 341   0.0000      45.055280      1226.0165 
 342   0.0000      45.061780      1226.1934 
 343   0.0000      45.178176      1229.3607 

                    ********************************
                    * MULLIKEN POPULATION ANALYSIS *
                    ********************************

-----------------------
MULLIKEN ATOMIC CHARGES
-----------------------
   0 O :   -0.798180
   1 H :    0.360442
   2 H :    0.414621
   3 O :   -0.767340
   4 H :    0.403068
   5 H :    0.387618
   6 O :   -0.770588
   7 H :    0.379806
   8 H :    0.398075
   9 O :   -0.751257
  10 H :    0.386797
  11 H :    0.384307
  12 O :   -0.766568
  13 H :    0.340500
  14 H :    0.394090
  15 O :   -0.764749
  16 H :    0.395089
  17 H :    0.395472
  18 O :   -0.787986
  19 H :    0.349597
  20 H :    0.415589
  21 O :   -0.692221
  22 H :    0.345112
  23 H :    0.348705
Sum of atomic charges:    0.0000000

--------------------------------
MULLIKEN REDUCED ORBITAL CHARGES
--------------------------------
  0 O s       :     3.806255  s :     3.806255
      pz      :     1.725345  p :     4.968782
      px      :     1.796381
      py      :     1.447056
      dz2     :     0.003563  d :     0.021763
      dxz     :     0.004978
      dyz     :     0.004374
      dx2y2   :     0.002177
      dxy     :     0.006671
      f0      :     0.000080  f :     0.001380
      f+1     :     0.000169
      f-1     :     0.000314
      f+2     :     0.000061
      f-2     :     0.000346
      f+3     :     0.000328
      f-3     :     0.000081
  1 H s       :     0.594243  s :     0.594243
      pz      :     0.016872  p :     0.045314
      px      :     0.014730
      py      :     0.013712
  2 H s       :     0.529617  s :     0.529617
      pz      :     0.009760  p :     0.055762
      px      :     0.012971
      py      :     0.033031
  3 O s       :     3.792658  s :     3.792658
      pz      :     1.575071  p :     4.949493
      px      :     1.589425
      py      :     1.784996
      dz2     :     0.011633  d :     0.023849
      dxz     :     0.001189
      dyz     :     0.002192
      dx2y2   :     0.002285
      dxy     :     0.006550
      f0      :     0.000228  f :     0.001340
      f+1     :     0.000377
      f-1     :     0.000148
      f+2     :     0.000051
      f-2     :     0.000054
      f+3     :     0.000046
      f-3     :     0.000437
  4 H s       :     0.549313  s :     0.549313
      pz      :     0.024760  p :     0.047619
      px      :     0.011003
      py      :     0.011855
  5 H s       :     0.562735  s :     0.562735
      pz      :     0.009835  p :     0.049647
      px      :     0.024142
      py      :     0.015669
  6 O s       :     3.797155  s :     3.797155
      pz      :     1.605073  p :     4.948217
      px      :     1.834881
      py      :     1.508263
      dz2     :     0.011153  d :     0.023903
      dxz     :     0.002080
      dyz     :     0.002785
      dx2y2   :     0.003323
      dxy     :     0.004562
      f0      :     0.000148  f :     0.001313
      f+1     :     0.000106
      f-1     :     0.000450
      f+2     :     0.000066
      f-2     :     0.000039
      f+3     :     0.000409
      f-3     :     0.000095
  7 H s       :     0.566957  s :     0.566957
      pz      :     0.009735  p :     0.053237
      px      :     0.015021
      py      :     0.028480
  8 H s       :     0.553535  s :     0.553535
      pz      :     0.024986  p :     0.048390
      px      :     0.012510
      py      :     0.010895
  9 O s       :     3.805680  s :     3.805680
      pz      :     1.577103  p :     4.919705
      px      :     1.486701
      py      :     1.855901
      dz2     :     0.011109  d :     0.024440
      dxz     :     0.002640
      dyz     :     0.002112
      dx2y2   :     0.003510
      dxy     :     0.005069
      f0      :     0.000187  f :     0.001432
      f+1     :     0.000453
      f-1     :     0.000118
      f+2     :     0.000070
      f-2     :     0.000038
      f+3     :     0.000110
      f-3     :     0.000457
 10 H s       :     0.569664  s :     0.569664
      pz      :     0.019312  p :     0.043539
      px      :     0.011262
      py      :     0.012964
 11 H s       :     0.574269  s :     0.574269
      pz      :     0.008962  p :     0.041423
      px      :     0.018792
      py      :     0.013670
 12 O s       :     3.810040  s :     3.810040
      pz      :     1.531339  p :     4.932170
      px      :     1.520131
      py      :     1.880700
      dz2     :     0.010297  d :     0.022920
      dxz     :     0.002613
      dyz     :     0.002288
      dx2y2   :     0.002824
      dxy     :     0.004898
      f0      :     0.000207  f :     0.001438
      f+1     :     0.000434
      f-1     :     0.000124
      f+2     :     0.000077
      f-2     :     0.000037
      f+3     :     0.000114
      f-3     :     0.000444
 13 H s       :     0.614314  s :     0.614314
      pz      :     0.018402  p :     0.045186
      px      :     0.012397
      py      :     0.014387
 14 H s       :     0.552365  s :     0.552365
      pz      :     0.008713  p :     0.053545
      px      :     0.029539
      py      :     0.015293
 15 O s       :     3.792660  s :     3.792660
      pz      :     1.562341  p :     4.946778
      px      :     1.598224
      py      :     1.786213
      dz2     :     0.011818  d :     0.023972
      dxz     :     0.001246
      dyz     :     0.002213
      dx2y2   :     0.002242
      dxy     :     0.006453
      f0      :     0.000233  f :     0.001338
      f+1     :     0.000377
      f-1     :     0.000148
      f+2     :     0.000050
      f-2     :     0.000054
      f+3     :     0.000044
      f-3     :     0.000433
 16 H s       :     0.557234  s :     0.557234
      pz      :     0.024142  p :     0.047677
      px      :     0.011276
      py      :     0.012259
 17 H s       :     0.554909  s :     0.554909
      pz      :     0.009579  p :     0.049618
      px      :     0.024618
      py      :     0.015421
 18 O s       :     3.805799  s :     3.805799
      pz      :     1.732834  p :     4.958439
      px      :     1.782384
      py      :     1.443221
      dz2     :     0.003938  d :     0.022335
      dxz     :     0.005046
      dyz     :     0.004842
      dx2y2   :     0.002226
      dxy     :     0.006283
      f0      :     0.000089  f :     0.001414
      f+1     :     0.000176
      f-1     :     0.000330
      f+2     :     0.000060
      f-2     :     0.000355
      f+3     :     0.000323
      f-3     :     0.000080
 19 H s       :     0.604758  s :     0.604758
      pz      :     0.017121  p :     0.045645
      px      :     0.014880
      py      :     0.013644
 20 H s       :     0.528161  s :     0.528161
      pz      :     0.010177  p :     0.056250
      px      :     0.013002
      py      :     0.033071
 21 O s       :     3.814692  s :     3.814692
      pz      :     1.500750  p :     4.849564
      px      :     1.815918
      py      :     1.532896
      dz2     :     0.012355  d :     0.026431
      dxz     :     0.003085
      dyz     :     0.001272
      dx2y2   :     0.002159
      dxy     :     0.007561
      f0      :     0.000268  f :     0.001534
      f+1     :     0.000175
      f-1     :     0.000384
      f+2     :     0.000056
      f-2     :     0.000057
      f+3     :     0.000524
      f-3     :     0.000070
 22 H s       :     0.609823  s :     0.609823
      pz      :     0.018877  p :     0.045065
      px      :     0.013841
      py      :     0.012348
 23 H s       :     0.606769  s :     0.606769
      pz      :     0.010581  p :     0.044526
      px      :     0.015654
      py      :     0.018291


                     *******************************
                     * LOEWDIN POPULATION ANALYSIS *
                     *******************************

----------------------
LOEWDIN ATOMIC CHARGES
----------------------
   0 O :   -0.328317
   1 H :    0.158674
   2 H :    0.157224
   3 O :   -0.301504
   4 H :    0.162960
   5 H :    0.155382
   6 O :   -0.328079
   7 H :    0.147465
   8 H :    0.156575
   9 O :   -0.287549
  10 H :    0.180998
  11 H :    0.184401
  12 O :   -0.348957
  13 H :    0.158568
  14 H :    0.154436
  15 O :   -0.298861
  16 H :    0.158858
  17 H :    0.158968
  18 O :   -0.353747
  19 H :    0.154721
  20 H :    0.156808
  21 O :   -0.328512
  22 H :    0.162498
  23 H :    0.166991

-------------------------------
LOEWDIN REDUCED ORBITAL CHARGES
-------------------------------
  0 O s       :     3.454380  s :     3.454380
      pz      :     1.682946  p :     4.843798
      px      :     1.751447
      py      :     1.409406
      dz2     :     0.004603  d :     0.028199
      dxz     :     0.005097
      dyz     :     0.006631
      dx2y2   :     0.003548
      dxy     :     0.008321
      f0      :     0.000084  f :     0.001940
      f+1     :     0.000257
      f-1     :     0.000426
      f+2     :     0.000031
      f-2     :     0.000607
      f+3     :     0.000452
      f-3     :     0.000082
  1 H s       :     0.675786  s :     0.675786
      pz      :     0.066099  p :     0.165540
      px      :     0.053126
      py      :     0.046315
  2 H s       :     0.643077  s :     0.643077
      pz      :     0.033114  p :     0.199700
      px      :     0.047702
      py      :     0.118883
  3 O s       :     3.445783  s :     3.445783
      pz      :     1.544429  p :     4.824295
      px      :     1.552674
      py      :     1.727192
      dz2     :     0.014570  d :     0.029434
      dxz     :     0.001770
      dyz     :     0.001666
      dx2y2   :     0.003357
      dxy     :     0.008071
      f0      :     0.000410  f :     0.001993
      f+1     :     0.000538
      f-1     :     0.000319
      f+2     :     0.000019
      f-2     :     0.000048
      f+3     :     0.000025
      f-3     :     0.000635
  4 H s       :     0.664783  s :     0.664783
      pz      :     0.093973  p :     0.172258
      px      :     0.036911
      py      :     0.041374
  5 H s       :     0.668974  s :     0.668974
      pz      :     0.031099  p :     0.175644
      px      :     0.086593
      py      :     0.057952
  6 O s       :     3.455454  s :     3.455454
      pz      :     1.577717  p :     4.841702
      px      :     1.781253
      py      :     1.482731
      dz2     :     0.013498  d :     0.029016
      dxz     :     0.001218
      dyz     :     0.003626
      dx2y2   :     0.004912
      dxy     :     0.005762
      f0      :     0.000323  f :     0.001907
      f+1     :     0.000192
      f-1     :     0.000697
      f+2     :     0.000036
      f-2     :     0.000043
      f+3     :     0.000549
      f-3     :     0.000067
  7 H s       :     0.667747  s :     0.667747
      pz      :     0.030841  p :     0.184789
      px      :     0.052558
      py      :     0.101389
  8 H s       :     0.668910  s :     0.668910
      pz      :     0.094440  p :     0.174515
      px      :     0.042665
      py      :     0.037411
  9 O s       :     3.460196  s :     3.460196
      pz      :     1.541469  p :     4.793354
      px      :     1.461373
      py      :     1.790513
      dz2     :     0.015216  d :     0.031932
      dxz     :     0.003893
      dyz     :     0.001326
      dx2y2   :     0.005146
      dxy     :     0.006351
      f0      :     0.000367  f :     0.002067
      f+1     :     0.000731
      f-1     :     0.000206
      f+2     :     0.000040
      f-2     :     0.000045
      f+3     :     0.000073
      f-3     :     0.000605
 10 H s       :     0.659825  s :     0.659825
      pz      :     0.081241  p :     0.159177
      px      :     0.035473
      py      :     0.042463
 11 H s       :     0.660767  s :     0.660767
      pz      :     0.029155  p :     0.154832
      px      :     0.076378
      py      :     0.049298
 12 O s       :     3.463105  s :     3.463105
      pz      :     1.521631  p :     4.854090
      px      :     1.491699
      py      :     1.840760
      dz2     :     0.014668  d :     0.029746
      dxz     :     0.004285
      dyz     :     0.001590
      dx2y2   :     0.003558
      dxy     :     0.005644
      f0      :     0.000413  f :     0.002016
      f+1     :     0.000735
      f-1     :     0.000186
      f+2     :     0.000046
      f-2     :     0.000046
      f+3     :     0.000063
      f-3     :     0.000527
 13 H s       :     0.682624  s :     0.682624
      pz      :     0.078302  p :     0.158808
      px      :     0.036978
      py      :     0.043528
 14 H s       :     0.656989  s :     0.656989
      pz      :     0.028674  p :     0.188575
      px      :     0.107232
      py      :     0.052670
 15 O s       :     3.445842  s :     3.445842
      pz      :     1.536569  p :     4.821397
      px      :     1.557406
      py      :     1.727422
      dz2     :     0.014998  d :     0.029628
      dxz     :     0.001901
      dyz     :     0.001699
      dx2y2   :     0.003266
      dxy     :     0.007765
      f0      :     0.000428  f :     0.001994
      f+1     :     0.000539
      f-1     :     0.000317
      f+2     :     0.000019
      f-2     :     0.000049
      f+3     :     0.000025
      f-3     :     0.000617
 16 H s       :     0.670068  s :     0.670068
      pz      :     0.091923  p :     0.171073
      px      :     0.037302
      py      :     0.041849
 17 H s       :     0.663988  s :     0.663988
      pz      :     0.030571  p :     0.177045
      px      :     0.088469
      py      :     0.058005
 18 O s       :     3.459687  s :     3.459687
      pz      :     1.710538  p :     4.863927
      px      :     1.745739
      py      :     1.407650
      dz2     :     0.004199  d :     0.028188
      dxz     :     0.005198
      dyz     :     0.007037
      dx2y2   :     0.003629
      dxy     :     0.008124
      f0      :     0.000073  f :     0.001946
      f+1     :     0.000260
      f-1     :     0.000432
      f+2     :     0.000031
      f-2     :     0.000621
      f+3     :     0.000446
      f-3     :     0.000082
 19 H s       :     0.680372  s :     0.680372
      pz      :     0.065808  p :     0.164907
      px      :     0.052925
      py      :     0.046174
 20 H s       :     0.644416  s :     0.644416
      pz      :     0.033077  p :     0.198775
      px      :     0.047556
      py      :     0.118143
 21 O s       :     3.472950  s :     3.472950
      pz      :     1.507400  p :     4.819554
      px      :     1.787436
      py      :     1.524718
      dz2     :     0.016914  d :     0.033783
      dxz     :     0.002508
      dyz     :     0.002118
      dx2y2   :     0.002363
      dxy     :     0.009881
      f0      :     0.000494  f :     0.002226
      f+1     :     0.000327
      f-1     :     0.000598
      f+2     :     0.000026
      f-2     :     0.000047
      f+3     :     0.000729
      f-3     :     0.000003
 22 H s       :     0.679649  s :     0.679649
      pz      :     0.080256  p :     0.157853
      px      :     0.042257
      py      :     0.035340
 23 H s       :     0.676530  s :     0.676530
      pz      :     0.029721  p :     0.156479
      px      :     0.054769
      py      :     0.071989


                      *****************************
                      * MAYER POPULATION ANALYSIS *
                      *****************************

  NA   - Mulliken gross atomic population
  ZA   - Total nuclear charge
  QA   - Mulliken gross atomic charge
  VA   - Mayer's total valence
  BVA  - Mayer's bonded valence
  FA   - Mayer's free valence

  ATOM       NA         ZA         QA         VA         BVA        FA
  0 O      8.7982     8.0000    -0.7982     1.6669     1.6669     0.0000
  1 H      0.6396     1.0000     0.3604     0.8875     0.8875     0.0000
  2 H      0.5854     1.0000     0.4146     0.8696     0.8696     0.0000
  3 O      8.7673     8.0000    -0.7673     1.7253     1.7253    -0.0000
  4 H      0.5969     1.0000     0.4031     0.8643     0.8643    -0.0000
  5 H      0.6124     1.0000     0.3876     0.8846     0.8846     0.0000
  6 O      8.7706     8.0000    -0.7706     1.7112     1.7112    -0.0000
  7 H      0.6202     1.0000     0.3798     0.8904     0.8904    -0.0000
  8 H      0.6019     1.0000     0.3981     0.8718     0.8718    -0.0000
  9 O      8.7513     8.0000    -0.7513     1.7509     1.7509    -0.0000
 10 H      0.6132     1.0000     0.3868     0.8671     0.8671     0.0000
 11 H      0.6157     1.0000     0.3843     0.8740     0.8740     0.0000
 12 O      8.7666     8.0000    -0.7666     1.6931     1.6931    -0.0000
 13 H      0.6595     1.0000     0.3405     0.9024     0.9024     0.0000
 14 H      0.6059     1.0000     0.3941     0.8889     0.8889     0.0000
 15 O      8.7647     8.0000    -0.7647     1.7238     1.7238     0.0000
 16 H      0.6049     1.0000     0.3951     0.8637     0.8637    -0.0000
 17 H      0.6045     1.0000     0.3955     0.8841     0.8841     0.0000
 18 O      8.7880     8.0000    -0.7880     1.6783     1.6783     0.0000
 19 H      0.6504     1.0000     0.3496     0.8946     0.8946     0.0000
 20 H      0.5844     1.0000     0.4156     0.8673     0.8673     0.0000
 21 O      8.6922     8.0000    -0.6922     1.7852     1.7852     0.0000
 22 H      0.6549     1.0000     0.3451     0.8969     0.8969     0.0000
 23 H      0.6513     1.0000     0.3487     0.8952     0.8952    -0.0000

  Mayer bond orders larger than 0.100000
B(  0-O ,  1-H ) :   0.8774 B(  0-O ,  2-H ) :   0.7644 B(  3-O ,  4-H ) :   0.8332 
B(  3-O ,  5-H ) :   0.8369 B(  6-O ,  7-H ) :   0.8360 B(  6-O ,  8-H ) :   0.8341 
B(  9-O , 10-H ) :   0.8578 B(  9-O , 11-H ) :   0.8520 B( 12-O , 13-H ) :   0.8921 
B( 12-O , 14-H ) :   0.7952 B( 15-O , 16-H ) :   0.8472 B( 15-O , 17-H ) :   0.8201 
B( 18-O , 19-H ) :   0.8862 B( 18-O , 20-H ) :   0.7724 B( 21-O , 22-H ) :   0.8891 
B( 21-O , 23-H ) :   0.8870 

-------
TIMINGS
-------

Total SCF time: 0 days 0 hours 0 min 28 sec 

Total time                  ....      28.958 sec
Sum of individual times     ....      28.652 sec  ( 98.9%)

Fock matrix formation       ....      28.045 sec  ( 96.8%)
Diagonalization             ....       0.145 sec  (  0.5%)
Density matrix formation    ....       0.017 sec  (  0.1%)
Population analysis         ....       0.033 sec  (  0.1%)
Initial guess               ....       0.198 sec  (  0.7%)
Orbital Transformation      ....       0.000 sec  (  0.0%)
Orbital Orthonormalization  ....       0.000 sec  (  0.0%)
DIIS solution               ....       0.057 sec  (  0.2%)
SOSCF solution              ....       0.064 sec  (  0.2%)


           ************************************************************
           *        Program running with 6 parallel MPI-processes     *
           *              working on a common directory               *
           ************************************************************

------------------------------------------------------------------------------
                                ORCA  MP2 
------------------------------------------------------------------------------

Freezing NCore=16 chemical core electrons
MP2 will be done in the AO integral direct mode
The Q1-step will be done using symmetric double matrices
Dimension of the basis                    ...  344
Memory devoted for MP2                    ... 8000 MB   
Memory needed for all in one shot         ...  935 MB
Number of MOs that can be treated together...   50      
MP2 density construction                  ... relaxed
The MP2 gradient is requested => amplitudes will be stored on disk
Total number of MOs              ...   32
Number of MOs treated per batch  ...    6 
Number of batches necessary      ...    1 
OPERATORS   0/  0 PASS   0
-----------------------------------------------
 MP2 CORRELATION ENERGY   :     -2.074519665 Eh
-----------------------------------------------


---------------------
MP2 DENSITY FORMATION
---------------------

Completing the external part of the density      ... done
Storing the unrelaxed density                    ... done

Calculating G(D)                                 ... done
Completing the Lagrangian                        ... done
Solving the Z-vector equations                   ... 

------------------------------------------------------------------------------
                           ORCA CP-SCF CALCULATION
------------------------------------------------------------------------------

Input orbitals are from        ... 12h2o.su.etal.mol2,3,5,6,7,8,10,11-orca.engrad-mp2.def2tzvp.frozencore.gbw
Input Perturbation             ... 12h2o.su.etal.mol2,3,5,6,7,8,10,11-orca.engrad-mp2.def2tzvp.frozencore.pin.tmp
Wavefunction output            ... 12h2o.su.etal.mol2,3,5,6,7,8,10,11-orca.engrad-mp2.def2tzvp.frozencore.pout.tmp
Perturbation mode              ... Real perturbation (singlet)
Solver                         ... POPLE
Max. number of iterations      ... 128
Convergence tolerance          ... 1.000e-08
Integral handling              ... Direct
Number of perturbations        ... 1
Number of operators            ... 1
Orbital ranges used for CP-SCF:
 Operator 0:  Orbitals   0... 39  to  40...343
Variables per vector in CP-SCF ... 12160
Number of vectors sought       ... 1
     CP-SCF ITERATION   0: 
     CP-SCF ITERATION   1:      0.001063032773
     CP-SCF ITERATION   2:      0.000030579266
     CP-SCF ITERATION   3:      0.000001803613
     CP-SCF ITERATION   4:      0.000000154929
     CP-SCF ITERATION   5:      0.000000013034
     CP-SCF ITERATION   6:      0.000000000918
                                                 ... done
Finalizing the relaxed density                   ... done
Transforming P to the AO basis                   ... done
Storing the relaxed density                      ... done

------------------------------------
ENERGY WEIGHTED DENSITY FINALIZATION
------------------------------------

Gathering the parts of the W-matrix              ...                                                      done
Forming the Z-density                            ... done
Transforming Z to the AO basis                   ... done
Calculating G(Z)                                 ... done
Finalizing the W-matrix                          ...                                                      done
Transforming W to the AO basis and storing       ... done

                *********************************************
                * UNRELAXED MP2 DENSITY POPULATION ANALYSIS *
                *********************************************

------------------------------------------------------------------------------
                           ORCA POPULATION ANALYSIS
------------------------------------------------------------------------------
Input electron density              ... 12h2o.su.etal.mol2,3,5,6,7,8,10,11-orca.engrad-mp2.def2tzvp.frozencore.pmp2ur
BaseName (.gbw .S,...)              ... 12h2o.su.etal.mol2,3,5,6,7,8,10,11-orca.engrad-mp2.def2tzvp.frozencore

                    ********************************
                    * MULLIKEN POPULATION ANALYSIS *
                    ********************************

-----------------------
MULLIKEN ATOMIC CHARGES
-----------------------
   0 O :   -0.791400
   1 H :    0.358093
   2 H :    0.409479
   3 O :   -0.760005
   4 H :    0.400053
   5 H :    0.384048
   6 O :   -0.763006
   7 H :    0.375537
   8 H :    0.394846
   9 O :   -0.745012
  10 H :    0.384447
  11 H :    0.381291
  12 O :   -0.760524
  13 H :    0.338053
  14 H :    0.389300
  15 O :   -0.757322
  16 H :    0.392259
  17 H :    0.391748
  18 O :   -0.781568
  19 H :    0.347299
  20 H :    0.410699
  21 O :   -0.687236
  22 H :    0.342659
  23 H :    0.346262
Sum of atomic charges:   -0.0000000

--------------------------------
MULLIKEN REDUCED ORBITAL CHARGES
--------------------------------
  0 O s       :     3.801269  s :     3.801269
      pz      :     1.714178  p :     4.936367
      px      :     1.784214
      py      :     1.437975
      dz2     :     0.009267  d :     0.049785
      dxz     :     0.010539
      dyz     :     0.009920
      dx2y2   :     0.007867
      dxy     :     0.012193
      f0      :     0.000454  f :     0.003979
      f+1     :     0.000537
      f-1     :     0.000682
      f+2     :     0.000433
      f-2     :     0.000714
      f+3     :     0.000699
      f-3     :     0.000459
  1 H s       :     0.594990  s :     0.594990
      pz      :     0.017339  p :     0.046917
      px      :     0.015422
      py      :     0.014156
  2 H s       :     0.533159  s :     0.533159
      pz      :     0.010555  p :     0.057361
      px      :     0.013664
      py      :     0.033143
  3 O s       :     3.787494  s :     3.787494
      pz      :     1.565266  p :     4.916960
      px      :     1.579505
      py      :     1.772189
      dz2     :     0.016929  d :     0.051597
      dxz     :     0.006724
      dyz     :     0.007859
      dx2y2   :     0.008034
      dxy     :     0.012051
      f0      :     0.000613  f :     0.003953
      f+1     :     0.000749
      f-1     :     0.000527
      f+2     :     0.000416
      f-2     :     0.000424
      f+3     :     0.000423
      f-3     :     0.000801
  4 H s       :     0.550862  s :     0.550862
      pz      :     0.024797  p :     0.049085
      px      :     0.011650
      py      :     0.012637
  5 H s       :     0.564777  s :     0.564777
      pz      :     0.010612  p :     0.051175
      px      :     0.024337
      py      :     0.016226
  6 O s       :     3.791883  s :     3.791883
      pz      :     1.595008  p :     4.915528
      px      :     1.821722
      py      :     1.498798
      dz2     :     0.016480  d :     0.051675
      dxz     :     0.007783
      dyz     :     0.008268
      dx2y2   :     0.009011
      dxy     :     0.010134
      f0      :     0.000537  f :     0.003921
      f+1     :     0.000483
      f-1     :     0.000821
      f+2     :     0.000434
      f-2     :     0.000408
      f+3     :     0.000770
      f-3     :     0.000468
  7 H s       :     0.569511  s :     0.569511
      pz      :     0.010581  p :     0.054952
      px      :     0.015720
      py      :     0.028651
  8 H s       :     0.555253  s :     0.555253
      pz      :     0.025082  p :     0.049900
      px      :     0.013325
      py      :     0.011493
  9 O s       :     3.800610  s :     3.800610
      pz      :     1.567437  p :     4.888473
      px      :     1.477848
      py      :     1.843188
      dz2     :     0.016430  d :     0.051914
      dxz     :     0.008039
      dyz     :     0.007792
      dx2y2   :     0.009079
      dxy     :     0.010574
      f0      :     0.000571  f :     0.004015
      f+1     :     0.000819
      f-1     :     0.000494
      f+2     :     0.000435
      f-2     :     0.000404
      f+3     :     0.000479
      f-3     :     0.000813
 10 H s       :     0.570532  s :     0.570532
      pz      :     0.019423  p :     0.045021
      px      :     0.011825
      py      :     0.013773
 11 H s       :     0.575810  s :     0.575810
      pz      :     0.009741  p :     0.042899
      px      :     0.018784
      py      :     0.014374
 12 O s       :     3.805015  s :     3.805015
      pz      :     1.522014  p :     4.901165
      px      :     1.510604
      py      :     1.868547
      dz2     :     0.015607  d :     0.050330
      dxz     :     0.008069
      dyz     :     0.007903
      dx2y2   :     0.008383
      dxy     :     0.010368
      f0      :     0.000588  f :     0.004015
      f+1     :     0.000803
      f-1     :     0.000495
      f+2     :     0.000441
      f-2     :     0.000404
      f+3     :     0.000482
      f-3     :     0.000802
 13 H s       :     0.615078  s :     0.615078
      pz      :     0.018560  p :     0.046869
      px      :     0.013043
      py      :     0.015266
 14 H s       :     0.555556  s :     0.555556
      pz      :     0.009491  p :     0.055145
      px      :     0.029670
      py      :     0.015984
 15 O s       :     3.787458  s :     3.787458
      pz      :     1.552664  p :     4.914197
      px      :     1.588214
      py      :     1.773319
      dz2     :     0.017096  d :     0.051715
      dxz     :     0.006771
      dyz     :     0.007882
      dx2y2   :     0.007996
      dxy     :     0.011970
      f0      :     0.000618  f :     0.003952
      f+1     :     0.000748
      f-1     :     0.000527
      f+2     :     0.000415
      f-2     :     0.000423
      f+3     :     0.000422
      f-3     :     0.000798
 16 H s       :     0.558531  s :     0.558531
      pz      :     0.024211  p :     0.049210
      px      :     0.011936
      py      :     0.013063
 17 H s       :     0.557165  s :     0.557165
      pz      :     0.010334  p :     0.051087
      px      :     0.024794
      py      :     0.015958
 18 O s       :     3.800806  s :     3.800806
      pz      :     1.722180  p :     4.926831
      px      :     1.770283
      py      :     1.434367
      dz2     :     0.009472  d :     0.049932
      dxz     :     0.010515
      dyz     :     0.010267
      dx2y2   :     0.007882
      dxy     :     0.011797
      f0      :     0.000459  f :     0.003998
      f+1     :     0.000541
      f-1     :     0.000696
      f+2     :     0.000431
      f-2     :     0.000721
      f+3     :     0.000692
      f-3     :     0.000457
 19 H s       :     0.605409  s :     0.605409
      pz      :     0.017608  p :     0.047292
      px      :     0.015583
      py      :     0.014100
 20 H s       :     0.531444  s :     0.531444
      pz      :     0.010983  p :     0.057857
      px      :     0.013690
      py      :     0.033184
 21 O s       :     3.809887  s :     3.809887
      pz      :     1.491902  p :     4.820546
      px      :     1.804634
      py      :     1.524010
      dz2     :     0.017302  d :     0.052725
      dxz     :     0.008485
      dyz     :     0.006589
      dx2y2   :     0.007599
      dxy     :     0.012751
      f0      :     0.000642  f :     0.004079
      f+1     :     0.000544
      f-1     :     0.000746
      f+2     :     0.000413
      f-2     :     0.000419
      f+3     :     0.000876
      f-3     :     0.000437
 22 H s       :     0.610628  s :     0.610628
      pz      :     0.018961  p :     0.046713
      px      :     0.014707
      py      :     0.013045
 23 H s       :     0.607580  s :     0.607580
      pz      :     0.011367  p :     0.046158
      px      :     0.016327
      py      :     0.018464


                     *******************************
                     * LOEWDIN POPULATION ANALYSIS *
                     *******************************

----------------------
LOEWDIN ATOMIC CHARGES
----------------------
   0 O :   -0.324152
   1 H :    0.157334
   2 H :    0.154453
   3 O :   -0.297172
   4 H :    0.161056
   5 H :    0.153090
   6 O :   -0.323793
   7 H :    0.144846
   8 H :    0.154452
   9 O :   -0.282789
  10 H :    0.179631
  11 H :    0.182508
  12 O :   -0.345659
  13 H :    0.156961
  14 H :    0.151737
  15 O :   -0.294453
  16 H :    0.156964
  17 H :    0.156667
  18 O :   -0.350287
  19 H :    0.153426
  20 H :    0.154135
  21 O :   -0.325527
  22 H :    0.161013
  23 H :    0.165557

-------------------------------
LOEWDIN REDUCED ORBITAL CHARGES
-------------------------------
  0 O s       :     3.450754  s :     3.450754
      pz      :     1.671322  p :     4.811298
      px      :     1.739198
      py      :     1.400778
      dz2     :     0.010434  d :     0.057363
      dxz     :     0.011003
      dyz     :     0.012393
      dx2y2   :     0.009333
      dxy     :     0.014200
      f0      :     0.000470  f :     0.004737
      f+1     :     0.000645
      f-1     :     0.000843
      f+2     :     0.000411
      f-2     :     0.001019
      f+3     :     0.000875
      f-3     :     0.000474
  1 H s       :     0.674002  s :     0.674002
      pz      :     0.067317  p :     0.168664
      px      :     0.054101
      py      :     0.047246
  2 H s       :     0.643548  s :     0.643548
      pz      :     0.033937  p :     0.202000
      px      :     0.048537
      py      :     0.119526
  3 O s       :     3.442079  s :     3.442079
      pz      :     1.534678  p :     4.792059
      px      :     1.542869
      py      :     1.714513
      dz2     :     0.020536  d :     0.058229
      dxz     :     0.007258
      dyz     :     0.007263
      dx2y2   :     0.009070
      dxy     :     0.014101
      f0      :     0.000837  f :     0.004805
      f+1     :     0.000964
      f-1     :     0.000721
      f+2     :     0.000389
      f-2     :     0.000425
      f+3     :     0.000407
      f-3     :     0.001061
  4 H s       :     0.663943  s :     0.663943
      pz      :     0.095194  p :     0.175001
      px      :     0.037661
      py      :     0.042145
  5 H s       :     0.668414  s :     0.668414
      pz      :     0.031874  p :     0.178496
      px      :     0.087760
      py      :     0.058862
  6 O s       :     3.451750  s :     3.451750
      pz      :     1.567734  p :     4.809441
      px      :     1.768263
      py      :     1.473443
      dz2     :     0.019448  d :     0.057887
      dxz     :     0.006844
      dyz     :     0.009146
      dx2y2   :     0.010772
      dxy     :     0.011677
      f0      :     0.000743  f :     0.004715
      f+1     :     0.000585
      f-1     :     0.001139
      f+2     :     0.000411
      f-2     :     0.000418
      f+3     :     0.000968
      f-3     :     0.000451
  7 H s       :     0.667472  s :     0.667472
      pz      :     0.031698  p :     0.187682
      px      :     0.053430
      py      :     0.102554
  8 H s       :     0.668214  s :     0.668214
      pz      :     0.095728  p :     0.177334
      px      :     0.043419
      py      :     0.038187
  9 O s       :     3.456333  s :     3.456333
      pz      :     1.531165  p :     4.761160
      px      :     1.452237
      py      :     1.777758
      dz2     :     0.021156  d :     0.060450
      dxz     :     0.009325
      dyz     :     0.006927
      dx2y2   :     0.010895
      dxy     :     0.012147
      f0      :     0.000784  f :     0.004846
      f+1     :     0.001166
      f-1     :     0.000598
      f+2     :     0.000412
      f-2     :     0.000417
      f+3     :     0.000453
      f-3     :     0.001017
 10 H s       :     0.658326  s :     0.658326
      pz      :     0.082627  p :     0.162043
      px      :     0.036191
      py      :     0.043225
 11 H s       :     0.659715  s :     0.659715
      pz      :     0.029956  p :     0.157777
      px      :     0.077614
      py      :     0.050207
 12 O s       :     3.459412  s :     3.459412
      pz      :     1.511473  p :     4.823149
      px      :     1.482493
      py      :     1.829183
      dz2     :     0.020626  d :     0.058309
      dxz     :     0.009770
      dyz     :     0.007146
      dx2y2   :     0.009311
      dxy     :     0.011456
      f0      :     0.000827  f :     0.004789
      f+1     :     0.001172
      f-1     :     0.000574
      f+2     :     0.000417
      f-2     :     0.000419
      f+3     :     0.000441
      f-3     :     0.000939
 13 H s       :     0.680900  s :     0.680900
      pz      :     0.079996  p :     0.162138
      px      :     0.037812
      py      :     0.044330
 14 H s       :     0.657075  s :     0.657075
      pz      :     0.029478  p :     0.191188
      px      :     0.108223
      py      :     0.053487
 15 O s       :     3.442130  s :     3.442130
      pz      :     1.526807  p :     4.789096
      px      :     1.547603
      py      :     1.714686
      dz2     :     0.020956  d :     0.058421
      dxz     :     0.007386
      dyz     :     0.007299
      dx2y2   :     0.008982
      dxy     :     0.013799
      f0      :     0.000855  f :     0.004806
      f+1     :     0.000966
      f-1     :     0.000720
      f+2     :     0.000389
      f-2     :     0.000426
      f+3     :     0.000408
      f-3     :     0.001042
 16 H s       :     0.669058  s :     0.669058
      pz      :     0.093255  p :     0.173978
      px      :     0.038080
      py      :     0.042643
 17 H s       :     0.663576  s :     0.663576
      pz      :     0.031319  p :     0.179756
      px      :     0.089566
      py      :     0.058871
 18 O s       :     3.456050  s :     3.456050
      pz      :     1.699909  p :     4.832647
      px      :     1.733545
      py      :     1.399193
      dz2     :     0.009850  d :     0.056864
      dxz     :     0.010987
      dyz     :     0.012688
      dx2y2   :     0.009370
      dxy     :     0.013970
      f0      :     0.000453  f :     0.004726
      f+1     :     0.000645
      f-1     :     0.000847
      f+2     :     0.000410
      f-2     :     0.001031
      f+3     :     0.000868
      f-3     :     0.000473
 19 H s       :     0.678478  s :     0.678478
      pz      :     0.067062  p :     0.168096
      px      :     0.053902
      py      :     0.047131
 20 H s       :     0.644801  s :     0.644801
      pz      :     0.033892  p :     0.201063
      px      :     0.048375
      py      :     0.118796
 21 O s       :     3.469179  s :     3.469179
      pz      :     1.498171  p :     4.790214
      px      :     1.776461
      py      :     1.515582
      dz2     :     0.022583  d :     0.061170
      dxz     :     0.007847
      dyz     :     0.007368
      dx2y2   :     0.007789
      dxy     :     0.015584
      f0      :     0.000909  f :     0.004963
      f+1     :     0.000720
      f-1     :     0.001015
      f+2     :     0.000388
      f-2     :     0.000417
      f+3     :     0.001139
      f-3     :     0.000375
 22 H s       :     0.677917  s :     0.677917
      pz      :     0.081899  p :     0.161070
      px      :     0.043085
      py      :     0.036086
 23 H s       :     0.674799  s :     0.674799
      pz      :     0.030458  p :     0.159644
      px      :     0.055814
      py      :     0.073372


                      *****************************
                      * MAYER POPULATION ANALYSIS *
                      *****************************

  NA   - Mulliken gross atomic population
[...]
      f+2     :     0.000431
      f-2     :     0.000702
      f+3     :     0.000674
      f-3     :     0.000455
 19 H s       :     0.611170  s :     0.611170
      pz      :     0.017710  p :     0.048042
      px      :     0.016201
      py      :     0.014131
 20 H s       :     0.556758  s :     0.556758
      pz      :     0.011672  p :     0.057918
      px      :     0.014114
      py      :     0.032133
 21 O s       :     3.814689  s :     3.814689
      pz      :     1.485661  p :     4.803575
      px      :     1.798802
      py      :     1.519112
      dz2     :     0.015885  d :     0.050363
      dxz     :     0.008455
      dyz     :     0.006526
      dx2y2   :     0.007509
      dxy     :     0.011989
      f0      :     0.000623  f :     0.004001
      f+1     :     0.000534
      f-1     :     0.000723
      f+2     :     0.000414
      f-2     :     0.000418
      f+3     :     0.000852
      f-3     :     0.000438
 22 H s       :     0.616609  s :     0.616609
      pz      :     0.018170  p :     0.047499
      px      :     0.015687
      py      :     0.013642
 23 H s       :     0.614003  s :     0.614003
      pz      :     0.012063  p :     0.046879
      px      :     0.016862
      py      :     0.017954


                     *******************************
                     * LOEWDIN POPULATION ANALYSIS *
                     *******************************

----------------------
LOEWDIN ATOMIC CHARGES
----------------------
   0 O :   -0.316824
   1 H :    0.159209
   2 H :    0.146095
   3 O :   -0.288696
   4 H :    0.157886
   5 H :    0.148233
   6 O :   -0.315781
   7 H :    0.138640
   8 H :    0.149888
   9 O :   -0.275665
  10 H :    0.180809
  11 H :    0.182320
  12 O :   -0.344500
  13 H :    0.158359
  14 H :    0.143818
  15 O :   -0.285656
  16 H :    0.154323
  17 H :    0.151267
  18 O :   -0.346418
  19 H :    0.155433
  20 H :    0.145911
  21 O :   -0.327728
  22 H :    0.162169
  23 H :    0.166909

-------------------------------
LOEWDIN REDUCED ORBITAL CHARGES
-------------------------------
  0 O s       :     3.452239  s :     3.452239
      pz      :     1.666154  p :     4.802812
      px      :     1.732023
      py      :     1.404635
      dz2     :     0.010531  d :     0.056996
      dxz     :     0.010969
      dyz     :     0.012063
      dx2y2   :     0.009405
      dxy     :     0.014028
      f0      :     0.000473  f :     0.004778
      f+1     :     0.000647
      f-1     :     0.000854
      f+2     :     0.000412
      f-2     :     0.001022
      f+3     :     0.000891
      f-3     :     0.000479
  1 H s       :     0.672195  s :     0.672195
      pz      :     0.067242  p :     0.168596
      px      :     0.054480
      py      :     0.046875
  2 H s       :     0.651716  s :     0.651716
      pz      :     0.034460  p :     0.202189
      px      :     0.048924
      py      :     0.118806
  3 O s       :     3.442211  s :     3.442211
      pz      :     1.536357  p :     4.784022
      px      :     1.544157
      py      :     1.703508
      dz2     :     0.020083  d :     0.057634
      dxz     :     0.007161
      dyz     :     0.007299
      dx2y2   :     0.009155
      dxy     :     0.013935
      f0      :     0.000840  f :     0.004830
      f+1     :     0.000972
      f-1     :     0.000723
      f+2     :     0.000390
      f-2     :     0.000425
      f+3     :     0.000409
      f-3     :     0.001071
  4 H s       :     0.667044  s :     0.667044
      pz      :     0.094354  p :     0.175070
      px      :     0.038088
      py      :     0.042628
  5 H s       :     0.672710  s :     0.672710
      pz      :     0.032393  p :     0.179057
      px      :     0.087456
      py      :     0.059208
  6 O s       :     3.452364  s :     3.452364
      pz      :     1.569155  p :     4.801276
      px      :     1.756244
      py      :     1.475877
      dz2     :     0.019103  d :     0.057394
      dxz     :     0.006915
      dyz     :     0.008984
      dx2y2   :     0.010772
      dxy     :     0.011620
      f0      :     0.000744  f :     0.004747
      f+1     :     0.000587
      f-1     :     0.001151
      f+2     :     0.000413
      f-2     :     0.000418
      f+3     :     0.000981
      f-3     :     0.000454
  7 H s       :     0.672870  s :     0.672870
      pz      :     0.032320  p :     0.188490
      px      :     0.053919
      py      :     0.102251
  8 H s       :     0.672438  s :     0.672438
      pz      :     0.095246  p :     0.177674
      px      :     0.044006
      py      :     0.038422
  9 O s       :     3.457734  s :     3.457734
      pz      :     1.530193  p :     4.753565
      px      :     1.455323
      py      :     1.768049
      dz2     :     0.020665  d :     0.059502
      dxz     :     0.009108
      dyz     :     0.007011
      dx2y2   :     0.010772
      dxy     :     0.011946
      f0      :     0.000783  f :     0.004864
      f+1     :     0.001173
      f-1     :     0.000599
      f+2     :     0.000414
      f-2     :     0.000416
      f+3     :     0.000455
      f-3     :     0.001024
 10 H s       :     0.657449  s :     0.657449
      pz      :     0.081737  p :     0.161742
      px      :     0.036041
      py      :     0.043964
 11 H s       :     0.660050  s :     0.660050
      pz      :     0.030349  p :     0.157630
      px      :     0.076479
      py      :     0.050802
 12 O s       :     3.460903  s :     3.460903
      pz      :     1.510374  p :     4.821229
      px      :     1.484892
      py      :     1.825962
      dz2     :     0.020124  d :     0.057544
      dxz     :     0.009542
      dyz     :     0.007211
      dx2y2   :     0.009281
      dxy     :     0.011386
      f0      :     0.000828  f :     0.004825
      f+1     :     0.001186
      f-1     :     0.000575
      f+2     :     0.000420
      f-2     :     0.000418
      f+3     :     0.000444
      f-3     :     0.000954
 13 H s       :     0.679176  s :     0.679176
      pz      :     0.079344  p :     0.162465
      px      :     0.037893
      py      :     0.045228
 14 H s       :     0.664403  s :     0.664403
      pz      :     0.029767  p :     0.191779
      px      :     0.107894
      py      :     0.054118
 15 O s       :     3.442351  s :     3.442351
      pz      :     1.528162  p :     4.780628
      px      :     1.549020
      py      :     1.703446
      dz2     :     0.020488  d :     0.057847
      dxz     :     0.007289
      dyz     :     0.007341
      dx2y2   :     0.009069
      dxy     :     0.013659
      f0      :     0.000858  f :     0.004831
      f+1     :     0.000973
      f-1     :     0.000721
      f+2     :     0.000390
      f-2     :     0.000426
      f+3     :     0.000409
      f-3     :     0.001052
 16 H s       :     0.671529  s :     0.671529
      pz      :     0.092382  p :     0.174148
      px      :     0.038575
      py      :     0.043190
 17 H s       :     0.668431  s :     0.668431
      pz      :     0.031743  p :     0.180303
      px      :     0.089401
      py      :     0.059159
 18 O s       :     3.457307  s :     3.457307
      pz      :     1.699546  p :     4.828044
      px      :     1.725345
      py      :     1.403153
      dz2     :     0.009837  d :     0.056303
      dxz     :     0.010916
      dyz     :     0.012337
      dx2y2   :     0.009418
      dxy     :     0.013794
      f0      :     0.000455  f :     0.004764
      f+1     :     0.000646
      f-1     :     0.000858
      f+2     :     0.000410
      f-2     :     0.001033
      f+3     :     0.000884
      f-3     :     0.000478
 19 H s       :     0.676477  s :     0.676477
      pz      :     0.067071  p :     0.168090
      px      :     0.054203
      py      :     0.046817
 20 H s       :     0.652912  s :     0.652912
      pz      :     0.034489  p :     0.201176
      px      :     0.048710
      py      :     0.117977
 21 O s       :     3.471349  s :     3.471349
      pz      :     1.499830  p :     4.791641
      px      :     1.774292
      py      :     1.517520
      dz2     :     0.021754  d :     0.059760
      dxz     :     0.007876
      dyz     :     0.007219
      dx2y2   :     0.007709
      dxy     :     0.015201
      f0      :     0.000909  f :     0.004978
      f+1     :     0.000717
      f-1     :     0.001022
      f+2     :     0.000390
      f-2     :     0.000417
      f+3     :     0.001147
      f-3     :     0.000375
 22 H s       :     0.676464  s :     0.676464
      pz      :     0.081135  p :     0.161367
      px      :     0.044019
      py      :     0.036213
 23 H s       :     0.673368  s :     0.673368
      pz      :     0.030749  p :     0.159723
      px      :     0.056310
      py      :     0.072664


                      *****************************
                      * MAYER POPULATION ANALYSIS *
                      *****************************

  NA   - Mulliken gross atomic population
  ZA   - Total nuclear charge
  QA   - Mulliken gross atomic charge
  VA   - Mayer's total valence
  BVA  - Mayer's bonded valence
  FA   - Mayer's free valence

  ATOM       NA         ZA         QA         VA         BVA        FA
  0 O      8.7596     8.0000    -0.7596     2.0293     1.6382     0.3911
  1 H      0.6490     1.0000     0.3510     0.8984     0.8521     0.0463
  2 H      0.6172     1.0000     0.3828     0.9097     0.8652     0.0445
  3 O      8.7256     8.0000    -0.7256     2.0845     1.6993     0.3852
  4 H      0.6134     1.0000     0.3866     0.8882     0.8452     0.0430
  5 H      0.6341     1.0000     0.3659     0.9173     0.8727     0.0446
  6 O      8.7268     8.0000    -0.7268     2.0697     1.6819     0.3878
  7 H      0.6446     1.0000     0.3554     0.9257     0.8793     0.0464
  8 H      0.6212     1.0000     0.3788     0.8999     0.8564     0.0436
  9 O      8.7196     8.0000    -0.7196     2.1075     1.7216     0.3859
 10 H      0.6233     1.0000     0.3767     0.8791     0.8348     0.0443
 11 H      0.6286     1.0000     0.3714     0.8932     0.8472     0.0460
 12 O      8.7359     8.0000    -0.7359     2.0282     1.6394     0.3888
 13 H      0.6697     1.0000     0.3303     0.9142     0.8655     0.0487
 14 H      0.6371     1.0000     0.3629     0.9311     0.8859     0.0452
 15 O      8.7224     8.0000    -0.7224     2.0821     1.6969     0.3852
 16 H      0.6191     1.0000     0.3809     0.8839     0.8401     0.0438
 17 H      0.6280     1.0000     0.3720     0.9190     0.8752     0.0438
 18 O      8.7534     8.0000    -0.7534     2.0251     1.6351     0.3900
 19 H      0.6592     1.0000     0.3408     0.9049     0.8579     0.0469
 20 H      0.6147     1.0000     0.3853     0.9062     0.8622     0.0440
 21 O      8.6726     8.0000    -0.6726     2.0964     1.7160     0.3804
 22 H      0.6641     1.0000     0.3359     0.9090     0.8612     0.0477
 23 H      0.6609     1.0000     0.3391     0.9079     0.8605     0.0473

  Mayer bond orders larger than 0.100000
B(  0-O ,  1-H ) :   0.8402 B(  0-O ,  2-H ) :   0.7267 B(  2-H , 15-O ) :   0.1232 
B(  3-O ,  4-H ) :   0.8008 B(  3-O ,  5-H ) :   0.8018 B(  3-O , 20-H ) :   0.1199 
B(  6-O ,  7-H ) :   0.7983 B(  6-O ,  8-H ) :   0.8014 B(  6-O , 14-H ) :   0.1175 
B(  9-O , 10-H ) :   0.8231 B(  9-O , 11-H ) :   0.8156 B( 12-O , 13-H ) :   0.8531 
B( 12-O , 14-H ) :   0.7569 B( 15-O , 16-H ) :   0.8140 B( 15-O , 17-H ) :   0.7852 
B( 18-O , 19-H ) :   0.8486 B( 18-O , 20-H ) :   0.7368 B( 21-O , 22-H ) :   0.8519 
B( 21-O , 23-H ) :   0.8506 


----------------------------------
MP2 DERIVATIVE INTEGRAL GENERATION
----------------------------------


Input Wavefunction Amplitudes       ... 12h2o.su.etal.mol2,3,5,6,7,8,10,11-orca.engrad-mp2.def2tzvp.frozencore.mp2tsaa.tmp
Input Correlated Electron Density   ... 12h2o.su.etal.mol2,3,5,6,7,8,10,11-orca.engrad-mp2.def2tzvp.frozencore.pmp2re
Input Energy Weighted Density       ... 12h2o.su.etal.mol2,3,5,6,7,8,10,11-orca.engrad-mp2.def2tzvp.frozencore.wmp2.tmp
Input SCF Electron Density          ... 12h2o.su.etal.mol2,3,5,6,7,8,10,11-orca.engrad-mp2.def2tzvp.frozencore.scfp

One-Electron Terms    ...
                        ... One-Electron Terms done
Prescreening matrices              ... done

Batch handling in the gradient evaluation:
Memory available                      ... 8000.0 MB
Memory per occupied orbital in Q2     ...   28.9 MB
Memory per occupied orbital in Q3     ...    0.1 MB
Total memory requirement per |i>      ...   29.0 MB
Max. Number of orbitals possible      ...    275
Number of orbitals treated per batch  ...     32
Number of batches to be done          ...      1
Batch   0: i=    8 ...    39

---------------------------------------
MP2 TOTAL ENERGY:     -610.597023558 Eh
---------------------------------------

The final MP2 gradient
  0:   0.00046247  -0.00141695  -0.00033917
  1:  -0.00068574   0.00017483   0.00123881
  2:  -0.00008947   0.00239543   0.00188476
  3:  -0.00083911   0.00109974  -0.00024213
  4:   0.00052331  -0.00063910  -0.00101937
  5:   0.00051371   0.00148941  -0.00015015
  6:   0.00000387  -0.00575124  -0.00019813
  7:   0.00194641   0.01162348   0.00084913
  8:   0.00020734  -0.00157791   0.00064910
  9:   0.01430023  -0.00990874  -0.01117615
 10:  -0.00027800  -0.00088598   0.00592442
 11:  -0.01280507   0.00521554   0.00242717
 12:   0.00151090  -0.00028689  -0.01147480
 13:  -0.00074609   0.00050926   0.01138178
 14:  -0.00204482   0.00061958  -0.00144850
 15:  -0.00189538   0.00176566  -0.00439348
 16:  -0.00093293  -0.00082322   0.00430356
 17:   0.00439581  -0.00313804   0.00063062
 18:  -0.00496533   0.00428538   0.00013525
 19:   0.00044125   0.00054206  -0.00007724
 20:   0.00075728  -0.00526983  -0.00049835
 21:   0.00414534   0.00751318   0.00944739
 22:   0.00149638   0.00188024  -0.00858415
 23:  -0.00542234  -0.00941588   0.00072964

-----------------------------------
NORM OF THE MP2 GRADIENT:  0.040447
-----------------------------------

-------------------------   --------------------
FINAL SINGLE POINT ENERGY      -610.597023557889
-------------------------   --------------------


                            ***************************************
                            *     ORCA property calculations      *
                            ***************************************

                                    ---------------------
                                    Active property flags
                                    ---------------------
   (+) Dipole Moment


------------------------------------------------------------------------------
                       ORCA ELECTRIC PROPERTIES CALCULATION
------------------------------------------------------------------------------

Dipole Moment Calculation                       ... on
Quadrupole Moment Calculation                   ... off
Polarizability Calculation                      ... off
GBWName                                         ... 12h2o.su.etal.mol2,3,5,6,7,8,10,11-orca.engrad-mp2.def2tzvp.frozencore.gbw
Electron density file                           ... 12h2o.su.etal.mol2,3,5,6,7,8,10,11-orca.engrad-mp2.def2tzvp.frozencore.scfp
The origin for moment calculation is the CENTER OF MASS  = ( 0.032239,  0.003366 -2.001359)

-------------
DIPOLE MOMENT
-------------
                                X             Y             Z
Electronic contribution:      0.30836       0.11727       0.08835
Nuclear contribution   :     -0.11171      -0.00057       0.19520
                        -----------------------------------------
Total Dipole Moment    :      0.19665       0.11669       0.28355
                        -----------------------------------------
Magnitude (a.u.)       :      0.36427
Magnitude (Debye)      :      0.92589



--------------------
Rotational spectrum 
--------------------
 
Rotational constants in cm-1:     0.032249     0.019869     0.019411 
Rotational constants in MHz :   966.809197   595.654051   581.915018 

 Dipole components along the rotational axes: 
x,y,z [a.u.] :     0.278749    -0.232458    -0.030864 
x,y,z [Debye]:     0.708523    -0.590860    -0.078449 

 

                         *** MP2 UNRELAXED DENSITY ***

------------------------------------------------------------------------------
                       ORCA ELECTRIC PROPERTIES CALCULATION
------------------------------------------------------------------------------

Dipole Moment Calculation                       ... on
Quadrupole Moment Calculation                   ... off
Polarizability Calculation                      ... off
GBWName                                         ... 12h2o.su.etal.mol2,3,5,6,7,8,10,11-orca.engrad-mp2.def2tzvp.frozencore.gbw
Electron density file                           ... 12h2o.su.etal.mol2,3,5,6,7,8,10,11-orca.engrad-mp2.def2tzvp.frozencore.pmp2ur
The origin for moment calculation is the CENTER OF MASS  = ( 0.032239,  0.003366 -2.001359)

-------------
DIPOLE MOMENT
-------------
                                X             Y             Z
Electronic contribution:      0.31275       0.11879       0.08699
Nuclear contribution   :     -0.11171      -0.00057       0.19520
                        -----------------------------------------
Total Dipole Moment    :      0.20104       0.11822       0.28218
                        -----------------------------------------
Magnitude (a.u.)       :      0.36608
Magnitude (Debye)      :      0.93051



--------------------
Rotational spectrum 
--------------------
 
Rotational constants in cm-1:     0.032249     0.019869     0.019411 
Rotational constants in MHz :   966.809197   595.654051   581.915018 

 Dipole components along the rotational axes: 
x,y,z [a.u.] :     0.277323    -0.236742    -0.032608 
x,y,z [Debye]:     0.704899    -0.601751    -0.082884 

 

                           *** MP2 RELAXED DENSITY ***

------------------------------------------------------------------------------
                       ORCA ELECTRIC PROPERTIES CALCULATION
------------------------------------------------------------------------------

Dipole Moment Calculation                       ... on
Quadrupole Moment Calculation                   ... off
Polarizability Calculation                      ... off
GBWName                                         ... 12h2o.su.etal.mol2,3,5,6,7,8,10,11-orca.engrad-mp2.def2tzvp.frozencore.gbw
Electron density file                           ... 12h2o.su.etal.mol2,3,5,6,7,8,10,11-orca.engrad-mp2.def2tzvp.frozencore.pmp2re
The origin for moment calculation is the CENTER OF MASS  = ( 0.032239,  0.003366 -2.001359)

-------------
DIPOLE MOMENT
-------------
                                X             Y             Z
Electronic contribution:      0.32419       0.13173       0.08770
Nuclear contribution   :     -0.11171      -0.00057       0.19520
                        -----------------------------------------
Total Dipole Moment    :      0.21248       0.13116       0.28289
                        -----------------------------------------
Magnitude (a.u.)       :      0.37733
Magnitude (Debye)      :      0.95909



--------------------
Rotational spectrum 
--------------------
 
Rotational constants in cm-1:     0.032249     0.019869     0.019411 
Rotational constants in MHz :   966.809197   595.654051   581.915018 

 Dipole components along the rotational axes: 
x,y,z [a.u.] :     0.280093    -0.248865    -0.044616 
x,y,z [Debye]:     0.711941    -0.632564    -0.113405 

 

Timings for individual modules:

Sum of individual times         ...      203.653 sec (=   3.394 min)
GTO integral calculation        ...        0.972 sec (=   0.016 min)   0.5 %
SCF iterations                  ...       29.611 sec (=   0.494 min)  14.5 %
MP2 module                      ...      173.070 sec (=   2.884 min)  85.0 %
                             ****ORCA TERMINATED NORMALLY****
TOTAL RUN TIME: 0 days 0 hours 3 minutes 24 seconds 630 msec
