
                                 *****************
                                 * O   R   C   A *
                                 *****************

           --- An Ab Initio, DFT and Semiempirical electronic structure package ---

                  #######################################################
                  #                        -***-                        #
                  #          Department of theory and spectroscopy      #
                  #               Directorship: Frank Neese             #
                  #        Max Planck Institute fuer Kohlenforschung    #
                  #                Kaiser Wilhelm Platz 1               #
                  #                 D-45470 Muelheim/Ruhr               #
                  #                      Germany                        #
                  #                                                     #
                  #                  All rights reserved                #
                  #                        -***-                        #
                  #######################################################


                         Program Version 4.2.0 -  RELEASE  -


 With contributions from (in alphabetic order):
   Daniel Aravena         : Magnetic Suceptibility
   Michael Atanasov       : Ab Initio Ligand Field Theory (pilot matlab implementation)
   Alexander A. Auer      : GIAO ZORA, VPT2
   Ute Becker             : Parallelization
   Giovanni Bistoni       : ED, misc. LED, open-shell LED, HFLED
   Martin Brehm           : Molecular dynamics
   Dmytro Bykov           : SCF Hessian
   Vijay G. Chilkuri      : MRCI spin determinant printing, contributions to CSF-ICE
   Dipayan Datta          : RHF DLPNO-CCSD density
   Achintya Kumar Dutta   : EOM-CC, STEOM-CC
   Dmitry Ganyushin       : Spin-Orbit,Spin-Spin,Magnetic field MRCI
   Miquel Garcia          : C-PCM Hessian, Gaussian charge scheme
   Yang Guo               : DLPNO-NEVPT2, CIM, IAO-localization
   Andreas Hansen         : Spin unrestricted coupled pair/coupled cluster methods
   Benjamin Helmich-Paris : CASSCF linear response (MC-RPA)
   Lee Huntington         : MR-EOM, pCC
   Robert Izsak           : Overlap fitted RIJCOSX, COSX-SCS-MP3, EOM
   Christian Kollmar      : KDIIS, OOCD, Brueckner-CCSD(T), CCSD density
   Simone Kossmann        : Meta GGA functionals, TD-DFT gradient, OOMP2, MP2 Hessian
   Martin Krupicka        : AUTO-CI
   Lucas Lang             : DCDCAS
   Dagmar Lenk            : GEPOL surface, SMD
   Dimitrios Liakos       : Extrapolation schemes; Compound Job, initial MDCI parallelization
   Dimitrios Manganas     : Further ROCIS development; embedding schemes
   Dimitrios Pantazis     : SARC Basis sets
   Taras Petrenko         : DFT Hessian,TD-DFT gradient, ASA, ECA, R-Raman, ABS, FL, XAS/XES, NRVS
   Peter Pinski           : DLPNO-MP2, DLPNO-MP2 Gradient
   Christoph Reimann      : Effective Core Potentials
   Marius Retegan         : Local ZFS, SOC
   Christoph Riplinger    : Optimizer, TS searches, QM/MM, DLPNO-CCSD(T), (RO)-DLPNO pert. Triples
   Tobias Risthaus        : Range-separated hybrids, TD-DFT gradient, RPA, STAB
   Michael Roemelt        : Original ROCIS implementation
   Masaaki Saitow         : Open-shell DLPNO-CCSD energy and density
   Barbara Sandhoefer     : DKH picture change effects
   Avijit Sen             : IP-ROCIS
   Kantharuban Sivalingam : CASSCF convergence, NEVPT2, FIC-MRCI
   Bernardo de Souza      : ESD, SOC TD-DFT
   Georgi Stoychev        : AutoAux, RI-MP2 NMR
   Willem Van den Heuvel  : Paramagnetic NMR
   Boris Wezisla          : Elementary symmetry handling
   Frank Wennmohs         : Technical directorship


 We gratefully acknowledge several colleagues who have allowed us to
 interface, adapt or use parts of their codes:
   Stefan Grimme, W. Hujo, H. Kruse,             : VdW corrections, initial TS optimization,
                  C. Bannwarth                     DFT functionals, gCP, sTDA/sTD-DF
   Ed Valeev, F. Pavosevic, A. Kumar             : LibInt (2-el integral package), F12 methods
   Garnet Chan, S. Sharma, J. Yang, R. Olivares  : DMRG
   Ulf Ekstrom                                   : XCFun DFT Library
   Mihaly Kallay                                 : mrcc  (arbitrary order and MRCC methods)
   Andreas Klamt, Michael Diedenhofen            : otool_cosmo (COSMO solvation model)
   Jiri Pittner, Ondrej Demel                    : Mk-CCSD
   Frank Weinhold                                : gennbo (NPA and NBO analysis)
   Christopher J. Cramer and Donald G. Truhlar   : smd solvation model
   Lars Goerigk                                  : TD-DFT with DH, B97 family of functionals
   V. Asgeirsson, H. Jonsson                     : NEB implementation
   FAccTs GmbH                                   : IRC, NEB, NEB-TS, Multilevel, MM, QM/MM, CI optimization
   S Lehtola, MJT Oliveira, MAL Marques          : LibXC Library


 Your calculation uses the libint2 library for the computation of 2-el integrals
 For citations please refer to: http://libint.valeyev.net

 Your ORCA version has been built with support for libXC version: 4.2.3
 For citations please refer to: https://tddft.org/programs/libxc/

 This ORCA versions uses:
   CBLAS   interface :  Fast vector & matrix operations
   LAPACKE interface :  Fast linear algebra routines
   SCALAPACK package :  Parallel linear algebra routines


----- Orbital basis set information -----
Your calculation utilizes the basis: def2-TZVP
   F. Weigend and R. Ahlrichs, Phys. Chem. Chem. Phys. 7, 3297 (2005).

================================================================================
                                        WARNINGS
                       Please study these warnings very carefully!
================================================================================


WARNING: The frozen-core approximation for MP2-gradient calculations is turned on by default.

INFO   : the flag for use of LIBINT has been found!

================================================================================
                                       INPUT FILE
================================================================================
NAME = 12h2o.su.etal.mol1,3,5,7,10,11-orca.engrad-mp2.def2tzvp.frozencore.inp
|  1> # 12h2o.su.etal.mol1,3,5,7,10,11
|  2> ! MP2 def2-TZVP EnGrad TightSCF
|  3> 
|  4> %pal
|  5>     nprocs 6
|  6> end
|  7> 
|  8> %maxcore 8000
|  9> 
| 10> %scf
| 11>     ConvForced true
| 12> end
| 13> 
| 14> *xyz 0 1
| 15> O  -1.794470000  -0.923410000   2.768350000
| 16> H  -2.338250000  -1.359750000   3.430940000
| 17> H  -0.879480000  -1.303000000   2.865760000
| 18> O  -1.752130000  -0.741530000  -2.896280000
| 19> H  -2.036450000  -0.920500000  -1.984040000
| 20> H  -0.921210000  -1.242140000  -2.984230000
| 21> O   0.885520000  -1.737840000   0.052730000
| 22> H   1.284090000  -0.839590000   0.017130000
| 23> H   1.032320000  -2.090180000  -0.841890000
| 24> O  -1.737840000  -0.885520000  -0.052730000
| 25> H  -2.090180000  -1.032320000   0.841890000
| 26> H  -0.839590000  -1.284090000  -0.017130000
| 27> O  -0.923410000   1.794470000  -2.768350000
| 28> H  -1.359750000   2.338250000  -3.430940000
| 29> H  -1.303000000   0.879480000  -2.865760000
| 30> O  -0.741530000   1.752130000   2.896280000
| 31> H  -0.920500000   2.036450000   1.984040000
| 32> H  -1.242140000   0.921210000   2.984230000
| 33> *
| 34> 
| 35>                          ****END OF INPUT****
================================================================================

                     *******************************
                     * Energy+Gradient Calculation *
                     *******************************

---------------------------------
CARTESIAN COORDINATES (ANGSTROEM)
---------------------------------
  O     -1.794470   -0.923410    2.768350
  H     -2.338250   -1.359750    3.430940
  H     -0.879480   -1.303000    2.865760
  O     -1.752130   -0.741530   -2.896280
  H     -2.036450   -0.920500   -1.984040
  H     -0.921210   -1.242140   -2.984230
  O      0.885520   -1.737840    0.052730
  H      1.284090   -0.839590    0.017130
  H      1.032320   -2.090180   -0.841890
  O     -1.737840   -0.885520   -0.052730
  H     -2.090180   -1.032320    0.841890
  H     -0.839590   -1.284090   -0.017130
  O     -0.923410    1.794470   -2.768350
  H     -1.359750    2.338250   -3.430940
  H     -1.303000    0.879480   -2.865760
  O     -0.741530    1.752130    2.896280
  H     -0.920500    2.036450    1.984040
  H     -1.242140    0.921210    2.984230

----------------------------
CARTESIAN COORDINATES (A.U.)
----------------------------
  NO LB      ZA    FRAG     MASS         X           Y           Z
   0 O     8.0000    0    15.999   -3.391057   -1.744992    5.231423
   1 H     1.0000    0     1.008   -4.418652   -2.569555    6.483537
   2 H     1.0000    0     1.008   -1.661976   -2.462313    5.415502
   3 O     8.0000    0    15.999   -3.311046   -1.401289   -5.473176
   4 H     1.0000    0     1.008   -3.848333   -1.739493   -3.749292
   5 H     1.0000    0     1.008   -1.740835   -2.347304   -5.639377
   6 O     8.0000    0    15.999    1.673390   -3.284042    0.099645
   7 H     1.0000    0     1.008    2.426578   -1.586595    0.032371
   8 H     1.0000    0     1.008    1.950802   -3.949868   -1.590942
   9 O     8.0000    0    15.999   -3.284042   -1.673390   -0.099645
  10 H     1.0000    0     1.008   -3.949868   -1.950802    1.590942
  11 H     1.0000    0     1.008   -1.586595   -2.426578   -0.032371
  12 O     8.0000    0    15.999   -1.744992    3.391057   -5.231423
  13 H     1.0000    0     1.008   -2.569555    4.418652   -6.483537
  14 H     1.0000    0     1.008   -2.462313    1.661976   -5.415502
  15 O     8.0000    0    15.999   -1.401289    3.311046    5.473176
  16 H     1.0000    0     1.008   -1.739493    3.848333    3.749292
  17 H     1.0000    0     1.008   -2.347304    1.740835    5.639377

--------------------------------
INTERNAL COORDINATES (ANGSTROEM)
--------------------------------
 O      0   0   0     0.000000000000     0.00000000     0.00000000
 H      1   0   0     0.961828878803     0.00000000     0.00000000
 H      1   2   0     0.995381322057   106.21731035     0.00000000
 O      1   2   3     5.667707300743   135.01509642   116.29625730
 H      4   1   2     0.972136791249    18.92045113     9.26599691
 H      4   1   2     0.974050112161    94.59568686   248.81379742
 O      3   1   2     3.349245975813   116.85538783   143.82107740
 H      7   3   1     0.983350632989    97.20424340    87.67157074
 H      7   3   1     0.972645187106   154.03893681   304.15813038
 O      5   4   1     1.954571525578   151.55104644   356.10627670
 H     10   5   4     0.972645187106   148.29772527   173.62852352
 H     10   5   4     0.983350632989    99.67573411   310.71905253
 O      4   1   2     2.671037050155    89.13575954   145.68356082
 H     13   4   1     0.961828878803   111.28648995   220.47225898
 H     13   4   1     0.995381322057     5.27275451   236.70454430
 O      1   2   3     2.878117964938   126.72240291   256.40918860
 H     16   1   2     0.972136791249    99.37069922   223.07499144
 H     16   1   2     0.974050112161    12.30570018   335.59052045

---------------------------
INTERNAL COORDINATES (A.U.)
---------------------------
 O      0   0   0     0.000000000000     0.00000000     0.00000000
 H      1   0   0     1.817593168635     0.00000000     0.00000000
 H      1   2   0     1.880998097508   106.21731035     0.00000000
 O      1   2   3    10.710414605631   135.01509642   116.29625730
 H      4   1   2     1.837072300170    18.92045113     9.26599691
 H      4   1   2     1.840687952699    94.59568686   248.81379742
 O      3   1   2     6.329157649425   116.85538783   143.82107740
 H      7   3   1     1.858263389967    97.20424340    87.67157074
 H      7   3   1     1.838033029106   154.03893681   304.15813038
 O      5   4   1     3.693604892503   151.55104644   356.10627670
 H     10   5   4     1.838033029106   148.29772527   173.62852352
 H     10   5   4     1.858263389967    99.67573411   310.71905253
 O      4   1   2     5.047528518350    89.13575954   145.68356082
 H     13   4   1     1.817593168635   111.28648995   220.47225898
 H     13   4   1     1.880998097508     5.27275451   236.70454430
 O      1   2   3     5.438854734852   126.72240291   256.40918860
 H     16   1   2     1.837072300170    99.37069922   223.07499144
 H     16   1   2     1.840687952699    12.30570018   335.59052045

---------------------
BASIS SET INFORMATION
---------------------
There are 2 groups of distinct atoms

 Group   1 Type O   : 11s6p2d1f contracted to 5s3p2d1f pattern {62111/411/11/1}
 Group   2 Type H   : 5s1p contracted to 3s1p pattern {311/1}

Atom   0O    basis set group =>   1
Atom   1H    basis set group =>   2
Atom   2H    basis set group =>   2
Atom   3O    basis set group =>   1
Atom   4H    basis set group =>   2
Atom   5H    basis set group =>   2
Atom   6O    basis set group =>   1
Atom   7H    basis set group =>   2
Atom   8H    basis set group =>   2
Atom   9O    basis set group =>   1
Atom  10H    basis set group =>   2
Atom  11H    basis set group =>   2
Atom  12O    basis set group =>   1
Atom  13H    basis set group =>   2
Atom  14H    basis set group =>   2
Atom  15O    basis set group =>   1
Atom  16H    basis set group =>   2
Atom  17H    basis set group =>   2


           ************************************************************
           *        Program running with 6 parallel MPI-processes     *
           *              working on a common directory               *
           ************************************************************
------------------------------------------------------------------------------
                           ORCA GTO INTEGRAL CALCULATION
------------------------------------------------------------------------------

                         BASIS SET STATISTICS AND STARTUP INFO

 # of primitive gaussian shells          ...  192
 # of primitive gaussian functions       ...  372
 # of contracted shells                  ...  114
 # of contracted basis functions         ...  258
 Highest angular momentum                ...    3
 Maximum contraction depth               ...    6
 Integral package used                   ... LIBINT
 Integral threshhold            Thresh   ...  2.500e-11
 Primitive cut-off              TCut     ...  2.500e-12


------------------------------ INTEGRAL EVALUATION ----------------------------


 * One electron integrals 
 Pre-screening matrix                    ... done
 Shell pair data                         ... done (   0.001 sec)



           ************************************************************
           *        Program running with 6 parallel MPI-processes     *
           *              working on a common directory               *
           ************************************************************
-------------------------------------------------------------------------------
                                 ORCA SCF
-------------------------------------------------------------------------------

------------
SCF SETTINGS
------------
Hamiltonian:
 Ab initio Hamiltonian  Method          .... Hartree-Fock(GTOs)


General Settings:
 Integral files         IntName         .... 12h2o.su.etal.mol1,3,5,7,10,11-orca.engrad-mp2.def2tzvp.frozencore
 Hartree-Fock type      HFTyp           .... RHF
 Total Charge           Charge          ....    0
 Multiplicity           Mult            ....    1
 Number of Electrons    NEL             ....   60
 Basis Dimension        Dim             ....  258
 Nuclear Repulsion      ENuc            ....    260.6854002892 Eh

Convergence Acceleration:
 DIIS                   CNVDIIS         .... on
   Start iteration      DIISMaxIt       ....    12
   Startup error        DIISStart       ....  0.200000
   # of expansion vecs  DIISMaxEq       ....     5
   Bias factor          DIISBfac        ....   1.050
   Max. coefficient     DIISMaxC        ....  10.000
 Newton-Raphson         CNVNR           .... off
 SOSCF                  CNVSOSCF        .... on
   Start iteration      SOSCFMaxIt      ....   150
   Startup grad/error   SOSCFStart      ....  0.003300
 Level Shifting         CNVShift        .... on
   Level shift para.    LevelShift      ....    0.2500
   Turn off err/grad.   ShiftErr        ....    0.0010
 Zerner damping         CNVZerner       .... off
 Static damping         CNVDamp         .... on
   Fraction old density DampFac         ....    0.7000
   Max. Damping (<1)    DampMax         ....    0.9800
   Min. Damping (>=0)   DampMin         ....    0.0000
   Turn off err/grad.   DampErr         ....    0.1000
 Fernandez-Rico         CNVRico         .... off

SCF Procedure:
 Maximum # iterations   MaxIter         ....   125
 SCF integral mode      SCFMode         .... Direct
   Integral package                     .... LIBINT
 Reset frequency        DirectResetFreq ....    20
 Integral Threshold     Thresh          ....  2.500e-11 Eh
 Primitive CutOff       TCut            ....  2.500e-12 Eh

Convergence Tolerance:
 Convergence Check Mode ConvCheckMode   .... Total+1el-Energy
 Convergence forced     ConvForced      .... 1
 Energy Change          TolE            ....  1.000e-08 Eh
 1-El. energy change                    ....  1.000e-05 Eh
 Orbital Gradient       TolG            ....  1.000e-05
 Orbital Rotation angle TolX            ....  1.000e-05
 DIIS Error             TolErr          ....  5.000e-07


Diagonalization of the overlap matrix:
Smallest eigenvalue                        ... 4.257e-03
Time for diagonalization                   ...    0.013 sec
Threshold for overlap eigenvalues          ... 1.000e-08
Number of eigenvalues below threshold      ... 0
Time for construction of square roots      ...    0.009 sec
Total time needed                          ...    0.022 sec

-------------------
DFT GRID GENERATION
-------------------

General Integration Accuracy     IntAcc      ...  4.340
Radial Grid Type                 RadialGrid  ... Gauss-Chebyshev
Angular Grid (max. acc.)         AngularGrid ... Lebedev-110
Angular grid pruning method      GridPruning ... 3 (G Style)
Weight generation scheme         WeightScheme... Becke
Basis function cutoff            BFCut       ...    1.0000e-11
Integration weight cutoff        WCut        ...    1.0000e-14
Grids for H and He will be reduced by one unit

# of grid points (after initial pruning)     ...  19824 (   0.0 sec)
# of grid points (after weights+screening)   ...  18799 (   0.0 sec)
nearest neighbour list constructed           ...    0.0 sec
Grid point re-assignment to atoms done       ...    0.0 sec
Grid point division into batches done        ...    0.0 sec
Reduced shell lists constructed in    0.0 sec

Total number of grid points                  ...    18799
Total number of batches                      ...      304
Average number of points per batch           ...       61
Average number of grid points per atom       ...     1044
Average number of shells per batch           ...    54.04 (47.40%)
Average number of basis functions per batch  ...   109.15 (42.31%)
Average number of large shells per batch     ...    37.60 (69.57%)
Average number of large basis fcns per batch ...    74.60 (68.34%)
Maximum spatial batch extension              ...  15.87, 15.72, 14.72 au
Average spatial batch extension              ...   0.64,  0.67,  0.63 au

Time for grid setup =    0.052 sec

------------------------------
INITIAL GUESS: MODEL POTENTIAL
------------------------------
Loading Hartree-Fock densities                     ... done
Calculating cut-offs                               ... done
Setting up the integral package                    ... done
Initializing the effective Hamiltonian             ... done
Starting the Coulomb interaction                   ... done (   0.0 sec)
Reading the grid                                   ... done
Mapping shells                                     ... done
Starting the XC term evaluation                    ... done (   0.0 sec)
Transforming the Hamiltonian                       ... done (   0.0 sec)
Diagonalizing the Hamiltonian                      ... done (   0.0 sec)
Back transforming the eigenvectors                 ... done (   0.0 sec)
Now organizing SCF variables                       ... done
                      ------------------
                      INITIAL GUESS DONE (   0.2 sec)
                      ------------------
--------------
SCF ITERATIONS
--------------
ITER       Energy         Delta-E        Max-DP      RMS-DP      [F,P]     Damp
               ***  Starting incremental Fock matrix formation  ***
  0   -455.8279573183   0.000000000000 0.04402943  0.00097084  0.3500641 0.7000
  1   -456.0396685174  -0.211711199058 0.02934721  0.00067163  0.2167514 0.7000
                               ***Turning on DIIS***
  2   -456.1517472849  -0.112078767504 0.01640901  0.00037493  0.1635679 0.7000
  3   -457.1621352607  -1.010387975826 0.00762921  0.00017227  0.1218600 0.7000
  4   -456.9582007312   0.203934529484 0.01734370  0.00040145  0.0862122 0.0000
  5   -456.4095633854   0.548637345827 0.00233954  0.00006487  0.0053735 0.0000
                      *** Initiating the SOSCF procedure ***
                           *** Shutting down DIIS ***
                      *** Re-Reading the Fockian *** 
                      *** Removing any level shift *** 
ITER      Energy       Delta-E        Grad      Rot      Max-DP    RMS-DP
  6   -456.37795992   0.0316034626  0.001004  0.001004  0.001529  0.000040
               *** Restarting incremental Fock matrix formation ***
  7   -456.36825856   0.0097013614  0.000367  0.000509  0.000693  0.000017
  8   -456.36826761  -0.0000090484  0.000135  0.000393  0.000548  0.000014
  9   -456.36826974  -0.0000021313  0.000072  0.000040  0.000109  0.000002
 10   -456.36826991  -0.0000001719  0.000014  0.000009  0.000019  0.000000
                  ***Gradient check signals convergence***
              ***Rediagonalizing the Fockian in SOSCF/NRSCF***

               *****************************************************
               *                     SUCCESS                       *
               *           SCF CONVERGED AFTER  11 CYCLES          *
               *****************************************************


----------------
TOTAL SCF ENERGY
----------------

Total Energy       :         -456.36826992 Eh          -12418.41196 eV

Components:
Nuclear Repulsion  :          260.68540029 Eh            7093.61037 eV
Electronic Energy  :         -717.05367021 Eh          -19512.02234 eV
One Electron Energy:        -1149.53624550 Eh          -31280.47151 eV
Two Electron Energy:          432.48257529 Eh           11768.44917 eV

Virial components:
Potential Energy   :         -912.12770895 Eh          -24820.25680 eV
Kinetic Energy     :          455.75943903 Eh           12401.84483 eV
Virial Ratio       :            2.00133586


---------------
SCF CONVERGENCE
---------------

  Last Energy change         ...   -4.4222e-09  Tolerance :   1.0000e-08
  Last MAX-Density change    ...    4.3493e-06  Tolerance :   1.0000e-07
  Last RMS-Density change    ...    1.2730e-07  Tolerance :   5.0000e-09
  Last Orbital Gradient      ...    1.9372e-06  Tolerance :   1.0000e-05
  Last Orbital Rotation      ...    2.4143e-06  Tolerance :   1.0000e-05

             **** THE GBW FILE WAS UPDATED (12h2o.su.etal.mol1,3,5,7,10,11-orca.engrad-mp2.def2tzvp.frozencore.gbw) ****
             **** DENSITY FILE WAS UPDATED (12h2o.su.etal.mol1,3,5,7,10,11-orca.engrad-mp2.def2tzvp.frozencore.scfp) ****
             **** ENERGY FILE WAS UPDATED (12h2o.su.etal.mol1,3,5,7,10,11-orca.engrad-mp2.def2tzvp.frozencore.en.tmp) ****
             **** THE GBW FILE WAS UPDATED (12h2o.su.etal.mol1,3,5,7,10,11-orca.engrad-mp2.def2tzvp.frozencore.gbw) ****
             **** DENSITY FILE WAS UPDATED (12h2o.su.etal.mol1,3,5,7,10,11-orca.engrad-mp2.def2tzvp.frozencore.scfp) ****
----------------
ORBITAL ENERGIES
----------------

  NO   OCC          E(Eh)            E(eV) 
   0   2.0000     -20.613724      -560.9280 
   1   2.0000     -20.612824      -560.9034 
   2   2.0000     -20.565454      -559.6145 
   3   2.0000     -20.541510      -558.9629 
   4   2.0000     -20.531476      -558.6899 
   5   2.0000     -20.505537      -557.9840 
   6   2.0000      -1.394524       -37.9469 
   7   2.0000      -1.392848       -37.9013 
   8   2.0000      -1.355150       -36.8755 
   9   2.0000      -1.326338       -36.0915 
  10   2.0000      -1.314021       -35.7563 
  11   2.0000      -1.287659       -35.0390 
  12   2.0000      -0.759568       -20.6689 
  13   2.0000      -0.751158       -20.4400 
  14   2.0000      -0.718990       -19.5647 
  15   2.0000      -0.705859       -19.2074 
  16   2.0000      -0.685574       -18.6554 
  17   2.0000      -0.675994       -18.3947 
  18   2.0000      -0.641167       -17.4470 
  19   2.0000      -0.626849       -17.0574 
  20   2.0000      -0.601536       -16.3686 
  21   2.0000      -0.583096       -15.8668 
  22   2.0000      -0.560318       -15.2470 
  23   2.0000      -0.542120       -14.7518 
  24   2.0000      -0.539478       -14.6799 
  25   2.0000      -0.530551       -14.4370 
  26   2.0000      -0.496748       -13.5172 
  27   2.0000      -0.490344       -13.3429 
  28   2.0000      -0.479140       -13.0381 
  29   2.0000      -0.456092       -12.4109 
  30   0.0000       0.079781         2.1709 
  31   0.0000       0.106000         2.8844 
  32   0.0000       0.147421         4.0115 
  33   0.0000       0.166478         4.5301 
  34   0.0000       0.182787         4.9739 
  35   0.0000       0.189738         5.1630 
  36   0.0000       0.209974         5.7137 
  37   0.0000       0.224102         6.0981 
  38   0.0000       0.284042         7.7292 
  39   0.0000       0.293590         7.9890 
  40   0.0000       0.323292         8.7972 
  41   0.0000       0.343028         9.3343 
  42   0.0000       0.437066        11.8932 
  43   0.0000       0.461212        12.5502 
  44   0.0000       0.480807        13.0834 
  45   0.0000       0.500827        13.6282 
  46   0.0000       0.512101        13.9350 
  47   0.0000       0.534262        14.5380 
  48   0.0000       0.541281        14.7290 
  49   0.0000       0.558267        15.1912 
  50   0.0000       0.561768        15.2865 
  51   0.0000       0.573734        15.6121 
  52   0.0000       0.595748        16.2111 
  53   0.0000       0.606621        16.5070 
  54   0.0000       0.615776        16.7561 
  55   0.0000       0.627958        17.0876 
  56   0.0000       0.633439        17.2368 
  57   0.0000       0.646819        17.6008 
  58   0.0000       0.654139        17.8000 
  59   0.0000       0.677541        18.4368 
  60   0.0000       0.692511        18.8442 
  61   0.0000       0.701565        19.0906 
  62   0.0000       0.718241        19.5443 
  63   0.0000       0.729422        19.8486 
  64   0.0000       0.735854        20.0236 
  65   0.0000       0.761217        20.7138 
  66   0.0000       0.773521        21.0486 
  67   0.0000       0.791883        21.5482 
  68   0.0000       0.807200        21.9650 
  69   0.0000       0.817349        22.2412 
  70   0.0000       0.841574        22.9004 
  71   0.0000       0.870998        23.7011 
  72   0.0000       0.945938        25.7403 
  73   0.0000       0.952182        25.9102 
  74   0.0000       1.006533        27.3892 
  75   0.0000       1.009056        27.4578 
  76   0.0000       1.055847        28.7311 
  77   0.0000       1.066041        29.0084 
  78   0.0000       1.351743        36.7828 
  79   0.0000       1.354481        36.8573 
  80   0.0000       1.380903        37.5763 
  81   0.0000       1.388051        37.7708 
  82   0.0000       1.401779        38.1443 
  83   0.0000       1.418098        38.5884 
  84   0.0000       1.438536        39.1446 
  85   0.0000       1.468003        39.9464 
  86   0.0000       1.482293        40.3353 
  87   0.0000       1.501302        40.8525 
  88   0.0000       1.502972        40.8980 
  89   0.0000       1.523075        41.4450 
  90   0.0000       1.549051        42.1518 
  91   0.0000       1.557079        42.3703 
  92   0.0000       1.593851        43.3709 
  93   0.0000       1.606220        43.7075 
  94   0.0000       1.616120        43.9769 
  95   0.0000       1.656628        45.0791 
  96   0.0000       1.769394        48.1477 
  97   0.0000       1.804316        49.0979 
  98   0.0000       1.806965        49.1700 
  99   0.0000       1.834519        49.9198 
 100   0.0000       1.852345        50.4049 
 101   0.0000       1.867221        50.8097 
 102   0.0000       1.880519        51.1715 
 103   0.0000       1.941137        52.8210 
 104   0.0000       1.956723        53.2451 
 105   0.0000       1.975945        53.7682 
 106   0.0000       1.996967        54.3402 
 107   0.0000       2.002717        54.4967 
 108   0.0000       2.066481        56.2318 
 109   0.0000       2.074890        56.4606 
 110   0.0000       2.103432        57.2373 
 111   0.0000       2.131554        58.0025 
 112   0.0000       2.142422        58.2983 
 113   0.0000       2.173047        59.1316 
 114   0.0000       2.250171        61.2303 
 115   0.0000       2.269546        61.7575 
 116   0.0000       2.276264        61.9403 
 117   0.0000       2.303740        62.6879 
 118   0.0000       2.313284        62.9477 
 119   0.0000       2.327933        63.3463 
 120   0.0000       2.343243        63.7629 
 121   0.0000       2.356648        64.1277 
 122   0.0000       2.370437        64.5029 
 123   0.0000       2.389012        65.0083 
 124   0.0000       2.392164        65.0941 
 125   0.0000       2.409186        65.5573 
 126   0.0000       2.419454        65.8367 
 127   0.0000       2.460284        66.9477 
 128   0.0000       2.505258        68.1715 
 129   0.0000       2.533526        68.9408 
 130   0.0000       2.538569        69.0780 
 131   0.0000       2.545670        69.2712 
 132   0.0000       2.567200        69.8571 
 133   0.0000       2.591803        70.5265 
 134   0.0000       2.619756        71.2872 
 135   0.0000       2.628710        71.5308 
 136   0.0000       2.639830        71.8334 
 137   0.0000       2.645976        72.0007 
 138   0.0000       2.677908        72.8696 
 139   0.0000       2.697542        73.4038 
 140   0.0000       2.710412        73.7541 
 141   0.0000       2.716597        73.9224 
 142   0.0000       2.766858        75.2900 
 143   0.0000       2.821149        76.7674 
 144   0.0000       2.879131        78.3452 
 145   0.0000       2.898446        78.8707 
 146   0.0000       2.905187        79.0542 
 147   0.0000       2.927782        79.6690 
 148   0.0000       2.953052        80.3566 
 149   0.0000       2.967674        80.7545 
 150   0.0000       2.980873        81.1137 
 151   0.0000       2.996622        81.5422 
 152   0.0000       3.013848        82.0110 
 153   0.0000       3.035755        82.6071 
 154   0.0000       3.048836        82.9630 
 155   0.0000       3.081408        83.8494 
 156   0.0000       3.090667        84.1013 
 157   0.0000       3.118468        84.8578 
 158   0.0000       3.137772        85.3831 
 159   0.0000       3.165599        86.1403 
 160   0.0000       3.197128        86.9983 
 161   0.0000       3.246619        88.3450 
 162   0.0000       3.251412        88.4754 
 163   0.0000       3.262510        88.7774 
 164   0.0000       3.313098        90.1540 
 165   0.0000       3.360167        91.4348 
 166   0.0000       3.442087        93.6640 
 167   0.0000       3.524565        95.9083 
 168   0.0000       3.972433       108.0954 
 169   0.0000       3.993275       108.6626 
 170   0.0000       4.048698       110.1707 
 171   0.0000       4.065375       110.6245 
 172   0.0000       4.114701       111.9667 
 173   0.0000       4.134210       112.4976 
 174   0.0000       4.251138       115.6793 
 175   0.0000       4.268848       116.1613 
 176   0.0000       4.312491       117.3488 
 177   0.0000       4.342820       118.1741 
 178   0.0000       4.362542       118.7108 
 179   0.0000       4.422792       120.3503 
 180   0.0000       5.494384       149.5098 
 181   0.0000       5.500755       149.6832 
 182   0.0000       5.539958       150.7499 
 183   0.0000       5.563428       151.3886 
 184   0.0000       5.574921       151.7013 
 185   0.0000       5.595287       152.2555 
 186   0.0000       5.599959       152.3826 
 187   0.0000       5.620858       152.9513 
 188   0.0000       5.672974       154.3695 
 189   0.0000       5.680229       154.5669 
 190   0.0000       5.681141       154.5917 
 191   0.0000       5.697718       155.0428 
 192   0.0000       5.763129       156.8227 
 193   0.0000       5.770149       157.0137 
 194   0.0000       5.795257       157.6970 
 195   0.0000       5.806067       157.9911 
 196   0.0000       5.824819       158.5014 
 197   0.0000       5.835607       158.7949 
 198   0.0000       5.840211       158.9202 
 199   0.0000       5.850468       159.1993 
 200   0.0000       5.852543       159.2558 
 201   0.0000       5.867824       159.6716 
 202   0.0000       5.873365       159.8224 
 203   0.0000       5.887176       160.1982 
 204   0.0000       5.897532       160.4800 
 205   0.0000       5.906032       160.7113 
 206   0.0000       5.908991       160.7918 
 207   0.0000       5.915403       160.9663 
 208   0.0000       5.925452       161.2397 
 209   0.0000       5.981577       162.7670 
 210   0.0000       6.381431       173.6476 
 211   0.0000       6.418136       174.6464 
 212   0.0000       6.473531       176.1537 
 213   0.0000       6.492163       176.6607 
 214   0.0000       6.510447       177.1583 
 215   0.0000       6.520862       177.4417 
 216   0.0000       6.634206       180.5259 
 217   0.0000       6.668536       181.4601 
 218   0.0000       6.712673       182.6611 
 219   0.0000       6.714879       182.7211 
 220   0.0000       6.748707       183.6417 
 221   0.0000       6.767029       184.1402 
 222   0.0000       6.825774       185.7388 
 223   0.0000       6.834660       185.9805 
 224   0.0000       6.847504       186.3301 
 225   0.0000       6.851933       186.4506 
 226   0.0000       6.860493       186.6835 
 227   0.0000       6.867850       186.8837 
 228   0.0000       6.898212       187.7099 
 229   0.0000       6.899904       187.7559 
 230   0.0000       6.904936       187.8929 
 231   0.0000       6.918243       188.2550 
 232   0.0000       6.931809       188.6241 
 233   0.0000       6.964910       189.5248 
 234   0.0000       6.972652       189.7355 
 235   0.0000       6.977169       189.8584 
 236   0.0000       6.986076       190.1008 
 237   0.0000       7.003932       190.5867 
 238   0.0000       7.031551       191.3382 
 239   0.0000       7.100309       193.2092 
 240   0.0000       7.332098       199.5165 
 241   0.0000       7.347323       199.9308 
 242   0.0000       7.423650       202.0078 
 243   0.0000       7.434658       202.3073 
 244   0.0000       7.448520       202.6845 
 245   0.0000       7.463107       203.0815 
 246   0.0000       7.468593       203.2308 
 247   0.0000       7.516762       204.5415 
 248   0.0000       7.543882       205.2795 
 249   0.0000       7.567589       205.9246 
 250   0.0000       7.590226       206.5406 
 251   0.0000       7.629380       207.6060 
 252   0.0000      44.874177      1221.0884 
 253   0.0000      44.892571      1221.5890 
 254   0.0000      44.951504      1223.1926 
 255   0.0000      44.977332      1223.8954 
 256   0.0000      44.982011      1224.0227 
 257   0.0000      45.047358      1225.8009 

                    ********************************
                    * MULLIKEN POPULATION ANALYSIS *
                    ********************************

-----------------------
MULLIKEN ATOMIC CHARGES
-----------------------
   0 O :   -0.740958
   1 H :    0.372996
   2 H :    0.384191
   3 O :   -0.722260
   4 H :    0.409791
   5 H :    0.334675
   6 O :   -0.715768
   7 H :    0.383373
   8 H :    0.362691
   9 O :   -0.772440
  10 H :    0.386442
  11 H :    0.363071
  12 O :   -0.761798
  13 H :    0.329747
  14 H :    0.395984
  15 O :   -0.731819
  16 H :    0.350737
  17 H :    0.371345
Sum of atomic charges:   -0.0000000

--------------------------------
MULLIKEN REDUCED ORBITAL CHARGES
--------------------------------
  0 O s       :     3.808395  s :     3.808395
      pz      :     1.730832  p :     4.906999
      px      :     1.381803
      py      :     1.794365
      dz2     :     0.004054  d :     0.024088
      dxz     :     0.004517
      dyz     :     0.005491
      dx2y2   :     0.002545
      dxy     :     0.007481
      f0      :     0.000085  f :     0.001476
      f+1     :     0.000334
      f-1     :     0.000179
      f+2     :     0.000063
      f-2     :     0.000347
      f+3     :     0.000093
      f-3     :     0.000374
  1 H s       :     0.582017  s :     0.582017
      pz      :     0.016985  p :     0.044987
      px      :     0.013336
      py      :     0.014666
  2 H s       :     0.575256  s :     0.575256
      pz      :     0.010451  p :     0.040553
      px      :     0.017996
      py      :     0.012106
  3 O s       :     3.797377  s :     3.797377
      pz      :     1.585015  p :     4.898471
      px      :     1.529885
      py      :     1.783571
      dz2     :     0.011745  d :     0.025007
      dxz     :     0.001146
      dyz     :     0.002424
      dx2y2   :     0.002515
      dxy     :     0.007177
      f0      :     0.000224  f :     0.001405
      f+1     :     0.000382
      f-1     :     0.000157
      f+2     :     0.000051
      f-2     :     0.000056
      f+3     :     0.000055
      f-3     :     0.000480
  4 H s       :     0.542350  s :     0.542350
      pz      :     0.025437  p :     0.047859
      px      :     0.010864
      py      :     0.011558
  5 H s       :     0.621055  s :     0.621055
      pz      :     0.010939  p :     0.044270
      px      :     0.018066
      py      :     0.015265
  6 O s       :     3.806461  s :     3.806461
      pz      :     1.551657  p :     4.881826
      px      :     1.848068
      py      :     1.482101
      dz2     :     0.012077  d :     0.026042
      dxz     :     0.002341
      dyz     :     0.002975
      dx2y2   :     0.003631
      dxy     :     0.005017
      f0      :     0.000172  f :     0.001440
      f+1     :     0.000119
      f-1     :     0.000472
      f+2     :     0.000069
      f-2     :     0.000042
      f+3     :     0.000456
      f-3     :     0.000109
  7 H s       :     0.574527  s :     0.574527
      pz      :     0.009538  p :     0.042100
      px      :     0.013709
      py      :     0.018853
  8 H s       :     0.593321  s :     0.593321
      pz      :     0.018918  p :     0.043988
      px      :     0.013466
      py      :     0.011605
  9 O s       :     3.805060  s :     3.805060
      pz      :     1.581977  p :     4.943611
      px      :     1.483993
      py      :     1.877641
      dz2     :     0.009602  d :     0.022354
      dxz     :     0.002395
      dyz     :     0.002337
      dx2y2   :     0.002836
      dxy     :     0.005183
      f0      :     0.000189  f :     0.001415
      f+1     :     0.000422
      f-1     :     0.000119
      f+2     :     0.000078
      f-2     :     0.000036
      f+3     :     0.000119
      f-3     :     0.000452
 10 H s       :     0.564190  s :     0.564190
      pz      :     0.024091  p :     0.049368
      px      :     0.011760
      py      :     0.013516
 11 H s       :     0.582879  s :     0.582879
      pz      :     0.009512  p :     0.054051
      px      :     0.028343
      py      :     0.016196
 12 O s       :     3.807299  s :     3.807299
      pz      :     1.717509  p :     4.929144
      px      :     1.803556
      py      :     1.408079
      dz2     :     0.004104  d :     0.023883
      dxz     :     0.005612
      dyz     :     0.004777
      dx2y2   :     0.002319
      dxy     :     0.007071
      f0      :     0.000088  f :     0.001472
      f+1     :     0.000185
      f-1     :     0.000329
      f+2     :     0.000070
      f-2     :     0.000360
      f+3     :     0.000351
      f-3     :     0.000088
 13 H s       :     0.624123  s :     0.624123
      pz      :     0.017091  p :     0.046129
      px      :     0.015218
      py      :     0.013820
 14 H s       :     0.547129  s :     0.547129
      pz      :     0.010800  p :     0.056887
      px      :     0.013953
      py      :     0.032133
 15 O s       :     3.809520  s :     3.809520
      pz      :     1.505337  p :     4.895374
      px      :     1.821705
      py      :     1.568333
      dz2     :     0.011946  d :     0.025435
      dxz     :     0.002958
      dyz     :     0.001229
      dx2y2   :     0.002098
      dxy     :     0.007205
      f0      :     0.000271  f :     0.001490
      f+1     :     0.000169
      f-1     :     0.000381
      f+2     :     0.000057
      f-2     :     0.000056
      f+3     :     0.000490
      f-3     :     0.000066
 16 H s       :     0.604682  s :     0.604682
      pz      :     0.018896  p :     0.044580
      px      :     0.013554
      py      :     0.012130
 17 H s       :     0.578403  s :     0.578403
      pz      :     0.010095  p :     0.050252
      px      :     0.016581
      py      :     0.023576


                     *******************************
                     * LOEWDIN POPULATION ANALYSIS *
                     *******************************

----------------------
LOEWDIN ATOMIC CHARGES
----------------------
   0 O :   -0.296183
   1 H :    0.167309
   2 H :    0.193733
   3 O :   -0.287174
   4 H :    0.166351
   5 H :    0.160542
   6 O :   -0.300224
   7 H :    0.187605
   8 H :    0.170909
   9 O :   -0.351261
  10 H :    0.154479
  11 H :    0.145172
  12 O :   -0.375839
  13 H :    0.146052
  14 H :    0.152105
  15 O :   -0.349420
  16 H :    0.165127
  17 H :    0.150715

-------------------------------
LOEWDIN REDUCED ORBITAL CHARGES
-------------------------------
  0 O s       :     3.462701  s :     3.462701
      pz      :     1.687160  p :     4.799789
      px      :     1.364647
      py      :     1.747982
      dz2     :     0.005478  d :     0.031624
      dxz     :     0.006716
      dyz     :     0.005385
      dx2y2   :     0.004214
      dxy     :     0.009832
      f0      :     0.000091  f :     0.002068
      f+1     :     0.000448
      f-1     :     0.000271
      f+2     :     0.000033
      f-2     :     0.000599
      f+3     :     0.000091
      f-3     :     0.000535
  1 H s       :     0.668521  s :     0.668521
      pz      :     0.066760  p :     0.164170
      px      :     0.044577
      py      :     0.052833
  2 H s       :     0.657223  s :     0.657223
      pz      :     0.033294  p :     0.149043
      px      :     0.072292
      py      :     0.043457
  3 O s       :     3.454362  s :     3.454362
      pz      :     1.550845  p :     4.798395
      px      :     1.521872
      py      :     1.725678
      dz2     :     0.015145  d :     0.032281
      dxz     :     0.001637
      dyz     :     0.001830
      dx2y2   :     0.003871
      dxy     :     0.009798
      f0      :     0.000392  f :     0.002136
      f+1     :     0.000564
      f-1     :     0.000337
      f+2     :     0.000021
      f-2     :     0.000045
      f+3     :     0.000027
      f-3     :     0.000750
  4 H s       :     0.660494  s :     0.660494
      pz      :     0.096552  p :     0.173155
      px      :     0.035557
      py      :     0.041046
  5 H s       :     0.681682  s :     0.681682
      pz      :     0.031724  p :     0.157776
      px      :     0.071075
      py      :     0.054976
  6 O s       :     3.469312  s :     3.469312
      pz      :     1.547214  p :     4.795934
      px      :     1.787689
      py      :     1.461032
      dz2     :     0.015558  d :     0.032873
      dxz     :     0.001460
      dyz     :     0.004169
      dx2y2   :     0.005299
      dxy     :     0.006386
      f0      :     0.000369  f :     0.002104
      f+1     :     0.000212
      f-1     :     0.000754
      f+2     :     0.000042
      f-2     :     0.000045
      f+3     :     0.000610
      f-3     :     0.000072
  7 H s       :     0.658456  s :     0.658456
      pz      :     0.028908  p :     0.153938
      px      :     0.049174
      py      :     0.075857
  8 H s       :     0.670421  s :     0.670421
      pz      :     0.080029  p :     0.158669
      px      :     0.043072
      py      :     0.035569
  9 O s       :     3.456698  s :     3.456698
      pz      :     1.549570  p :     4.863957
      px      :     1.476493
      py      :     1.837894
      dz2     :     0.013281  d :     0.028652
      dxz     :     0.003683
      dyz     :     0.001557
      dx2y2   :     0.003814
      dxy     :     0.006318
      f0      :     0.000365  f :     0.001954
      f+1     :     0.000688
      f-1     :     0.000183
      f+2     :     0.000042
      f-2     :     0.000041
      f+3     :     0.000067
      f-3     :     0.000568
 10 H s       :     0.673414  s :     0.673414
      pz      :     0.092055  p :     0.172108
      px      :     0.036928
      py      :     0.043125
 11 H s       :     0.669941  s :     0.669941
      pz      :     0.030609  p :     0.184887
      px      :     0.101629
      py      :     0.052649
 12 O s       :     3.468127  s :     3.468127
      pz      :     1.704549  p :     4.875903
      px      :     1.780084
      py      :     1.391270
      dz2     :     0.004322  d :     0.029794
      dxz     :     0.005850
      dyz     :     0.007300
      dx2y2   :     0.003323
      dxy     :     0.008999
      f0      :     0.000074  f :     0.002016
      f+1     :     0.000267
      f-1     :     0.000441
      f+2     :     0.000034
      f-2     :     0.000636
      f+3     :     0.000479
      f-3     :     0.000085
 13 H s       :     0.689633  s :     0.689633
      pz      :     0.065552  p :     0.164315
      px      :     0.053275
      py      :     0.045488
 14 H s       :     0.653728  s :     0.653728
      pz      :     0.033576  p :     0.194166
      px      :     0.047524
      py      :     0.113066
 15 O s       :     3.466617  s :     3.466617
      pz      :     1.510366  p :     4.848996
      px      :     1.793841
      py      :     1.544789
      dz2     :     0.016082  d :     0.031681
      dxz     :     0.002398
      dyz     :     0.002087
      dx2y2   :     0.002122
      dxy     :     0.008992
      f0      :     0.000490  f :     0.002126
      f+1     :     0.000317
      f-1     :     0.000578
      f+2     :     0.000025
      f-2     :     0.000049
      f+3     :     0.000663
      f-3     :     0.000002
 16 H s       :     0.676467  s :     0.676467
      pz      :     0.080096  p :     0.158406
      px      :     0.042149
      py      :     0.036161
 17 H s       :     0.677176  s :     0.677176
      pz      :     0.029929  p :     0.172109
      px      :     0.057851
      py      :     0.084329


                      *****************************
                      * MAYER POPULATION ANALYSIS *
                      *****************************

  NA   - Mulliken gross atomic population
  ZA   - Total nuclear charge
  QA   - Mulliken gross atomic charge
  VA   - Mayer's total valence
  BVA  - Mayer's bonded valence
  FA   - Mayer's free valence

  ATOM       NA         ZA         QA         VA         BVA        FA
  0 O      8.7410     8.0000    -0.7410     1.7551     1.7551    -0.0000
  1 H      0.6270     1.0000     0.3730     0.8765     0.8765    -0.0000
  2 H      0.6158     1.0000     0.3842     0.8663     0.8663    -0.0000
  3 O      8.7223     8.0000    -0.7223     1.7536     1.7536    -0.0000
  4 H      0.5902     1.0000     0.4098     0.8625     0.8625    -0.0000
  5 H      0.6653     1.0000     0.3347     0.9047     0.9047     0.0000
  6 O      8.7158     8.0000    -0.7158     1.7724     1.7724    -0.0000
  7 H      0.6166     1.0000     0.3834     0.8665     0.8665    -0.0000
  8 H      0.6373     1.0000     0.3627     0.8837     0.8837    -0.0000
  9 O      8.7724     8.0000    -0.7724     1.6921     1.6921    -0.0000
 10 H      0.6136     1.0000     0.3864     0.8789     0.8789     0.0000
 11 H      0.6369     1.0000     0.3631     0.9054     0.9054    -0.0000
 12 O      8.7618     8.0000    -0.7618     1.6940     1.6940    -0.0000
 13 H      0.6703     1.0000     0.3297     0.9067     0.9067    -0.0000
 14 H      0.6040     1.0000     0.3960     0.8796     0.8796    -0.0000
 15 O      8.7318     8.0000    -0.7318     1.7470     1.7470    -0.0000
 16 H      0.6493     1.0000     0.3507     0.8922     0.8922    -0.0000
 17 H      0.6287     1.0000     0.3713     0.8895     0.8895    -0.0000

  Mayer bond orders larger than 0.100000
B(  0-O ,  1-H ) :   0.8675 B(  0-O ,  2-H ) :   0.8553 B(  3-O ,  4-H ) :   0.8207 
B(  3-O ,  5-H ) :   0.8949 B(  6-O ,  7-H ) :   0.8596 B(  6-O ,  8-H ) :   0.8764 
B(  9-O , 10-H ) :   0.8515 B(  9-O , 11-H ) :   0.8360 B( 12-O , 13-H ) :   0.9012 
B( 12-O , 14-H ) :   0.8136 B( 15-O , 16-H ) :   0.8866 B( 15-O , 17-H ) :   0.8621 


-------
TIMINGS
-------

Total SCF time: 0 days 0 hours 0 min 11 sec 

Total time                  ....      11.636 sec
Sum of individual times     ....      11.433 sec  ( 98.3%)

Fock matrix formation       ....      10.787 sec  ( 92.7%)
Diagonalization             ....       0.169 sec  (  1.5%)
Density matrix formation    ....       0.045 sec  (  0.4%)
Population analysis         ....       0.033 sec  (  0.3%)
Initial guess               ....       0.124 sec  (  1.1%)
Orbital Transformation      ....       0.000 sec  (  0.0%)
Orbital Orthonormalization  ....       0.000 sec  (  0.0%)
DIIS solution               ....       0.066 sec  (  0.6%)
SOSCF solution              ....       0.157 sec  (  1.3%)


           ************************************************************
           *        Program running with 6 parallel MPI-processes     *
           *              working on a common directory               *
           ************************************************************

------------------------------------------------------------------------------
                                ORCA  MP2 
------------------------------------------------------------------------------

Freezing NCore=12 chemical core electrons
MP2 will be done in the AO integral direct mode
The Q1-step will be done using symmetric double matrices
Dimension of the basis                    ...  258
Memory devoted for MP2                    ... 8000 MB   
Memory needed for all in one shot         ...  264 MB
Number of MOs that can be treated together...  120      
MP2 density construction                  ... relaxed
The MP2 gradient is requested => amplitudes will be stored on disk
Total number of MOs              ...   24
Number of MOs treated per batch  ...    4 
Number of batches necessary      ...    1 
OPERATORS   0/  0 PASS   0
-----------------------------------------------
 MP2 CORRELATION ENERGY   :     -1.548494304 Eh
-----------------------------------------------


---------------------
MP2 DENSITY FORMATION
---------------------

Completing the external part of the density      ... done
Storing the unrelaxed density                    ... done

Calculating G(D)                                 ... done
Completing the Lagrangian                        ... done
Solving the Z-vector equations                   ... 

------------------------------------------------------------------------------
                           ORCA CP-SCF CALCULATION
------------------------------------------------------------------------------

Input orbitals are from        ... 12h2o.su.etal.mol1,3,5,7,10,11-orca.engrad-mp2.def2tzvp.frozencore.gbw
Input Perturbation             ... 12h2o.su.etal.mol1,3,5,7,10,11-orca.engrad-mp2.def2tzvp.frozencore.pin.tmp
Wavefunction output            ... 12h2o.su.etal.mol1,3,5,7,10,11-orca.engrad-mp2.def2tzvp.frozencore.pout.tmp
Perturbation mode              ... Real perturbation (singlet)
Solver                         ... POPLE
Max. number of iterations      ... 128
Convergence tolerance          ... 1.000e-08
Integral handling              ... Direct
Number of perturbations        ... 1
Number of operators            ... 1
Orbital ranges used for CP-SCF:
 Operator 0:  Orbitals   0... 29  to  30...257
Variables per vector in CP-SCF ... 6840
Number of vectors sought       ... 1
     CP-SCF ITERATION   0: 
     CP-SCF ITERATION   1:      0.000727205000
     CP-SCF ITERATION   2:      0.000017427925
     CP-SCF ITERATION   3:      0.000000657775
     CP-SCF ITERATION   4:      0.000000065429
     CP-SCF ITERATION   5:      0.000000005200
                                                 ... done
Finalizing the relaxed density                   ... done
Transforming P to the AO basis                   ... done
Storing the relaxed density                      ... done

------------------------------------
ENERGY WEIGHTED DENSITY FINALIZATION
------------------------------------

Gathering the parts of the W-matrix              ...                                                      done
Forming the Z-density                            ... done
Transforming Z to the AO basis                   ... done
Calculating G(Z)                                 ... done
Finalizing the W-matrix                          ...                                                      done
Transforming W to the AO basis and storing       ... done

                *********************************************
                * UNRELAXED MP2 DENSITY POPULATION ANALYSIS *
                *********************************************

------------------------------------------------------------------------------
                           ORCA POPULATION ANALYSIS
------------------------------------------------------------------------------
Input electron density              ... 12h2o.su.etal.mol1,3,5,7,10,11-orca.engrad-mp2.def2tzvp.frozencore.pmp2ur
BaseName (.gbw .S,...)              ... 12h2o.su.etal.mol1,3,5,7,10,11-orca.engrad-mp2.def2tzvp.frozencore

                    ********************************
                    * MULLIKEN POPULATION ANALYSIS *
                    ********************************

-----------------------
MULLIKEN ATOMIC CHARGES
-----------------------
   0 O :   -0.735268
   1 H :    0.370751
   2 H :    0.381361
   3 O :   -0.715778
   4 H :    0.406656
   5 H :    0.332124
   6 O :   -0.709607
   7 H :    0.380794
   8 H :    0.360249
   9 O :   -0.766070
  10 H :    0.383568
  11 H :    0.358673
  12 O :   -0.756405
  13 H :    0.327479
  14 H :    0.391589
  15 O :   -0.726646
  16 H :    0.348297
  17 H :    0.368233
Sum of atomic charges:   -0.0000000

--------------------------------
MULLIKEN REDUCED ORBITAL CHARGES
--------------------------------
  0 O s       :     3.803546  s :     3.803546
      pz      :     1.719784  p :     4.876344
      px      :     1.373983
      py      :     1.782576
      dz2     :     0.009612  d :     0.051334
      dxz     :     0.009918
      dyz     :     0.010983
      dx2y2   :     0.008023
      dxy     :     0.012797
      f0      :     0.000457  f :     0.004044
      f+1     :     0.000697
      f-1     :     0.000547
      f+2     :     0.000432
      f-2     :     0.000713
      f+3     :     0.000465
      f-3     :     0.000734
  1 H s       :     0.582744  s :     0.582744
      pz      :     0.017443  p :     0.046504
      px      :     0.013711
      py      :     0.015350
  2 H s       :     0.576597  s :     0.576597
      pz      :     0.011269  p :     0.042042
      px      :     0.017927
      py      :     0.012845
  3 O s       :     3.792201  s :     3.792201
      pz      :     1.575249  p :     4.867285
      px      :     1.520696
      py      :     1.771339
      dz2     :     0.016974  d :     0.052292
      dxz     :     0.006593
      dyz     :     0.008036
      dx2y2   :     0.008146
      dxy     :     0.012542
      f0      :     0.000609  f :     0.004000
      f+1     :     0.000751
      f-1     :     0.000536
      f+2     :     0.000414
      f-2     :     0.000423
      f+3     :     0.000429
      f-3     :     0.000839
  4 H s       :     0.544082  s :     0.544082
      pz      :     0.025457  p :     0.049262
      px      :     0.011476
      py      :     0.012329
  5 H s       :     0.621925  s :     0.621925
      pz      :     0.011758  p :     0.045951
      px      :     0.018270
      py      :     0.015923
  6 O s       :     3.801354  s :     3.801354
      pz      :     1.542282  p :     4.851270
      px      :     1.835489
      py      :     1.473500
      dz2     :     0.017152  d :     0.052972
      dxz     :     0.007915
      dyz     :     0.008258
      dx2y2   :     0.009164
      dxy     :     0.010483
      f0      :     0.000553  f :     0.004010
      f+1     :     0.000493
      f-1     :     0.000835
      f+2     :     0.000433
      f-2     :     0.000407
      f+3     :     0.000812
      f-3     :     0.000479
  7 H s       :     0.575597  s :     0.575597
      pz      :     0.010325  p :     0.043609
      px      :     0.014413
      py      :     0.018871
  8 H s       :     0.594169  s :     0.594169
      pz      :     0.019068  p :     0.045582
      px      :     0.014312
      py      :     0.012202
  9 O s       :     3.800092  s :     3.800092
      pz      :     1.571959  p :     4.911973
      px      :     1.474526
      py      :     1.865488
      dz2     :     0.015083  d :     0.050002
      dxz     :     0.007900
      dyz     :     0.008012
      dx2y2   :     0.008389
      dxy     :     0.010617
      f0      :     0.000576  f :     0.004004
      f+1     :     0.000794
      f-1     :     0.000494
      f+2     :     0.000443
      f-2     :     0.000404
      f+3     :     0.000485
      f-3     :     0.000808
 10 H s       :     0.565524  s :     0.565524
      pz      :     0.024201  p :     0.050908
      px      :     0.012348
      py      :     0.014359
 11 H s       :     0.585560  s :     0.585560
      pz      :     0.010342  p :     0.055767
      px      :     0.028485
      py      :     0.016940
 12 O s       :     3.802362  s :     3.802362
      pz      :     1.707118  p :     4.899116
      px      :     1.792327
      py      :     1.399670
      dz2     :     0.009572  d :     0.050889
      dxz     :     0.010939
      dyz     :     0.010141
      dx2y2   :     0.007817
      dxy     :     0.012421
      f0      :     0.000456  f :     0.004038
      f+1     :     0.000548
      f-1     :     0.000693
      f+2     :     0.000438
      f-2     :     0.000725
      f+3     :     0.000717
      f-3     :     0.000462
 13 H s       :     0.624645  s :     0.624645
      pz      :     0.017613  p :     0.047877
      px      :     0.015970
      py      :     0.014293
 14 H s       :     0.549847  s :     0.549847
      pz      :     0.011639  p :     0.058564
      px      :     0.014685
      py      :     0.032240
 15 O s       :     3.804702  s :     3.804702
      pz      :     1.496406  p :     4.865811
      px      :     1.810283
      py      :     1.559122
      dz2     :     0.016969  d :     0.052082
      dxz     :     0.008388
      dyz     :     0.006618
      dx2y2   :     0.007634
      dxy     :     0.012473
      f0      :     0.000647  f :     0.004051
      f+1     :     0.000539
      f-1     :     0.000746
      f+2     :     0.000415
      f-2     :     0.000421
      f+3     :     0.000847
      f-3     :     0.000436
 16 H s       :     0.605474  s :     0.605474
      pz      :     0.018973  p :     0.046229
      px      :     0.014415
      py      :     0.012842
 17 H s       :     0.579890  s :     0.579890
      pz      :     0.010885  p :     0.051877
      px      :     0.017205
      py      :     0.023786


                     *******************************
                     * LOEWDIN POPULATION ANALYSIS *
                     *******************************

----------------------
LOEWDIN ATOMIC CHARGES
----------------------
   0 O :   -0.291816
   1 H :    0.166139
   2 H :    0.191948
   3 O :   -0.283025
   4 H :    0.164404
   5 H :    0.158893
   6 O :   -0.295920
   7 H :    0.186134
   8 H :    0.169504
   9 O :   -0.347736
  10 H :    0.152480
  11 H :    0.142560
  12 O :   -0.373537
  13 H :    0.144747
  14 H :    0.149613
  15 O :   -0.346761
  16 H :    0.163725
  17 H :    0.148649

-------------------------------
LOEWDIN REDUCED ORBITAL CHARGES
-------------------------------
  0 O s       :     3.458929  s :     3.458929
      pz      :     1.675683  p :     4.768097
      px      :     1.356462
      py      :     1.735953
      dz2     :     0.011167  d :     0.059959
      dxz     :     0.012324
      dyz     :     0.011167
      dx2y2   :     0.009793
      dxy     :     0.015508
      f0      :     0.000475  f :     0.004831
      f+1     :     0.000858
      f-1     :     0.000658
      f+2     :     0.000409
      f-2     :     0.001007
      f+3     :     0.000475
      f-3     :     0.000949
  1 H s       :     0.666765  s :     0.666765
      pz      :     0.067927  p :     0.167097
      px      :     0.045372
      py      :     0.053798
  2 H s       :     0.656041  s :     0.656041
      pz      :     0.034125  p :     0.152011
      px      :     0.073462
      py      :     0.044425
  3 O s       :     3.450549  s :     3.450549
      pz      :     1.541201  p :     4.766936
      px      :     1.512392
      py      :     1.713343
      dz2     :     0.021034  d :     0.060611
      dxz     :     0.007036
      dyz     :     0.007372
      dx2y2   :     0.009483
      dxy     :     0.015685
      f0      :     0.000818  f :     0.004929
      f+1     :     0.000987
      f-1     :     0.000739
      f+2     :     0.000389
      f-2     :     0.000420
      f+3     :     0.000407
      f-3     :     0.001171
  4 H s       :     0.659824  s :     0.659824
      pz      :     0.097702  p :     0.175772
      px      :     0.036252
      py      :     0.041819
  5 H s       :     0.679967  s :     0.679967
      pz      :     0.032517  p :     0.161140
      px      :     0.072544
      py      :     0.056079
  6 O s       :     3.465424  s :     3.465424
      pz      :     1.537534  p :     4.764793
      px      :     1.775082
      py      :     1.452177
      dz2     :     0.021280  d :     0.060834
      dxz     :     0.006951
      dyz     :     0.009479
      dx2y2   :     0.010996
      dxy     :     0.012129
      f0      :     0.000781  f :     0.004869
      f+1     :     0.000600
      f-1     :     0.001186
      f+2     :     0.000413
      f-2     :     0.000416
      f+3     :     0.001021
      f-3     :     0.000452
  7 H s       :     0.657009  s :     0.657009
      pz      :     0.029676  p :     0.156858
      px      :     0.050073
      py      :     0.077108
  8 H s       :     0.668743  s :     0.668743
      pz      :     0.081578  p :     0.161753
      px      :     0.043861
      py      :     0.036314
  9 O s       :     3.453029  s :     3.453029
      pz      :     1.539020  p :     4.832521
      px      :     1.467188
      py      :     1.826314
      dz2     :     0.019340  d :     0.057444
      dxz     :     0.009239
      dyz     :     0.007166
      dx2y2   :     0.009574
      dxy     :     0.012124
      f0      :     0.000784  f :     0.004742
      f+1     :     0.001130
      f-1     :     0.000574
      f+2     :     0.000414
      f-2     :     0.000416
      f+3     :     0.000444
      f-3     :     0.000980
 10 H s       :     0.672506  s :     0.672506
      pz      :     0.093386  p :     0.175014
      px      :     0.037717
      py      :     0.043911
 11 H s       :     0.669631  s :     0.669631
      pz      :     0.031467  p :     0.187809
      px      :     0.102784
      py      :     0.053558
 12 O s       :     3.464485  s :     3.464485
      pz      :     1.694185  p :     4.846406
      px      :     1.769215
      py      :     1.383006
      dz2     :     0.009866  d :     0.057869
      dxz     :     0.011499
      dyz     :     0.012885
      dx2y2   :     0.008921
      dxy     :     0.014698
      f0      :     0.000452  f :     0.004777
      f+1     :     0.000650
      f-1     :     0.000853
      f+2     :     0.000410
      f-2     :     0.001045
      f+3     :     0.000897
      f-3     :     0.000472
 13 H s       :     0.687578  s :     0.687578
      pz      :     0.066885  p :     0.167675
      px      :     0.054314
      py      :     0.046477
 14 H s       :     0.653751  s :     0.653751
      pz      :     0.034418  p :     0.196636
      px      :     0.048398
      py      :     0.113821
 15 O s       :     3.462910  s :     3.462910
      pz      :     1.501162  p :     4.819550
      px      :     1.782889
      py      :     1.535499
      dz2     :     0.021815  d :     0.059421
      dxz     :     0.007769
      dyz     :     0.007409
      dx2y2   :     0.007629
      dxy     :     0.014799
      f0      :     0.000906  f :     0.004880
      f+1     :     0.000711
      f-1     :     0.000998
      f+2     :     0.000389
      f-2     :     0.000421
      f+3     :     0.001079
      f-3     :     0.000377
 16 H s       :     0.674688  s :     0.674688
      pz      :     0.081689  p :     0.161587
      px      :     0.042965
      py      :     0.036933
 17 H s       :     0.676260  s :     0.676260
      pz      :     0.030692  p :     0.175091
      px      :     0.058826
      py      :     0.085574


                      *****************************
                      * MAYER POPULATION ANALYSIS *
                      *****************************

  NA   - Mulliken gross atomic population
  ZA   - Total nuclear charge
  QA   - Mulliken gross atomic charge
  VA   - Mayer's total valence
  BVA  - Mayer's bonded valence
  FA   - Mayer's free valence

  ATOM       NA         ZA         QA         VA         BVA        FA
  0 O      8.7353     8.0000    -0.7353     2.0673     1.6754     0.3919
  1 H      0.6292     1.0000     0.3708     0.8820     0.8373     0.0447
  2 H      0.6186     1.0000     0.3814     0.8723     0.8255     0.0467
  3 O      8.7158     8.0000    -0.7158     2.0618     1.6741     0.3877
  4 H      0.5933     1.0000     0.4067     0.8685     0.8259     0.0426
  5 H      0.6679     1.0000     0.3321     0.9110     0.8620     0.0491
  6 O      8.7096     8.0000    -0.7096     2.0802     1.6917     0.3884
  7 H      0.6192     1.0000     0.3808     0.8723     0.8267     0.0455
  8 H      0.6398     1.0000     0.3602     0.8895     0.8431     0.0464
  9 O      8.7661     8.0000    -0.7661     2.0085     1.6138     0.3947
 10 H      0.6164     1.0000     0.3836     0.8848     0.8404     0.0444
 11 H      0.6413     1.0000     0.3587     0.9133     0.8647     0.0486
 12 O      8.7564     8.0000    -0.7564     2.0071     1.6156     0.3915
 13 H      0.6725     1.0000     0.3275     0.9128     0.8646     0.0482
 14 H      0.6084     1.0000     0.3916     0.8869     0.8414     0.0455
 15 O      8.7266     8.0000    -0.7266     2.0546     1.6672     0.3875
 16 H      0.6517     1.0000     0.3483     0.8982     0.8510     0.0472
 17 H      0.6318     1.0000     0.3682     0.8959     0.8503     0.0456

  Mayer bond orders larger than 0.100000
B(  0-O ,  1-H ) :   0.8289 B(  0-O ,  2-H ) :   0.8151 B(  3-O ,  4-H ) :   0.7854 
B(  3-O ,  5-H ) :   0.8528 B(  6-O ,  7-H ) :   0.8203 B(  6-O ,  8-H ) :   0.8364 
B(  9-O , 10-H ) :   0.8138 B(  9-O , 11-H ) :   0.7971 B( 12-O , 13-H ) :   0.8596 
B( 12-O , 14-H ) :   0.7771 B( 15-O , 16-H ) :   0.8459 B( 15-O , 17-H ) :   0.8236 



                *******************************************
                * RELAXED MP2 DENSITY POPULATION ANALYSIS *
                *******************************************

------------------------------------------------------------------------------
                           ORCA POPULATION ANALYSIS
------------------------------------------------------------------------------
Input electron density              ... 12h2o.su.etal.mol1,3,5,7,10,11-orca.engrad-mp2.def2tzvp.frozencore.pmp2re
BaseName (.gbw .S,...)              ... 12h2o.su.etal.mol1,3,5,7,10,11-orca.engrad-mp2.def2tzvp.frozencore

                    ********************************
                    * MULLIKEN POPULATION ANALYSIS *
                    ********************************

-----------------------
MULLIKEN ATOMIC CHARGES
-----------------------
   0 O :   -0.713370
   1 H :    0.363705
   2 H :    0.373851
   3 O :   -0.689188
   4 H :    0.390834
   5 H :    0.325966
   6 O :   -0.686609
   7 H :    0.374212
   8 H :    0.354257
   9 O :   -0.737245
  10 H :    0.368580
  11 H :    0.337545
  12 O :   -0.738324
  13 H :    0.321563
  14 H :    0.369145
  15 O :   -0.709918
  16 H :    0.341774
  17 H :    0.353220
Sum of atomic charges:   -0.0000000

--------------------------------
MULLIKEN REDUCED ORBITAL CHARGES
--------------------------------
  0 O s       :     3.807425  s :     3.807425
      pz      :     1.710759  p :     4.852781
      px      :     1.370622
      py      :     1.771399
      dz2     :     0.009390  d :     0.049192
      dxz     :     0.009328
      dyz     :     0.010721
      dx2y2   :     0.007783
      dxy     :     0.011971
      f0      :     0.000456  f :     0.003971
      f+1     :     0.000678
      f-1     :     0.000538
      f+2     :     0.000432
      f-2     :     0.000692
      f+3     :     0.000463
      f-3     :     0.000713
  1 H s       :     0.589106  s :     0.589106
      pz      :     0.017559  p :     0.047189
      px      :     0.013634
      py      :     0.015995
  2 H s       :     0.583579  s :     0.583579
      pz      :     0.012089  p :     0.042570
      px      :     0.016951
      py      :     0.013530
  3 O s       :     3.792430  s :     3.792430
      pz      :     1.572526  p :     4.842501
      px      :     1.513987
      py      :     1.755988
      dz2     :     0.015816  d :     0.050330
      dxz     :     0.006569
      dyz     :     0.008026
      dx2y2   :     0.008098
      dxy     :     0.011820
      f0      :     0.000592  f :     0.003927
      f+1     :     0.000729
      f-1     :     0.000527
      f+2     :     0.000415
      f-2     :     0.000422
      f+3     :     0.000429
      f-3     :     0.000814
  4 H s       :     0.559560  s :     0.559560
      pz      :     0.024651  p :     0.049606
      px      :     0.011886
      py      :     0.013069
  5 H s       :     0.627277  s :     0.627277
      pz      :     0.012528  p :     0.046757
      px      :     0.017708
      py      :     0.016521
  6 O s       :     3.804578  s :     3.804578
      pz      :     1.536546  p :     4.827266
      px      :     1.820741
      py      :     1.469979
      dz2     :     0.015919  d :     0.050830
      dxz     :     0.007980
      dyz     :     0.008004
      dx2y2   :     0.008895
      dxy     :     0.010032
      f0      :     0.000538  f :     0.003936
      f+1     :     0.000487
      f-1     :     0.000806
      f+2     :     0.000432
      f-2     :     0.000405
      f+3     :     0.000790
      f-3     :     0.000477
  7 H s       :     0.581643  s :     0.581643
      pz      :     0.011006  p :     0.044145
      px      :     0.015069
      py      :     0.018070
  8 H s       :     0.599486  s :     0.599486
      pz      :     0.018392  p :     0.046257
      px      :     0.015287
      py      :     0.012578
  9 O s       :     3.798990  s :     3.798990
      pz      :     1.562466  p :     4.886216
      px      :     1.465411
      py      :     1.858339
      dz2     :     0.014092  d :     0.048102
      dxz     :     0.007641
      dyz     :     0.008027
      dx2y2   :     0.008182
      dxy     :     0.010160
      f0      :     0.000566  f :     0.003937
      f+1     :     0.000765
      f-1     :     0.000488
      f+2     :     0.000442
      f-2     :     0.000403
      f+3     :     0.000484
      f-3     :     0.000789
 10 H s       :     0.579916  s :     0.579916
      pz      :     0.023479  p :     0.051504
      px      :     0.012746
      py      :     0.015279
 11 H s       :     0.606093  s :     0.606093
      pz      :     0.011105  p :     0.056362
      px      :     0.027646
      py      :     0.017611
 12 O s       :     3.802710  s :     3.802710
      pz      :     1.702221  p :     4.882645
      px      :     1.787333
      py      :     1.393091
      dz2     :     0.009370  d :     0.048995
      dxz     :     0.010639
      dyz     :     0.009571
      dx2y2   :     0.007692
      dxy     :     0.011723
      f0      :     0.000454  f :     0.003974
      f+1     :     0.000540
      f-1     :     0.000676
      f+2     :     0.000438
      f-2     :     0.000706
      f+3     :     0.000700
      f-3     :     0.000460
 13 H s       :     0.629748  s :     0.629748
      pz      :     0.017770  p :     0.048688
      px      :     0.016627
      py      :     0.014292
 14 H s       :     0.572080  s :     0.572080
      pz      :     0.012414  p :     0.058775
      px      :     0.015197
      py      :     0.031164
 15 O s       :     3.805891  s :     3.805891
      pz      :     1.489534  p :     4.850088
      px      :     1.803536
      py      :     1.557019
      dz2     :     0.015634  d :     0.049959
      dxz     :     0.008343
      dyz     :     0.006560
      dx2y2   :     0.007598
      dxy     :     0.011823
      f0      :     0.000629  f :     0.003979
      f+1     :     0.000529
      f-1     :     0.000724
      f+2     :     0.000416
      f-2     :     0.000420
      f+3     :     0.000825
      f-3     :     0.000436
 16 H s       :     0.611282  s :     0.611282
      pz      :     0.018212  p :     0.046944
      px      :     0.015330
      py      :     0.013402
 17 H s       :     0.594313  s :     0.594313
      pz      :     0.011558  p :     0.052467
      px      :     0.017651
      py      :     0.023257


                     *******************************
                     * LOEWDIN POPULATION ANALYSIS *
                     *******************************

----------------------
LOEWDIN ATOMIC CHARGES
----------------------
   0 O :   -0.286367
   1 H :    0.167769
   2 H :    0.192764
   3 O :   -0.277286
   4 H :    0.159988
   5 H :    0.160554
   6 O :   -0.291069
   7 H :    0.187504
   8 H :    0.171206
   9 O :   -0.344205
  10 H :    0.148736
  11 H :    0.136459
  12 O :   -0.376076
  13 H :    0.146554
  14 H :    0.142306
  15 O :   -0.348592
  16 H :    0.165247
  17 H :    0.144508

-------------------------------
LOEWDIN REDUCED ORBITAL CHARGES
-------------------------------
  0 O s       :     3.460770  s :     3.460770
      pz      :     1.670792  p :     4.761802
      px      :     1.361487
      py      :     1.729522
      dz2     :     0.011126  d :     0.058944
      dxz     :     0.011963
      dyz     :     0.011160
      dx2y2   :     0.009604
      dxy     :     0.015090
      f0      :     0.000478  f :     0.004851
      f+1     :     0.000864
      f-1     :     0.000659
      f+2     :     0.000410
      f-2     :     0.001008
      f+3     :     0.000478
      f-3     :     0.000955
  1 H s       :     0.665387  s :     0.665387
      pz      :     0.067932  p :     0.166844
      px      :     0.044593
      py      :     0.054319
  2 H s       :     0.655362  s :     0.655362
      pz      :     0.034818  p :     0.151874
      px      :     0.071980
      py      :     0.045076
  3 O s       :     3.451545  s :     3.451545
      pz      :     1.542878  p :     4.761021
      px      :     1.514078
      py      :     1.704065
      dz2     :     0.020541  d :     0.059770
      dxz     :     0.006937
      dyz     :     0.007421
      dx2y2   :     0.009530
      dxy     :     0.015340
      f0      :     0.000821  f :     0.004950
      f+1     :     0.000993
      f-1     :     0.000740
      f+2     :     0.000391
      f-2     :     0.000420
      f+3     :     0.000408
      f-3     :     0.001177
  4 H s       :     0.664156  s :     0.664156
      pz      :     0.096866  p :     0.175856
      px      :     0.036533
      py      :     0.042456
  5 H s       :     0.677891  s :     0.677891
      pz      :     0.033040  p :     0.161555
      px      :     0.071916
      py      :     0.056598
  6 O s       :     3.467121  s :     3.467121
      pz      :     1.538906  p :     4.759335
      px      :     1.765003
      py      :     1.455425
      dz2     :     0.020629  d :     0.059730
      dxz     :     0.007029
      dyz     :     0.009237
      dx2y2   :     0.010891
      dxy     :     0.011944
      f0      :     0.000777  f :     0.004884
      f+1     :     0.000601
      f-1     :     0.001193
      f+2     :     0.000415
      f-2     :     0.000414
      f+3     :     0.001029
      f-3     :     0.000454
  7 H s       :     0.655888  s :     0.655888
      pz      :     0.030074  p :     0.156608
      px      :     0.050640
      py      :     0.075894
  8 H s       :     0.667013  s :     0.667013
      pz      :     0.080888  p :     0.161781
      px      :     0.044675
      py      :     0.036218
  9 O s       :     3.453718  s :     3.453718
      pz      :     1.536610  p :     4.828893
      px      :     1.468966
      py      :     1.823317
      dz2     :     0.019040  d :     0.056818
      dxz     :     0.009059
      dyz     :     0.007226
      dx2y2   :     0.009515
      dxy     :     0.011978
      f0      :     0.000789  f :     0.004777
      f+1     :     0.001142
      f-1     :     0.000575
      f+2     :     0.000417
      f-2     :     0.000415
      f+3     :     0.000447
      f-3     :     0.000993
 10 H s       :     0.675859  s :     0.675859
      pz      :     0.092707  p :     0.175405
      px      :     0.037862
      py      :     0.044836
 11 H s       :     0.674806  s :     0.674806
      pz      :     0.031929  p :     0.188736
      px      :     0.102498
      py      :     0.054309
 12 O s       :     3.466086  s :     3.466086
      pz      :     1.693853  p :     4.848118
      px      :     1.767826
      py      :     1.386439
      dz2     :     0.009817  d :     0.057057
      dxz     :     0.011406
      dyz     :     0.012508
      dx2y2   :     0.008900
      dxy     :     0.014426
      f0      :     0.000454  f :     0.004815
      f+1     :     0.000650
      f-1     :     0.000865
      f+2     :     0.000411
      f-2     :     0.001046
      f+3     :     0.000913
      f-3     :     0.000476
 13 H s       :     0.685410  s :     0.685410
      pz      :     0.067035  p :     0.168036
      px      :     0.054918
      py      :     0.046083
 14 H s       :     0.660901  s :     0.660901
      pz      :     0.035148  p :     0.196793
      px      :     0.048951
      py      :     0.112694
 15 O s       :     3.464251  s :     3.464251
      pz      :     1.502919  p :     4.821163
      px      :     1.780937
      py      :     1.537307
      dz2     :     0.021095  d :     0.058277
      dxz     :     0.007781
      dyz     :     0.007265
      dx2y2   :     0.007600
      dxy     :     0.014535
      f0      :     0.000906  f :     0.004901
      f+1     :     0.000709
      f-1     :     0.001007
      f+2     :     0.000391
      f-2     :     0.000421
      f+3     :     0.001090
      f-3     :     0.000377
 16 H s       :     0.673035  s :     0.673035
      pz      :     0.080812  p :     0.161718
      px      :     0.043768
      py      :     0.037138
 17 H s       :     0.679822  s :     0.679822
      pz      :     0.031097  p :     0.175670
      px      :     0.059450
      py      :     0.085124


                      *****************************
                      * MAYER POPULATION ANALYSIS *
                      *****************************

  NA   - Mulliken gross atomic population
  ZA   - Total nuclear charge
  QA   - Mulliken gross atomic charge
  VA   - Mayer's total valence
  BVA  - Mayer's bonded valence
  FA   - Mayer's free valence

  ATOM       NA         ZA         QA         VA         BVA        FA
  0 O      8.7134     8.0000    -0.7134     2.1051     1.7195     0.3856
  1 H      0.6363     1.0000     0.3637     0.8876     0.8430     0.0447
  2 H      0.6261     1.0000     0.3739     0.8798     0.8331     0.0467
  3 O      8.6892     8.0000    -0.6892     2.0973     1.7156     0.3818
  4 H      0.6092     1.0000     0.3908     0.8905     0.8483     0.0422
  5 H      0.6740     1.0000     0.3260     0.9165     0.8675     0.0490
  6 O      8.6866     8.0000    -0.6866     2.1105     1.7280     0.3825
  7 H      0.6258     1.0000     0.3742     0.8781     0.8326     0.0455
  8 H      0.6457     1.0000     0.3543     0.8944     0.8480     0.0464
  9 O      8.7372     8.0000    -0.7372     2.0358     1.6470     0.3889
 10 H      0.6314     1.0000     0.3686     0.9037     0.8597     0.0440
 11 H      0.6625     1.0000     0.3375     0.9404     0.8928     0.0476
 12 O      8.7383     8.0000    -0.7383     2.0134     1.6266     0.3869
 13 H      0.6784     1.0000     0.3216     0.9163     0.8680     0.0483
 14 H      0.6309     1.0000     0.3691     0.9151     0.8702     0.0449
 15 O      8.7099     8.0000    -0.7099     2.0641     1.6815     0.3826
 16 H      0.6582     1.0000     0.3418     0.9034     0.8562     0.0472
 17 H      0.6468     1.0000     0.3532     0.9168     0.8716     0.0452

  Mayer bond orders larger than 0.100000
B(  0-O ,  1-H ) :   0.8323 B(  0-O ,  2-H ) :   0.8187 B(  3-O ,  4-H ) :   0.7900 
B(  3-O ,  5-H ) :   0.8552 B(  6-O ,  7-H ) :   0.8242 B(  6-O ,  8-H ) :   0.8397 
B(  9-O , 10-H ) :   0.8190 B(  9-O , 11-H ) :   0.7946 B( 12-O , 13-H ) :   0.8627 
B( 12-O , 14-H ) :   0.7802 B( 15-O , 16-H ) :   0.8497 B( 15-O , 17-H ) :   0.8281 



----------------------------------
MP2 DERIVATIVE INTEGRAL GENERATION
----------------------------------


Input Wavefunction Amplitudes       ... 12h2o.su.etal.mol1,3,5,7,10,11-orca.engrad-mp2.def2tzvp.frozencore.mp2tsaa.tmp
Input Correlated Electron Density   ... 12h2o.su.etal.mol1,3,5,7,10,11-orca.engrad-mp2.def2tzvp.frozencore.pmp2re
Input Energy Weighted Density       ... 12h2o.su.etal.mol1,3,5,7,10,11-orca.engrad-mp2.def2tzvp.frozencore.wmp2.tmp
Input SCF Electron Density          ... 12h2o.su.etal.mol1,3,5,7,10,11-orca.engrad-mp2.def2tzvp.frozencore.scfp

One-Electron Terms    ...
                        ... One-Electron Terms done
Prescreening matrices              ... done

Batch handling in the gradient evaluation:
Memory available                      ... 8000.0 MB
Memory per occupied orbital in Q2     ...   12.2 MB
Memory per occupied orbital in Q3     ...    0.1 MB
Total memory requirement per |i>      ...   12.3 MB
Max. Number of orbitals possible      ...    651
Number of orbitals treated per batch  ...     24
Number of batches to be done          ...      1
Batch   0: i=    6 ...    29

---------------------------------------
MP2 TOTAL ENERGY:     -457.916764221 Eh
---------------------------------------

The final MP2 gradient
  0:  -0.02509495   0.00980080  -0.00136653
  1:  -0.00016112   0.00233990  -0.00300343
  2:   0.02559462  -0.00853558   0.00078594
  3:  -0.00876994   0.01301608   0.00251859
  4:   0.00102297  -0.00206384  -0.00556350
  5:   0.01055320  -0.00507121   0.00108645
  6:  -0.00877108  -0.01323278   0.01045637
  7:   0.00545294   0.01420334  -0.00156606
  8:  -0.00181570  -0.00088912  -0.00801096
  9:  -0.00440309   0.00782941   0.00039234
 10:  -0.00146979  -0.00307368   0.00568457
 11:   0.01028484  -0.00534782  -0.00299302
 12:   0.00199498   0.00902426   0.00088342
 13:   0.00027197   0.00208651  -0.00062919
 14:  -0.00470633  -0.01836947  -0.00030948
 15:   0.00317216   0.00282570   0.00754734
 16:  -0.00114493   0.00271955  -0.00837084
 17:  -0.00201074  -0.00726205   0.00245800

-----------------------------------
NORM OF THE MP2 GRADIENT:  0.059135
-----------------------------------

-------------------------   --------------------
FINAL SINGLE POINT ENERGY      -457.916764221413
-------------------------   --------------------


                            ***************************************
                            *     ORCA property calculations      *
                            ***************************************

                                    ---------------------
                                    Active property flags
                                    ---------------------
   (+) Dipole Moment


------------------------------------------------------------------------------
                       ORCA ELECTRIC PROPERTIES CALCULATION
------------------------------------------------------------------------------

Dipole Moment Calculation                       ... on
Quadrupole Moment Calculation                   ... off
Polarizability Calculation                      ... off
GBWName                                         ... 12h2o.su.etal.mol1,3,5,7,10,11-orca.engrad-mp2.def2tzvp.frozencore.gbw
Electron density file                           ... 12h2o.su.etal.mol1,3,5,7,10,11-orca.engrad-mp2.def2tzvp.frozencore.scfp
The origin for moment calculation is the CENTER OF MASS  = (-1.900788, -0.276121 -0.000000)

-------------
DIPOLE MOMENT
-------------
                                X             Y             Z
Electronic contribution:     -0.03190      -0.21483       0.39415
Nuclear contribution   :      0.42748      -2.00830       0.00000
                        -----------------------------------------
Total Dipole Moment    :      0.39559      -2.22313       0.39415
                        -----------------------------------------
Magnitude (a.u.)       :      2.29219
Magnitude (Debye)      :      5.82629



--------------------
Rotational spectrum 
--------------------
 
Rotational constants in cm-1:     0.055076     0.024821     0.021326 
Rotational constants in MHz :  1651.151190   744.117919   639.323358 

 Dipole components along the rotational axes: 
x,y,z [a.u.] :     0.468505    -2.242702    -0.070270 
x,y,z [Debye]:     1.190845    -5.700496    -0.178612 

 

                         *** MP2 UNRELAXED DENSITY ***

------------------------------------------------------------------------------
                       ORCA ELECTRIC PROPERTIES CALCULATION
------------------------------------------------------------------------------

Dipole Moment Calculation                       ... on
Quadrupole Moment Calculation                   ... off
Polarizability Calculation                      ... off
GBWName                                         ... 12h2o.su.etal.mol1,3,5,7,10,11-orca.engrad-mp2.def2tzvp.frozencore.gbw
Electron density file                           ... 12h2o.su.etal.mol1,3,5,7,10,11-orca.engrad-mp2.def2tzvp.frozencore.pmp2ur
The origin for moment calculation is the CENTER OF MASS  = (-1.900788, -0.276121 -0.000000)

-------------
DIPOLE MOMENT
-------------
                                X             Y             Z
Electronic contribution:     -0.03633      -0.19867       0.39817
Nuclear contribution   :      0.42748      -2.00830       0.00000
                        -----------------------------------------
Total Dipole Moment    :      0.39115      -2.20698       0.39817
                        -----------------------------------------
Magnitude (a.u.)       :      2.27646
Magnitude (Debye)      :      5.78631



--------------------
Rotational spectrum 
--------------------
 
Rotational constants in cm-1:     0.055076     0.024821     0.021326 
Rotational constants in MHz :  1651.151190   744.117919   639.323358 

 Dipole components along the rotational axes: 
x,y,z [a.u.] :     0.471953    -2.225959    -0.068139 
x,y,z [Debye]:     1.199608    -5.657939    -0.173196 

 

                           *** MP2 RELAXED DENSITY ***

------------------------------------------------------------------------------
                       ORCA ELECTRIC PROPERTIES CALCULATION
------------------------------------------------------------------------------

Dipole Moment Calculation                       ... on
Quadrupole Moment Calculation                   ... off
Polarizability Calculation                      ... off
GBWName                                         ... 12h2o.su.etal.mol1,3,5,7,10,11-orca.engrad-mp2.def2tzvp.frozencore.gbw
Electron density file                           ... 12h2o.su.etal.mol1,3,5,7,10,11-orca.engrad-mp2.def2tzvp.frozencore.pmp2re
The origin for moment calculation is the CENTER OF MASS  = (-1.900788, -0.276121 -0.000000)

-------------
DIPOLE MOMENT
-------------
                                X             Y             Z
Electronic contribution:     -0.02440      -0.19213       0.40996
Nuclear contribution   :      0.42748      -2.00830       0.00000
                        -----------------------------------------
Total Dipole Moment    :      0.40308      -2.20043       0.40996
                        -----------------------------------------
Magnitude (a.u.)       :      2.27430
Magnitude (Debye)      :      5.78082



--------------------
Rotational spectrum 
--------------------
 
Rotational constants in cm-1:     0.055076     0.024821     0.021326 
Rotational constants in MHz :  1651.151190   744.117919   639.323358 

 Dipole components along the rotational axes: 
x,y,z [a.u.] :     0.483717    -2.220799    -0.080755 
x,y,z [Debye]:     1.229511    -5.644823    -0.205262 

 

Timings for individual modules:

Sum of individual times         ...       54.963 sec (=   0.916 min)
GTO integral calculation        ...        0.854 sec (=   0.014 min)   1.6 %
SCF iterations                  ...       12.325 sec (=   0.205 min)  22.4 %
MP2 module                      ...       41.783 sec (=   0.696 min)  76.0 %
                             ****ORCA TERMINATED NORMALLY****
TOTAL RUN TIME: 0 days 0 hours 0 minutes 57 seconds 241 msec
