
                                 *****************
                                 * O   R   C   A *
                                 *****************

           --- An Ab Initio, DFT and Semiempirical electronic structure package ---

                  #######################################################
                  #                        -***-                        #
                  #          Department of theory and spectroscopy      #
                  #               Directorship: Frank Neese             #
                  #        Max Planck Institute fuer Kohlenforschung    #
                  #                Kaiser Wilhelm Platz 1               #
                  #                 D-45470 Muelheim/Ruhr               #
                  #                      Germany                        #
                  #                                                     #
                  #                  All rights reserved                #
                  #                        -***-                        #
                  #######################################################


                         Program Version 4.2.0 -  RELEASE  -


 With contributions from (in alphabetic order):
   Daniel Aravena         : Magnetic Suceptibility
   Michael Atanasov       : Ab Initio Ligand Field Theory (pilot matlab implementation)
   Alexander A. Auer      : GIAO ZORA, VPT2
   Ute Becker             : Parallelization
   Giovanni Bistoni       : ED, misc. LED, open-shell LED, HFLED
   Martin Brehm           : Molecular dynamics
   Dmytro Bykov           : SCF Hessian
   Vijay G. Chilkuri      : MRCI spin determinant printing, contributions to CSF-ICE
   Dipayan Datta          : RHF DLPNO-CCSD density
   Achintya Kumar Dutta   : EOM-CC, STEOM-CC
   Dmitry Ganyushin       : Spin-Orbit,Spin-Spin,Magnetic field MRCI
   Miquel Garcia          : C-PCM Hessian, Gaussian charge scheme
   Yang Guo               : DLPNO-NEVPT2, CIM, IAO-localization
   Andreas Hansen         : Spin unrestricted coupled pair/coupled cluster methods
   Benjamin Helmich-Paris : CASSCF linear response (MC-RPA)
   Lee Huntington         : MR-EOM, pCC
   Robert Izsak           : Overlap fitted RIJCOSX, COSX-SCS-MP3, EOM
   Christian Kollmar      : KDIIS, OOCD, Brueckner-CCSD(T), CCSD density
   Simone Kossmann        : Meta GGA functionals, TD-DFT gradient, OOMP2, MP2 Hessian
   Martin Krupicka        : AUTO-CI
   Lucas Lang             : DCDCAS
   Dagmar Lenk            : GEPOL surface, SMD
   Dimitrios Liakos       : Extrapolation schemes; Compound Job, initial MDCI parallelization
   Dimitrios Manganas     : Further ROCIS development; embedding schemes
   Dimitrios Pantazis     : SARC Basis sets
   Taras Petrenko         : DFT Hessian,TD-DFT gradient, ASA, ECA, R-Raman, ABS, FL, XAS/XES, NRVS
   Peter Pinski           : DLPNO-MP2, DLPNO-MP2 Gradient
   Christoph Reimann      : Effective Core Potentials
   Marius Retegan         : Local ZFS, SOC
   Christoph Riplinger    : Optimizer, TS searches, QM/MM, DLPNO-CCSD(T), (RO)-DLPNO pert. Triples
   Tobias Risthaus        : Range-separated hybrids, TD-DFT gradient, RPA, STAB
   Michael Roemelt        : Original ROCIS implementation
   Masaaki Saitow         : Open-shell DLPNO-CCSD energy and density
   Barbara Sandhoefer     : DKH picture change effects
   Avijit Sen             : IP-ROCIS
   Kantharuban Sivalingam : CASSCF convergence, NEVPT2, FIC-MRCI
   Bernardo de Souza      : ESD, SOC TD-DFT
   Georgi Stoychev        : AutoAux, RI-MP2 NMR
   Willem Van den Heuvel  : Paramagnetic NMR
   Boris Wezisla          : Elementary symmetry handling
   Frank Wennmohs         : Technical directorship


 We gratefully acknowledge several colleagues who have allowed us to
 interface, adapt or use parts of their codes:
   Stefan Grimme, W. Hujo, H. Kruse,             : VdW corrections, initial TS optimization,
                  C. Bannwarth                     DFT functionals, gCP, sTDA/sTD-DF
   Ed Valeev, F. Pavosevic, A. Kumar             : LibInt (2-el integral package), F12 methods
   Garnet Chan, S. Sharma, J. Yang, R. Olivares  : DMRG
   Ulf Ekstrom                                   : XCFun DFT Library
   Mihaly Kallay                                 : mrcc  (arbitrary order and MRCC methods)
   Andreas Klamt, Michael Diedenhofen            : otool_cosmo (COSMO solvation model)
   Jiri Pittner, Ondrej Demel                    : Mk-CCSD
   Frank Weinhold                                : gennbo (NPA and NBO analysis)
   Christopher J. Cramer and Donald G. Truhlar   : smd solvation model
   Lars Goerigk                                  : TD-DFT with DH, B97 family of functionals
   V. Asgeirsson, H. Jonsson                     : NEB implementation
   FAccTs GmbH                                   : IRC, NEB, NEB-TS, Multilevel, MM, QM/MM, CI optimization
   S Lehtola, MJT Oliveira, MAL Marques          : LibXC Library


 Your calculation uses the libint2 library for the computation of 2-el integrals
 For citations please refer to: http://libint.valeyev.net

 Your ORCA version has been built with support for libXC version: 4.2.3
 For citations please refer to: https://tddft.org/programs/libxc/

 This ORCA versions uses:
   CBLAS   interface :  Fast vector & matrix operations
   LAPACKE interface :  Fast linear algebra routines
   SCALAPACK package :  Parallel linear algebra routines


----- Orbital basis set information -----
Your calculation utilizes the basis: def2-TZVP
   F. Weigend and R. Ahlrichs, Phys. Chem. Chem. Phys. 7, 3297 (2005).

================================================================================
                                        WARNINGS
                       Please study these warnings very carefully!
================================================================================


WARNING: The frozen-core approximation for MP2-gradient calculations is turned on by default.

INFO   : the flag for use of LIBINT has been found!

================================================================================
                                       INPUT FILE
================================================================================
NAME = 12h2o.su.etal.mol0,1,3,5,6,8,9-orca.engrad-mp2.def2tzvp.frozencore.inp
|  1> # 12h2o.su.etal.mol0,1,3,5,6,8,9
|  2> ! MP2 def2-TZVP EnGrad TightSCF
|  3> 
|  4> %pal
|  5>     nprocs 6
|  6> end
|  7> 
|  8> %maxcore 8000
|  9> 
| 10> %scf
| 11>     ConvForced true
| 12> end
| 13> 
| 14> *xyz 0 1
| 15> O   1.794470000   0.923410000   2.768350000
| 16> H   2.338250000   1.359750000   3.430940000
| 17> H   0.879480000   1.303000000   2.865760000
| 18> O  -1.794470000  -0.923410000   2.768350000
| 19> H  -2.338250000  -1.359750000   3.430940000
| 20> H  -0.879480000  -1.303000000   2.865760000
| 21> O  -1.752130000  -0.741530000  -2.896280000
| 22> H  -2.036450000  -0.920500000  -1.984040000
| 23> H  -0.921210000  -1.242140000  -2.984230000
| 24> O   0.885520000  -1.737840000   0.052730000
| 25> H   1.284090000  -0.839590000   0.017130000
| 26> H   1.032320000  -2.090180000  -0.841890000
| 27> O   1.737840000   0.885520000  -0.052730000
| 28> H   2.090180000   1.032320000   0.841890000
| 29> H   0.839590000   1.284090000  -0.017130000
| 30> O   1.752130000   0.741530000  -2.896280000
| 31> H   2.036450000   0.920500000  -1.984040000
| 32> H   0.921210000   1.242140000  -2.984230000
| 33> O   0.741530000  -1.752130000   2.896280000
| 34> H   0.920500000  -2.036450000   1.984040000
| 35> H   1.242140000  -0.921210000   2.984230000
| 36> *
| 37> 
| 38>                          ****END OF INPUT****
================================================================================

                     *******************************
                     * Energy+Gradient Calculation *
                     *******************************

---------------------------------
CARTESIAN COORDINATES (ANGSTROEM)
---------------------------------
  O      1.794470    0.923410    2.768350
  H      2.338250    1.359750    3.430940
  H      0.879480    1.303000    2.865760
  O     -1.794470   -0.923410    2.768350
  H     -2.338250   -1.359750    3.430940
  H     -0.879480   -1.303000    2.865760
  O     -1.752130   -0.741530   -2.896280
  H     -2.036450   -0.920500   -1.984040
  H     -0.921210   -1.242140   -2.984230
  O      0.885520   -1.737840    0.052730
  H      1.284090   -0.839590    0.017130
  H      1.032320   -2.090180   -0.841890
  O      1.737840    0.885520   -0.052730
  H      2.090180    1.032320    0.841890
  H      0.839590    1.284090   -0.017130
  O      1.752130    0.741530   -2.896280
  H      2.036450    0.920500   -1.984040
  H      0.921210    1.242140   -2.984230
  O      0.741530   -1.752130    2.896280
  H      0.920500   -2.036450    1.984040
  H      1.242140   -0.921210    2.984230

----------------------------
CARTESIAN COORDINATES (A.U.)
----------------------------
  NO LB      ZA    FRAG     MASS         X           Y           Z
   0 O     8.0000    0    15.999    3.391057    1.744992    5.231423
   1 H     1.0000    0     1.008    4.418652    2.569555    6.483537
   2 H     1.0000    0     1.008    1.661976    2.462313    5.415502
   3 O     8.0000    0    15.999   -3.391057   -1.744992    5.231423
   4 H     1.0000    0     1.008   -4.418652   -2.569555    6.483537
   5 H     1.0000    0     1.008   -1.661976   -2.462313    5.415502
   6 O     8.0000    0    15.999   -3.311046   -1.401289   -5.473176
   7 H     1.0000    0     1.008   -3.848333   -1.739493   -3.749292
   8 H     1.0000    0     1.008   -1.740835   -2.347304   -5.639377
   9 O     8.0000    0    15.999    1.673390   -3.284042    0.099645
  10 H     1.0000    0     1.008    2.426578   -1.586595    0.032371
  11 H     1.0000    0     1.008    1.950802   -3.949868   -1.590942
  12 O     8.0000    0    15.999    3.284042    1.673390   -0.099645
  13 H     1.0000    0     1.008    3.949868    1.950802    1.590942
  14 H     1.0000    0     1.008    1.586595    2.426578   -0.032371
  15 O     8.0000    0    15.999    3.311046    1.401289   -5.473176
  16 H     1.0000    0     1.008    3.848333    1.739493   -3.749292
  17 H     1.0000    0     1.008    1.740835    2.347304   -5.639377
  18 O     8.0000    0    15.999    1.401289   -3.311046    5.473176
  19 H     1.0000    0     1.008    1.739493   -3.848333    3.749292
  20 H     1.0000    0     1.008    2.347304   -1.740835    5.639377

--------------------------------
INTERNAL COORDINATES (ANGSTROEM)
--------------------------------
 O      0   0   0     0.000000000000     0.00000000     0.00000000
 H      1   0   0     0.961828878803     0.00000000     0.00000000
 H      1   2   0     0.995381322057   106.21731035     0.00000000
 O      3   1   2     3.480861789658   117.35405144   223.81249033
 H      4   3   1     0.961828878803   134.84484566    98.22461471
 H      4   3   1     0.995381322057    62.29205096    12.66575463
 O      4   3   1     5.667707300743    90.09768939   276.02472436
 H      7   4   3     0.972136791249    18.92045113   191.47242104
 H      7   4   3     0.974050112161    94.59568686    71.02022155
 O      6   4   3     3.349245975813   116.85538783   276.41377787
 H     10   6   4     0.983350632989    97.20424340    87.67157074
 H     10   6   4     0.972645187106   154.03893681   304.15813038
 O     11  10   6     1.785153773264   170.81379649   301.36914736
 H     13  11  10     0.972645187106   101.65007623   109.44492584
 H     13  11  10     0.983350632989    99.09581498     3.33484705
 O     13  11  10     2.847229166523    89.51229470   269.85728871
 H     16  13  11     0.972136791249    19.08819947   230.61896091
 H     16  13  11     0.974050112161    93.43428486   106.52268102
 O      6   4   3     1.682356278379   171.61043709   328.33166207
 H     19   6   4     0.972136791249   103.79460456   289.35412162
 H     19   6   4     0.974050112161   105.61118924    38.30604821

---------------------------
INTERNAL COORDINATES (A.U.)
---------------------------
 O      0   0   0     0.000000000000     0.00000000     0.00000000
 H      1   0   0     1.817593168635     0.00000000     0.00000000
 H      1   2   0     1.880998097508   106.21731035     0.00000000
 O      3   1   2     6.577875492484   117.35405144   223.81249033
 H      4   3   1     1.817593168635   134.84484566    98.22461471
 H      4   3   1     1.880998097508    62.29205096    12.66575463
 O      4   3   1    10.710414605631    90.09768939   276.02472436
 H      7   4   3     1.837072300170    18.92045113   191.47242104
 H      7   4   3     1.840687952699    94.59568686    71.02022155
 O      6   4   3     6.329157649425   116.85538783   276.41377787
 H     10   6   4     1.858263389967    97.20424340    87.67157074
 H     10   6   4     1.838033029106   154.03893681   304.15813038
 O     11  10   6     3.373451738406   170.81379649   301.36914736
 H     13  11  10     1.838033029106   101.65007623   109.44492584
 H     13  11  10     1.858263389967    99.09581498     3.33484705
 O     13  11  10     5.380483365242    89.51229470   269.85728871
 H     16  13  11     1.837072300170    19.08819947   230.61896091
 H     16  13  11     1.840687952699    93.43428486   106.52268102
 O      6   4   3     3.179192625819   171.61043709   328.33166207
 H     19   6   4     1.837072300170   103.79460456   289.35412162
 H     19   6   4     1.840687952699   105.61118924    38.30604821

---------------------
BASIS SET INFORMATION
---------------------
There are 2 groups of distinct atoms

 Group   1 Type O   : 11s6p2d1f contracted to 5s3p2d1f pattern {62111/411/11/1}
 Group   2 Type H   : 5s1p contracted to 3s1p pattern {311/1}

Atom   0O    basis set group =>   1
Atom   1H    basis set group =>   2
Atom   2H    basis set group =>   2
Atom   3O    basis set group =>   1
Atom   4H    basis set group =>   2
Atom   5H    basis set group =>   2
Atom   6O    basis set group =>   1
Atom   7H    basis set group =>   2
Atom   8H    basis set group =>   2
Atom   9O    basis set group =>   1
Atom  10H    basis set group =>   2
Atom  11H    basis set group =>   2
Atom  12O    basis set group =>   1
Atom  13H    basis set group =>   2
Atom  14H    basis set group =>   2
Atom  15O    basis set group =>   1
Atom  16H    basis set group =>   2
Atom  17H    basis set group =>   2
Atom  18O    basis set group =>   1
Atom  19H    basis set group =>   2
Atom  20H    basis set group =>   2


           ************************************************************
           *        Program running with 6 parallel MPI-processes     *
           *              working on a common directory               *
           ************************************************************
------------------------------------------------------------------------------
                           ORCA GTO INTEGRAL CALCULATION
------------------------------------------------------------------------------

                         BASIS SET STATISTICS AND STARTUP INFO

 # of primitive gaussian shells          ...  224
 # of primitive gaussian functions       ...  434
 # of contracted shells                  ...  133
 # of contracted basis functions         ...  301
 Highest angular momentum                ...    3
 Maximum contraction depth               ...    6
 Integral package used                   ... LIBINT
 Integral threshhold            Thresh   ...  2.500e-11
 Primitive cut-off              TCut     ...  2.500e-12


------------------------------ INTEGRAL EVALUATION ----------------------------


 * One electron integrals 
 Pre-screening matrix                    ... done
 Shell pair data                         ... done (   0.002 sec)



           ************************************************************
           *        Program running with 6 parallel MPI-processes     *
           *              working on a common directory               *
           ************************************************************
-------------------------------------------------------------------------------
                                 ORCA SCF
-------------------------------------------------------------------------------

------------
SCF SETTINGS
------------
Hamiltonian:
 Ab initio Hamiltonian  Method          .... Hartree-Fock(GTOs)


General Settings:
 Integral files         IntName         .... 12h2o.su.etal.mol0,1,3,5,6,8,9-orca.engrad-mp2.def2tzvp.frozencore
 Hartree-Fock type      HFTyp           .... RHF
 Total Charge           Charge          ....    0
 Multiplicity           Mult            ....    1
 Number of Electrons    NEL             ....   70
 Basis Dimension        Dim             ....  301
 Nuclear Repulsion      ENuc            ....    344.9122745200 Eh

Convergence Acceleration:
 DIIS                   CNVDIIS         .... on
   Start iteration      DIISMaxIt       ....    12
   Startup error        DIISStart       ....  0.200000
   # of expansion vecs  DIISMaxEq       ....     5
   Bias factor          DIISBfac        ....   1.050
   Max. coefficient     DIISMaxC        ....  10.000
 Newton-Raphson         CNVNR           .... off
 SOSCF                  CNVSOSCF        .... on
   Start iteration      SOSCFMaxIt      ....   150
   Startup grad/error   SOSCFStart      ....  0.003300
 Level Shifting         CNVShift        .... on
   Level shift para.    LevelShift      ....    0.2500
   Turn off err/grad.   ShiftErr        ....    0.0010
 Zerner damping         CNVZerner       .... off
 Static damping         CNVDamp         .... on
   Fraction old density DampFac         ....    0.7000
   Max. Damping (<1)    DampMax         ....    0.9800
   Min. Damping (>=0)   DampMin         ....    0.0000
   Turn off err/grad.   DampErr         ....    0.1000
 Fernandez-Rico         CNVRico         .... off

SCF Procedure:
 Maximum # iterations   MaxIter         ....   125
 SCF integral mode      SCFMode         .... Direct
   Integral package                     .... LIBINT
 Reset frequency        DirectResetFreq ....    20
 Integral Threshold     Thresh          ....  2.500e-11 Eh
 Primitive CutOff       TCut            ....  2.500e-12 Eh

Convergence Tolerance:
 Convergence Check Mode ConvCheckMode   .... Total+1el-Energy
 Convergence forced     ConvForced      .... 1
 Energy Change          TolE            ....  1.000e-08 Eh
 1-El. energy change                    ....  1.000e-05 Eh
 Orbital Gradient       TolG            ....  1.000e-05
 Orbital Rotation angle TolX            ....  1.000e-05
 DIIS Error             TolErr          ....  5.000e-07


Diagonalization of the overlap matrix:
Smallest eigenvalue                        ... 4.085e-03
Time for diagonalization                   ...    0.020 sec
Threshold for overlap eigenvalues          ... 1.000e-08
Number of eigenvalues below threshold      ... 0
Time for construction of square roots      ...    0.014 sec
Total time needed                          ...    0.035 sec

-------------------
DFT GRID GENERATION
-------------------

General Integration Accuracy     IntAcc      ...  4.340
Radial Grid Type                 RadialGrid  ... Gauss-Chebyshev
Angular Grid (max. acc.)         AngularGrid ... Lebedev-110
Angular grid pruning method      GridPruning ... 3 (G Style)
Weight generation scheme         WeightScheme... Becke
Basis function cutoff            BFCut       ...    1.0000e-11
Integration weight cutoff        WCut        ...    1.0000e-14
Grids for H and He will be reduced by one unit

# of grid points (after initial pruning)     ...  23128 (   0.0 sec)
# of grid points (after weights+screening)   ...  21757 (   0.0 sec)
nearest neighbour list constructed           ...    0.0 sec
Grid point re-assignment to atoms done       ...    0.0 sec
Grid point division into batches done        ...    0.0 sec
Reduced shell lists constructed in    0.0 sec

Total number of grid points                  ...    21757
Total number of batches                      ...      351
Average number of points per batch           ...       61
Average number of grid points per atom       ...     1036
Average number of shells per batch           ...    62.37 (46.89%)
Average number of basis functions per batch  ...   123.87 (41.15%)
Average number of large shells per batch     ...    42.48 (68.12%)
Average number of large basis fcns per batch ...    82.02 (66.21%)
Maximum spatial batch extension              ...  14.53, 16.69, 13.03 au
Average spatial batch extension              ...   0.61,  0.68,  0.61 au

Time for grid setup =    0.071 sec

------------------------------
INITIAL GUESS: MODEL POTENTIAL
------------------------------
Loading Hartree-Fock densities                     ... done
Calculating cut-offs                               ... done
Setting up the integral package                    ... done
Initializing the effective Hamiltonian             ... done
Starting the Coulomb interaction                   ... done (   0.0 sec)
Reading the grid                                   ... done
Mapping shells                                     ... done
Starting the XC term evaluation                    ... done (   0.0 sec)
Transforming the Hamiltonian                       ... done (   0.0 sec)
Diagonalizing the Hamiltonian                      ... done (   0.0 sec)
Back transforming the eigenvectors                 ... done (   0.0 sec)
Now organizing SCF variables                       ... done
                      ------------------
                      INITIAL GUESS DONE (   0.2 sec)
                      ------------------
--------------
SCF ITERATIONS
--------------
ITER       Energy         Delta-E        Max-DP      RMS-DP      [F,P]     Damp
               ***  Starting incremental Fock matrix formation  ***
  0   -531.8076858979   0.000000000000 0.04406433  0.00089706  0.3495271 0.7000
  1   -532.0540612530  -0.246375355082 0.02932314  0.00061999  0.2167587 0.7000
                               ***Turning on DIIS***
  2   -532.1842427279  -0.130181474920 0.01642021  0.00034528  0.1637530 0.7000
  3   -533.3472977422  -1.163055014268 0.00761311  0.00015729  0.1218214 0.7000
  4   -533.1092129166   0.238084825648 0.01701949  0.00036453  0.0861965 0.0000
  5   -532.4827817392   0.626431177403 0.00213320  0.00005853  0.0053650 0.0000
                      *** Initiating the SOSCF procedure ***
                           *** Shutting down DIIS ***
                      *** Re-Reading the Fockian *** 
                      *** Removing any level shift *** 
ITER      Energy       Delta-E        Grad      Rot      Max-DP    RMS-DP
  6   -532.44542893   0.0373528058  0.000851  0.000851  0.001373  0.000035
               *** Restarting incremental Fock matrix formation ***
  7   -532.43531978   0.0101091530  0.000317  0.000451  0.000675  0.000016
  8   -532.43533002  -0.0000102371  0.000140  0.000389  0.000500  0.000013
  9   -532.43533247  -0.0000024476  0.000065  0.000044  0.000096  0.000002
 10   -532.43533267  -0.0000002047  0.000008  0.000006  0.000019  0.000000
                  ***Gradient check signals convergence***
              ***Rediagonalizing the Fockian in SOSCF/NRSCF***

               *****************************************************
               *                     SUCCESS                       *
               *           SCF CONVERGED AFTER  11 CYCLES          *
               *****************************************************


----------------
TOTAL SCF ENERGY
----------------

Total Energy       :         -532.43533267 Eh          -14488.30197 eV

Components:
Nuclear Repulsion  :          344.91227452 Eh            9385.54014 eV
Electronic Energy  :         -877.34760719 Eh          -23873.84211 eV
One Electron Energy:        -1422.32407916 Eh          -38703.40584 eV
Two Electron Energy:          544.97647197 Eh           14829.56372 eV

Virial components:
Potential Energy   :        -1064.15302013 Eh          -28957.07583 eV
Kinetic Energy     :          531.71768746 Eh           14468.77385 eV
Virial Ratio       :            2.00134967


---------------
SCF CONVERGENCE
---------------

  Last Energy change         ...   -3.7096e-09  Tolerance :   1.0000e-08
  Last MAX-Density change    ...    6.2012e-06  Tolerance :   1.0000e-07
  Last RMS-Density change    ...    1.4391e-07  Tolerance :   5.0000e-09
  Last Orbital Gradient      ...    2.1383e-06  Tolerance :   1.0000e-05
  Last Orbital Rotation      ...    2.5187e-06  Tolerance :   1.0000e-05

             **** THE GBW FILE WAS UPDATED (12h2o.su.etal.mol0,1,3,5,6,8,9-orca.engrad-mp2.def2tzvp.frozencore.gbw) ****
             **** DENSITY FILE WAS UPDATED (12h2o.su.etal.mol0,1,3,5,6,8,9-orca.engrad-mp2.def2tzvp.frozencore.scfp) ****
             **** ENERGY FILE WAS UPDATED (12h2o.su.etal.mol0,1,3,5,6,8,9-orca.engrad-mp2.def2tzvp.frozencore.en.tmp) ****
             **** THE GBW FILE WAS UPDATED (12h2o.su.etal.mol0,1,3,5,6,8,9-orca.engrad-mp2.def2tzvp.frozencore.gbw) ****
             **** DENSITY FILE WAS UPDATED (12h2o.su.etal.mol0,1,3,5,6,8,9-orca.engrad-mp2.def2tzvp.frozencore.scfp) ****
----------------
ORBITAL ENERGIES
----------------

  NO   OCC          E(Eh)            E(eV) 
   0   2.0000     -20.635516      -561.5209 
   1   2.0000     -20.608374      -560.7824 
   2   2.0000     -20.558991      -559.4386 
   3   2.0000     -20.556764      -559.3780 
   4   2.0000     -20.549818      -559.1890 
   5   2.0000     -20.545445      -559.0700 
   6   2.0000     -20.514152      -558.2185 
   7   2.0000      -1.416681       -38.5498 
   8   2.0000      -1.393675       -37.9238 
   9   2.0000      -1.347226       -36.6599 
  10   2.0000      -1.336717       -36.3739 
  11   2.0000      -1.335850       -36.3503 
  12   2.0000      -1.327312       -36.1180 
  13   2.0000      -1.295579       -35.2545 
  14   2.0000      -0.781635       -21.2694 
  15   2.0000      -0.757701       -20.6181 
  16   2.0000      -0.718985       -19.5646 
  17   2.0000      -0.709435       -19.3047 
  18   2.0000      -0.699322       -19.0295 
  19   2.0000      -0.697311       -18.9748 
  20   2.0000      -0.682145       -18.5621 
  21   2.0000      -0.660395       -17.9703 
  22   2.0000      -0.629088       -17.1183 
  23   2.0000      -0.610737       -16.6190 
  24   2.0000      -0.582415       -15.8483 
  25   2.0000      -0.573961       -15.6183 
  26   2.0000      -0.569029       -15.4841 
  27   2.0000      -0.559330       -15.2201 
  28   2.0000      -0.542831       -14.7712 
  29   2.0000      -0.535195       -14.5634 
  30   2.0000      -0.508439       -13.8353 
  31   2.0000      -0.501785       -13.6543 
  32   2.0000      -0.490919       -13.3586 
  33   2.0000      -0.487880       -13.2759 
  34   2.0000      -0.465064       -12.6550 
  35   0.0000       0.074701         2.0327 
  36   0.0000       0.107251         2.9184 
  37   0.0000       0.138844         3.7781 
  38   0.0000       0.157055         4.2737 
  39   0.0000       0.174994         4.7618 
  40   0.0000       0.178043         4.8448 
  41   0.0000       0.191644         5.2149 
  42   0.0000       0.221843         6.0367 
  43   0.0000       0.225206         6.1282 
  44   0.0000       0.244633         6.6568 
  45   0.0000       0.278290         7.5727 
  46   0.0000       0.302844         8.2408 
  47   0.0000       0.322417         8.7734 
  48   0.0000       0.345412         9.3991 
  49   0.0000       0.425684        11.5834 
  50   0.0000       0.442441        12.0394 
  51   0.0000       0.480365        13.0714 
  52   0.0000       0.492918        13.4130 
  53   0.0000       0.512740        13.9524 
  54   0.0000       0.517639        14.0857 
  55   0.0000       0.524386        14.2693 
  56   0.0000       0.538400        14.6506 
  57   0.0000       0.554579        15.0908 
  58   0.0000       0.557843        15.1797 
  59   0.0000       0.565896        15.3988 
  60   0.0000       0.578340        15.7374 
  61   0.0000       0.584332        15.9005 
  62   0.0000       0.602260        16.3883 
  63   0.0000       0.618178        16.8215 
  64   0.0000       0.626557        17.0495 
  65   0.0000       0.632403        17.2086 
  66   0.0000       0.636987        17.3333 
  67   0.0000       0.646496        17.5920 
  68   0.0000       0.667364        18.1599 
  69   0.0000       0.688294        18.7294 
  70   0.0000       0.693932        18.8828 
  71   0.0000       0.699277        19.0283 
  72   0.0000       0.706671        19.2295 
  73   0.0000       0.726181        19.7604 
  74   0.0000       0.741386        20.1741 
  75   0.0000       0.769504        20.9393 
  76   0.0000       0.774303        21.0699 
  77   0.0000       0.781284        21.2598 
  78   0.0000       0.787082        21.4176 
  79   0.0000       0.796785        21.6816 
  80   0.0000       0.802541        21.8382 
  81   0.0000       0.822442        22.3798 
  82   0.0000       0.842084        22.9143 
  83   0.0000       0.894544        24.3418 
  84   0.0000       0.896136        24.3851 
  85   0.0000       0.928489        25.2655 
  86   0.0000       0.975948        26.5569 
  87   0.0000       0.987203        26.8631 
  88   0.0000       1.028086        27.9756 
  89   0.0000       1.054848        28.7039 
  90   0.0000       1.145408        31.1681 
  91   0.0000       1.341552        36.5055 
  92   0.0000       1.348557        36.6961 
  93   0.0000       1.372931        37.3593 
  94   0.0000       1.382556        37.6213 
  95   0.0000       1.410253        38.3749 
  96   0.0000       1.414493        38.4903 
  97   0.0000       1.427912        38.8555 
  98   0.0000       1.442925        39.2640 
  99   0.0000       1.449491        39.4427 
 100   0.0000       1.462256        39.7900 
 101   0.0000       1.482555        40.3424 
 102   0.0000       1.494784        40.6751 
 103   0.0000       1.502033        40.8724 
 104   0.0000       1.508763        41.0555 
 105   0.0000       1.548407        42.1343 
 106   0.0000       1.554627        42.3035 
 107   0.0000       1.561767        42.4978 
 108   0.0000       1.591264        43.3005 
 109   0.0000       1.603686        43.6385 
 110   0.0000       1.611162        43.8419 
 111   0.0000       1.662686        45.2440 
 112   0.0000       1.767164        48.0870 
 113   0.0000       1.798174        48.9308 
 114   0.0000       1.821084        49.5542 
 115   0.0000       1.837210        49.9930 
 116   0.0000       1.852263        50.4026 
 117   0.0000       1.864436        50.7339 
 118   0.0000       1.884454        51.2786 
 119   0.0000       1.927878        52.4602 
 120   0.0000       1.930277        52.5255 
 121   0.0000       1.939136        52.7666 
 122   0.0000       1.949649        53.0527 
 123   0.0000       1.983670        53.9784 
 124   0.0000       2.002175        54.4819 
 125   0.0000       2.017805        54.9073 
 126   0.0000       2.031420        55.2778 
 127   0.0000       2.052225        55.8439 
 128   0.0000       2.074570        56.4519 
 129   0.0000       2.101360        57.1809 
 130   0.0000       2.123159        57.7741 
 131   0.0000       2.157368        58.7050 
 132   0.0000       2.178782        59.2877 
 133   0.0000       2.229069        60.6560 
 134   0.0000       2.281264        62.0763 
 135   0.0000       2.288643        62.2771 
 136   0.0000       2.295508        62.4639 
 137   0.0000       2.313729        62.9598 
 138   0.0000       2.316024        63.0222 
 139   0.0000       2.333494        63.4976 
 140   0.0000       2.343263        63.7634 
 141   0.0000       2.356875        64.1338 
 142   0.0000       2.360681        64.2374 
 143   0.0000       2.367630        64.4265 
 144   0.0000       2.383386        64.8552 
 145   0.0000       2.389907        65.0327 
 146   0.0000       2.393527        65.1312 
 147   0.0000       2.399909        65.3048 
 148   0.0000       2.419556        65.8395 
 149   0.0000       2.433608        66.2218 
 150   0.0000       2.490775        67.7774 
 151   0.0000       2.537994        69.0623 
 152   0.0000       2.539840        69.1126 
 153   0.0000       2.565959        69.8233 
 154   0.0000       2.581202        70.2381 
 155   0.0000       2.595218        70.6195 
 156   0.0000       2.603838        70.8540 
 157   0.0000       2.613542        71.1181 
 158   0.0000       2.629933        71.5641 
 159   0.0000       2.648059        72.0573 
 160   0.0000       2.659614        72.3718 
 161   0.0000       2.684820        73.0577 
 162   0.0000       2.697936        73.4146 
 163   0.0000       2.701650        73.5156 
 164   0.0000       2.711367        73.7801 
 165   0.0000       2.740208        74.5649 
 166   0.0000       2.761607        75.1472 
 167   0.0000       2.810565        76.4794 
 168   0.0000       2.862209        77.8847 
 169   0.0000       2.895032        78.7778 
 170   0.0000       2.942060        80.0575 
 171   0.0000       2.950599        80.2899 
 172   0.0000       2.958753        80.5118 
 173   0.0000       2.964921        80.6796 
 174   0.0000       2.967529        80.7506 
 175   0.0000       2.996563        81.5406 
 176   0.0000       2.999552        81.6220 
 177   0.0000       3.013898        82.0123 
 178   0.0000       3.024305        82.2955 
 179   0.0000       3.046287        82.8937 
 180   0.0000       3.050211        83.0005 
 181   0.0000       3.092401        84.1485 
 182   0.0000       3.100941        84.3809 
 183   0.0000       3.114268        84.7435 
 184   0.0000       3.121537        84.9413 
 185   0.0000       3.151279        85.7506 
 186   0.0000       3.163595        86.0858 
 187   0.0000       3.177452        86.4629 
 188   0.0000       3.233195        87.9797 
 189   0.0000       3.246691        88.3470 
 190   0.0000       3.270561        88.9965 
 191   0.0000       3.297221        89.7219 
 192   0.0000       3.322401        90.4071 
 193   0.0000       3.384440        92.0953 
 194   0.0000       3.447639        93.8150 
 195   0.0000       3.541884        96.3796 
 196   0.0000       3.951848       107.5353 
 197   0.0000       4.025521       109.5400 
 198   0.0000       4.031658       109.7070 
 199   0.0000       4.055351       110.3517 
 200   0.0000       4.082466       111.0895 
 201   0.0000       4.102133       111.6247 
 202   0.0000       4.155329       113.0723 
 203   0.0000       4.248923       115.6191 
 204   0.0000       4.270709       116.2119 
 205   0.0000       4.311656       117.3261 
 206   0.0000       4.326448       117.7286 
 207   0.0000       4.332033       117.8806 
 208   0.0000       4.361882       118.6928 
 209   0.0000       4.424894       120.4075 
 210   0.0000       5.477904       149.0613 
 211   0.0000       5.498191       149.6134 
 212   0.0000       5.547426       150.9531 
 213   0.0000       5.551948       151.0762 
 214   0.0000       5.553416       151.1161 
 215   0.0000       5.562326       151.3586 
 216   0.0000       5.571737       151.6147 
 217   0.0000       5.590807       152.1336 
 218   0.0000       5.629758       153.1935 
 219   0.0000       5.656867       153.9312 
 220   0.0000       5.657868       153.9584 
 221   0.0000       5.667634       154.2242 
 222   0.0000       5.679893       154.5577 
 223   0.0000       5.702626       155.1763 
 224   0.0000       5.741515       156.2346 
 225   0.0000       5.771516       157.0509 
 226   0.0000       5.780544       157.2966 
 227   0.0000       5.815700       158.2532 
 228   0.0000       5.826536       158.5481 
 229   0.0000       5.826669       158.5517 
 230   0.0000       5.838047       158.8613 
 231   0.0000       5.844154       159.0275 
 232   0.0000       5.846622       159.0947 
 233   0.0000       5.850168       159.1912 
 234   0.0000       5.853987       159.2951 
 235   0.0000       5.857797       159.3987 
 236   0.0000       5.865169       159.5994 
 237   0.0000       5.885231       160.1453 
 238   0.0000       5.886969       160.1926 
 239   0.0000       5.897668       160.4837 
 240   0.0000       5.900434       160.5590 
 241   0.0000       5.904787       160.6774 
 242   0.0000       5.912525       160.8880 
 243   0.0000       5.917252       161.0166 
 244   0.0000       5.974349       162.5703 
 245   0.0000       6.360622       173.0813 
 246   0.0000       6.422106       174.7544 
 247   0.0000       6.465380       175.9319 
 248   0.0000       6.494283       176.7184 
 249   0.0000       6.495370       176.7480 
 250   0.0000       6.506343       177.0466 
 251   0.0000       6.517891       177.3608 
 252   0.0000       6.633489       180.5064 
 253   0.0000       6.660341       181.2371 
 254   0.0000       6.690631       182.0613 
 255   0.0000       6.700386       182.3268 
 256   0.0000       6.715488       182.7377 
 257   0.0000       6.745690       183.5595 
 258   0.0000       6.773039       184.3038 
 259   0.0000       6.814986       185.4452 
 260   0.0000       6.829012       185.8269 
 261   0.0000       6.834138       185.9664 
 262   0.0000       6.837412       186.0554 
 263   0.0000       6.848739       186.3637 
 264   0.0000       6.851098       186.4279 
 265   0.0000       6.859097       186.6455 
 266   0.0000       6.883205       187.3015 
 267   0.0000       6.891822       187.5360 
 268   0.0000       6.894507       187.6091 
 269   0.0000       6.905356       187.9043 
 270   0.0000       6.909390       188.0141 
 271   0.0000       6.925493       188.4522 
 272   0.0000       6.944027       188.9566 
 273   0.0000       6.952097       189.1762 
 274   0.0000       6.964271       189.5074 
 275   0.0000       6.969272       189.6435 
 276   0.0000       7.002513       190.5481 
 277   0.0000       7.009922       190.7497 
 278   0.0000       7.033823       191.4001 
 279   0.0000       7.119182       193.7228 
 280   0.0000       7.317875       199.1295 
 281   0.0000       7.353377       200.0956 
 282   0.0000       7.369306       200.5290 
 283   0.0000       7.388091       201.0402 
 284   0.0000       7.431487       202.2210 
 285   0.0000       7.443869       202.5580 
 286   0.0000       7.460121       203.0002 
 287   0.0000       7.512780       204.4331 
 288   0.0000       7.520419       204.6410 
 289   0.0000       7.545195       205.3152 
 290   0.0000       7.562032       205.7734 
 291   0.0000       7.584107       206.3740 
 292   0.0000       7.590744       206.5547 
 293   0.0000       7.594007       206.6434 
 294   0.0000      44.853087      1220.5145 
 295   0.0000      44.874503      1221.0973 
 296   0.0000      44.923404      1222.4280 
 297   0.0000      44.975178      1223.8368 
 298   0.0000      44.983689      1224.0684 
 299   0.0000      45.011868      1224.8352 
 300   0.0000      45.084442      1226.8100 

                    ********************************
                    * MULLIKEN POPULATION ANALYSIS *
                    ********************************

-----------------------
MULLIKEN ATOMIC CHARGES
-----------------------
   0 O :   -0.755419
   1 H :    0.382307
   2 H :    0.390454
   3 O :   -0.771635
   4 H :    0.332600
   5 H :    0.398774
   6 O :   -0.704300
   7 H :    0.354622
   8 H :    0.348817
   9 O :   -0.755733
  10 H :    0.385435
  11 H :    0.352583
  12 O :   -0.757113
  13 H :    0.408320
  14 H :    0.365680
  15 O :   -0.724797
  16 H :    0.383147
  17 H :    0.341930
  18 O :   -0.752789
  19 H :    0.404736
  20 H :    0.372380
Sum of atomic charges:   -0.0000000

--------------------------------
MULLIKEN REDUCED ORBITAL CHARGES
--------------------------------
  0 O s       :     3.807613  s :     3.807613
      pz      :     1.733837  p :     4.922690
      px      :     1.389720
      py      :     1.799133
      dz2     :     0.003876  d :     0.023646
      dxz     :     0.004359
      dyz     :     0.005361
      dx2y2   :     0.002527
      dxy     :     0.007524
      f0      :     0.000084  f :     0.001469
      f+1     :     0.000333
      f-1     :     0.000177
      f+2     :     0.000062
      f-2     :     0.000347
      f+3     :     0.000093
      f-3     :     0.000372
  1 H s       :     0.572923  s :     0.572923
      pz      :     0.016969  p :     0.044770
      px      :     0.013260
      py      :     0.014542
  2 H s       :     0.569207  s :     0.569207
      pz      :     0.010295  p :     0.040339
      px      :     0.018148
      py      :     0.011896
  3 O s       :     3.807658  s :     3.807658
      pz      :     1.720359  p :     4.938921
      px      :     1.416138
      py      :     1.802424
      dz2     :     0.004081  d :     0.023594
      dxz     :     0.004788
      dyz     :     0.005507
      dx2y2   :     0.002296
      dxy     :     0.006921
      f0      :     0.000088  f :     0.001462
      f+1     :     0.000328
      f-1     :     0.000184
      f+2     :     0.000069
      f-2     :     0.000360
      f+3     :     0.000088
      f-3     :     0.000347
  4 H s       :     0.621386  s :     0.621386
      pz      :     0.017142  p :     0.046014
      px      :     0.013787
      py      :     0.015084
  5 H s       :     0.544262  s :     0.544262
      pz      :     0.010633  p :     0.056965
      px      :     0.032445
      py      :     0.013887
  6 O s       :     3.815096  s :     3.815096
      pz      :     1.508918  p :     4.861364
      px      :     1.535845
      py      :     1.816601
      dz2     :     0.012255  d :     0.026309
      dxz     :     0.001242
      dyz     :     0.003047
      dx2y2   :     0.002141
      dxy     :     0.007624
      f0      :     0.000268  f :     0.001532
      f+1     :     0.000385
      f-1     :     0.000174
      f+2     :     0.000056
      f-2     :     0.000057
      f+3     :     0.000069
      f-3     :     0.000523
  7 H s       :     0.600728  s :     0.600728
      pz      :     0.019073  p :     0.044650
      px      :     0.012108
      py      :     0.013469
  8 H s       :     0.606717  s :     0.606717
      pz      :     0.010591  p :     0.044466
      px      :     0.018200
      py      :     0.015675
  9 O s       :     3.808558  s :     3.808558
      pz      :     1.540468  p :     4.922503
      px      :     1.879616
      py      :     1.502419
      dz2     :     0.010286  d :     0.023212
      dxz     :     0.002358
      dyz     :     0.002560
      dx2y2   :     0.002884
      dxy     :     0.005125
      f0      :     0.000206  f :     0.001459
      f+1     :     0.000126
      f-1     :     0.000437
      f+2     :     0.000078
      f-2     :     0.000038
      f+3     :     0.000455
      f-3     :     0.000119
 10 H s       :     0.561107  s :     0.561107
      pz      :     0.009096  p :     0.053458
      px      :     0.015784
      py      :     0.028578
 11 H s       :     0.602358  s :     0.602358
      pz      :     0.018531  p :     0.045059
      px      :     0.014252
      py      :     0.012276
 12 O s       :     3.802706  s :     3.802706
      pz      :     1.612347  p :     4.929118
      px      :     1.466854
      py      :     1.849917
      dz2     :     0.010597  d :     0.023902
      dxz     :     0.002557
      dyz     :     0.002127
      dx2y2   :     0.003511
      dxy     :     0.005109
      f0      :     0.000167  f :     0.001387
      f+1     :     0.000441
      f-1     :     0.000112
      f+2     :     0.000069
      f-2     :     0.000036
      f+3     :     0.000109
      f-3     :     0.000454
 13 H s       :     0.543362  s :     0.543362
      pz      :     0.024966  p :     0.048318
      px      :     0.010915
      py      :     0.012437
 14 H s       :     0.592307  s :     0.592307
      pz      :     0.009379  p :     0.042013
      px      :     0.018650
      py      :     0.013983
 15 O s       :     3.812436  s :     3.812436
      pz      :     1.548729  p :     4.885160
      px      :     1.522616
      py      :     1.813814
      dz2     :     0.011784  d :     0.025711
      dxz     :     0.001248
      dyz     :     0.003005
      dx2y2   :     0.002119
      dxy     :     0.007555
      f0      :     0.000251  f :     0.001490
      f+1     :     0.000376
      f-1     :     0.000166
      f+2     :     0.000055
      f-2     :     0.000055
      f+3     :     0.000069
      f-3     :     0.000518
 16 H s       :     0.568093  s :     0.568093
      pz      :     0.024103  p :     0.048760
      px      :     0.011586
      py      :     0.013071
 17 H s       :     0.613266  s :     0.613266
      pz      :     0.010891  p :     0.044804
      px      :     0.018105
      py      :     0.015808
 18 O s       :     3.793187  s :     3.793187
      pz      :     1.576512  p :     4.933971
      px      :     1.784760
      py      :     1.572700
      dz2     :     0.011622  d :     0.024272
      dxz     :     0.002313
      dyz     :     0.001168
      dx2y2   :     0.002404
      dxy     :     0.006766
      f0      :     0.000228  f :     0.001359
      f+1     :     0.000151
      f-1     :     0.000377
      f+2     :     0.000051
      f-2     :     0.000055
      f+3     :     0.000447
      f-3     :     0.000050
 19 H s       :     0.547547  s :     0.547547
      pz      :     0.024834  p :     0.047717
      px      :     0.011842
      py      :     0.011041
 20 H s       :     0.577845  s :     0.577845
      pz      :     0.010271  p :     0.049774
      px      :     0.016030
      py      :     0.023473


                     *******************************
                     * LOEWDIN POPULATION ANALYSIS *
                     *******************************

----------------------
LOEWDIN ATOMIC CHARGES
----------------------
   0 O :   -0.298949
   1 H :    0.171701
   2 H :    0.196717
   3 O :   -0.380477
   4 H :    0.147171
   5 H :    0.151685
   6 O :   -0.333426
   7 H :    0.167679
   8 H :    0.164810
   9 O :   -0.342099
  10 H :    0.152511
  11 H :    0.164253
  12 O :   -0.294400
  13 H :    0.163129
  14 H :    0.178684
  15 O :   -0.341230
  16 H :    0.154356
  17 H :    0.161802
  18 O :   -0.298426
  19 H :    0.164030
  20 H :    0.150479

-------------------------------
LOEWDIN REDUCED ORBITAL CHARGES
-------------------------------
  0 O s       :     3.460812  s :     3.460812
      pz      :     1.687507  p :     4.805351
      px      :     1.368596
      py      :     1.749247
      dz2     :     0.005259  d :     0.030749
      dxz     :     0.006448
      dyz     :     0.005167
      dx2y2   :     0.004143
      dxy     :     0.009731
      f0      :     0.000087  f :     0.002038
      f+1     :     0.000442
      f-1     :     0.000268
      f+2     :     0.000033
      f-2     :     0.000591
      f+3     :     0.000089
      f-3     :     0.000529
  1 H s       :     0.664070  s :     0.664070
      pz      :     0.066704  p :     0.164228
      px      :     0.044768
      py      :     0.052756
  2 H s       :     0.653817  s :     0.653817
      pz      :     0.033142  p :     0.149466
      px      :     0.072829
      py      :     0.043495
  3 O s       :     3.467654  s :     3.467654
      pz      :     1.705525  p :     4.881474
      px      :     1.395458
      py      :     1.780490
      dz2     :     0.004262  d :     0.029350
      dxz     :     0.007269
      dyz     :     0.005742
      dx2y2   :     0.003312
      dxy     :     0.008766
      f0      :     0.000073  f :     0.001999
      f+1     :     0.000438
      f-1     :     0.000265
      f+2     :     0.000034
      f-2     :     0.000634
      f+3     :     0.000085
      f-3     :     0.000471
  4 H s       :     0.688447  s :     0.688447
      pz      :     0.065567  p :     0.164381
      px      :     0.045657
      py      :     0.053157
  5 H s       :     0.652237  s :     0.652237
      pz      :     0.033472  p :     0.196078
      px      :     0.114892
      py      :     0.047714
  6 O s       :     3.472627  s :     3.472627
      pz      :     1.512088  p :     4.825235
      px      :     1.526039
      py      :     1.787109
      dz2     :     0.016578  d :     0.033356
      dxz     :     0.002071
      dyz     :     0.002469
      dx2y2   :     0.002319
      dxy     :     0.009918
      f0      :     0.000482  f :     0.002207
      f+1     :     0.000593
      f-1     :     0.000329
      f+2     :     0.000026
      f-2     :     0.000048
      f+3     :     0.000003
      f-3     :     0.000726
  7 H s       :     0.674505  s :     0.674505
      pz      :     0.080725  p :     0.157816
      px      :     0.035275
      py      :     0.041816
  8 H s       :     0.678339  s :     0.678339
      pz      :     0.029857  p :     0.156852
      px      :     0.072059
      py      :     0.054936
  9 O s       :     3.461914  s :     3.461914
      pz      :     1.526237  p :     4.848109
      px      :     1.839688
      py      :     1.482183
      dz2     :     0.014536  d :     0.030042
      dxz     :     0.001633
      dyz     :     0.004102
      dx2y2   :     0.003717
      dxy     :     0.006054
      f0      :     0.000403  f :     0.002035
      f+1     :     0.000188
      f-1     :     0.000733
      f+2     :     0.000047
      f-2     :     0.000044
      f+3     :     0.000554
      f-3     :     0.000066
 10 H s       :     0.662859  s :     0.662859
      pz      :     0.029169  p :     0.184631
      px      :     0.052506
      py      :     0.102956
 11 H s       :     0.676905  s :     0.676905
      pz      :     0.079014  p :     0.158842
      px      :     0.043285
      py      :     0.036543
 12 O s       :     3.457614  s :     3.457614
      pz      :     1.563023  p :     4.803512
      px      :     1.453702
      py      :     1.786787
      dz2     :     0.014464  d :     0.031258
      dxz     :     0.003569
      dyz     :     0.001291
      dx2y2   :     0.005317
      dxy     :     0.006618
      f0      :     0.000333  f :     0.002016
      f+1     :     0.000705
      f-1     :     0.000200
      f+2     :     0.000037
      f-2     :     0.000041
      f+3     :     0.000073
      f-3     :     0.000626
 13 H s       :     0.664000  s :     0.664000
      pz      :     0.094686  p :     0.172870
      px      :     0.035776
      py      :     0.042408
 14 H s       :     0.666624  s :     0.666624
      pz      :     0.030574  p :     0.154693
      px      :     0.074915
      py      :     0.049204
 15 O s       :     3.467597  s :     3.467597
      pz      :     1.532595  p :     4.839305
      px      :     1.521633
      py      :     1.785077
      dz2     :     0.015584  d :     0.032196
      dxz     :     0.001914
      dyz     :     0.002341
      dx2y2   :     0.002364
      dxy     :     0.009992
      f0      :     0.000444  f :     0.002132
      f+1     :     0.000564
      f-1     :     0.000318
      f+2     :     0.000024
      f-2     :     0.000045
      f+3     :     0.000003
      f-3     :     0.000733
 16 H s       :     0.675535  s :     0.675535
      pz      :     0.092128  p :     0.170108
      px      :     0.035914
      py      :     0.042067
 17 H s       :     0.680690  s :     0.680690
      pz      :     0.031156  p :     0.157508
      px      :     0.071546
      py      :     0.054806
 18 O s       :     3.447603  s :     3.447603
      pz      :     1.545217  p :     4.818343
      px      :     1.728813
      py      :     1.544313
      dz2     :     0.014761  d :     0.030442
      dxz     :     0.001761
      dyz     :     0.001705
      dx2y2   :     0.003552
      dxy     :     0.008662
      f0      :     0.000407  f :     0.002038
      f+1     :     0.000326
      f-1     :     0.000544
      f+2     :     0.000020
      f-2     :     0.000047
      f+3     :     0.000669
      f-3     :     0.000026
 19 H s       :     0.663517  s :     0.663517
      pz      :     0.094376  p :     0.172453
      px      :     0.041390
      py      :     0.036687
 20 H s       :     0.676149  s :     0.676149
      pz      :     0.031536  p :     0.173373
      px      :     0.057849
      py      :     0.083987


                      *****************************
                      * MAYER POPULATION ANALYSIS *
                      *****************************

  NA   - Mulliken gross atomic population
  ZA   - Total nuclear charge
  QA   - Mulliken gross atomic charge
  VA   - Mayer's total valence
  BVA  - Mayer's bonded valence
  FA   - Mayer's free valence

  ATOM       NA         ZA         QA         VA         BVA        FA
  0 O      8.7554     8.0000    -0.7554     1.7453     1.7453     0.0000
  1 H      0.6177     1.0000     0.3823     0.8699     0.8699     0.0000
  2 H      0.6095     1.0000     0.3905     0.8634     0.8634     0.0000
  3 O      8.7716     8.0000    -0.7716     1.6833     1.6833    -0.0000
  4 H      0.6674     1.0000     0.3326     0.9052     0.9052    -0.0000
  5 H      0.6012     1.0000     0.3988     0.8808     0.8808    -0.0000
  6 O      8.7043     8.0000    -0.7043     1.7753     1.7753     0.0000
  7 H      0.6454     1.0000     0.3546     0.8896     0.8896     0.0000
  8 H      0.6512     1.0000     0.3488     0.8968     0.8968     0.0000
  9 O      8.7557     8.0000    -0.7557     1.7157     1.7157    -0.0000
 10 H      0.6146     1.0000     0.3854     0.8855     0.8855     0.0000
 11 H      0.6474     1.0000     0.3526     0.8951     0.8951    -0.0000
 12 O      8.7571     8.0000    -0.7571     1.7339     1.7339    -0.0000
 13 H      0.5917     1.0000     0.4083     0.8620     0.8620     0.0000
 14 H      0.6343     1.0000     0.3657     0.8831     0.8831    -0.0000
 15 O      8.7248     8.0000    -0.7248     1.7590     1.7590    -0.0000
 16 H      0.6169     1.0000     0.3831     0.8751     0.8751    -0.0000
 17 H      0.6581     1.0000     0.3419     0.8999     0.8999    -0.0000
 18 O      8.7528     8.0000    -0.7528     1.7360     1.7360    -0.0000
 19 H      0.5953     1.0000     0.4047     0.8637     0.8637    -0.0000
 20 H      0.6276     1.0000     0.3724     0.8880     0.8880    -0.0000

  Mayer bond orders larger than 0.100000
B(  0-O ,  1-H ) :   0.8614 B(  0-O ,  2-H ) :   0.8487 B(  3-O ,  4-H ) :   0.8993 
B(  3-O ,  5-H ) :   0.8024 B(  6-O ,  7-H ) :   0.8831 B(  6-O ,  8-H ) :   0.8853 
B(  9-O , 10-H ) :   0.8236 B(  9-O , 11-H ) :   0.8838 B( 12-O , 13-H ) :   0.8257 
B( 12-O , 14-H ) :   0.8698 B( 15-O , 16-H ) :   0.8569 B( 15-O , 17-H ) :   0.8906 
B( 18-O , 19-H ) :   0.8309 B( 18-O , 20-H ) :   0.8599 

-------
TIMINGS
-------

Total SCF time: 0 days 0 hours 0 min 15 sec 

Total time                  ....      15.831 sec
Sum of individual times     ....      15.593 sec  ( 98.5%)

Fock matrix formation       ....      14.722 sec  ( 93.0%)
Diagonalization             ....       0.274 sec  (  1.7%)
Density matrix formation    ....       0.009 sec  (  0.1%)
Population analysis         ....       0.039 sec  (  0.2%)
Initial guess               ....       0.155 sec  (  1.0%)
Orbital Transformation      ....       0.000 sec  (  0.0%)
Orbital Orthonormalization  ....       0.000 sec  (  0.0%)
DIIS solution               ....       0.106 sec  (  0.7%)
SOSCF solution              ....       0.218 sec  (  1.4%)


           ************************************************************
           *        Program running with 6 parallel MPI-processes     *
           *              working on a common directory               *
           ************************************************************

------------------------------------------------------------------------------
                                ORCA  MP2 
------------------------------------------------------------------------------

Freezing NCore=14 chemical core electrons
MP2 will be done in the AO integral direct mode
The Q1-step will be done using symmetric double matrices
Dimension of the basis                    ...  301
Memory devoted for MP2                    ... 8000 MB   
Memory needed for all in one shot         ...  523 MB
Number of MOs that can be treated together...   75      
MP2 density construction                  ... relaxed
The MP2 gradient is requested => amplitudes will be stored on disk
Total number of MOs              ...   28
Number of MOs treated per batch  ...    5 
Number of batches necessary      ...    1 
OPERATORS   0/  0 PASS   0
-----------------------------------------------
 MP2 CORRELATION ENERGY   :     -1.807297270 Eh
-----------------------------------------------


---------------------
MP2 DENSITY FORMATION
---------------------

Completing the external part of the density      ... done
Storing the unrelaxed density                    ... done

Calculating G(D)                                 ... done
Completing the Lagrangian                        ... done
Solving the Z-vector equations                   ... 

------------------------------------------------------------------------------
                           ORCA CP-SCF CALCULATION
------------------------------------------------------------------------------

Input orbitals are from        ... 12h2o.su.etal.mol0,1,3,5,6,8,9-orca.engrad-mp2.def2tzvp.frozencore.gbw
Input Perturbation             ... 12h2o.su.etal.mol0,1,3,5,6,8,9-orca.engrad-mp2.def2tzvp.frozencore.pin.tmp
Wavefunction output            ... 12h2o.su.etal.mol0,1,3,5,6,8,9-orca.engrad-mp2.def2tzvp.frozencore.pout.tmp
Perturbation mode              ... Real perturbation (singlet)
Solver                         ... POPLE
Max. number of iterations      ... 128
Convergence tolerance          ... 1.000e-08
Integral handling              ... Direct
Number of perturbations        ... 1
Number of operators            ... 1
Orbital ranges used for CP-SCF:
 Operator 0:  Orbitals   0... 34  to  35...300
Variables per vector in CP-SCF ... 9310
Number of vectors sought       ... 1
     CP-SCF ITERATION   0: 
     CP-SCF ITERATION   1:      0.000864446327
     CP-SCF ITERATION   2:      0.000021832100
     CP-SCF ITERATION   3:      0.000001315821
     CP-SCF ITERATION   4:      0.000000088194
     CP-SCF ITERATION   5:      0.000000006870
                                                 ... done
Finalizing the relaxed density                   ... done
Transforming P to the AO basis                   ... done
Storing the relaxed density                      ... done

------------------------------------
ENERGY WEIGHTED DENSITY FINALIZATION
------------------------------------

Gathering the parts of the W-matrix              ...                                                      done
Forming the Z-density                            ... done
Transforming Z to the AO basis                   ... done
Calculating G(Z)                                 ... done
Finalizing the W-matrix                          ...                                                      done
Transforming W to the AO basis and storing       ... done

                *********************************************
                * UNRELAXED MP2 DENSITY POPULATION ANALYSIS *
                *********************************************

------------------------------------------------------------------------------
                           ORCA POPULATION ANALYSIS
------------------------------------------------------------------------------
Input electron density              ... 12h2o.su.etal.mol0,1,3,5,6,8,9-orca.engrad-mp2.def2tzvp.frozencore.pmp2ur
BaseName (.gbw .S,...)              ... 12h2o.su.etal.mol0,1,3,5,6,8,9-orca.engrad-mp2.def2tzvp.frozencore

                    ********************************
                    * MULLIKEN POPULATION ANALYSIS *
                    ********************************

-----------------------
MULLIKEN ATOMIC CHARGES
-----------------------
   0 O :   -0.749565
   1 H :    0.380112
   2 H :    0.387528
   3 O :   -0.766104
   4 H :    0.330326
   5 H :    0.394106
   6 O :   -0.699374
   7 H :    0.352230
   8 H :    0.346229
   9 O :   -0.749787
  10 H :    0.381126
  11 H :    0.350131
  12 O :   -0.750646
  13 H :    0.405395
  14 H :    0.362882
  15 O :   -0.719362
  16 H :    0.380285
  17 H :    0.339381
  18 O :   -0.745776
  19 H :    0.401703
  20 H :    0.369180
Sum of atomic charges:   -0.0000000

--------------------------------
MULLIKEN REDUCED ORBITAL CHARGES
--------------------------------
  0 O s       :     3.802778  s :     3.802778
      pz      :     1.722711  p :     4.891764
      px      :     1.381757
      py      :     1.787296
      dz2     :     0.009451  d :     0.050984
      dxz     :     0.009772
      dyz     :     0.010881
      dx2y2   :     0.008018
      dxy     :     0.012863
      f0      :     0.000457  f :     0.004039
      f+1     :     0.000695
      f-1     :     0.000545
      f+2     :     0.000432
      f-2     :     0.000713
      f+3     :     0.000465
      f-3     :     0.000733
  1 H s       :     0.573635  s :     0.573635
      pz      :     0.017407  p :     0.046253
      px      :     0.013629
      py      :     0.015217
  2 H s       :     0.570680  s :     0.570680
      pz      :     0.011098  p :     0.041792
      px      :     0.018062
      py      :     0.012631
  3 O s       :     3.802713  s :     3.802713
      pz      :     1.709946  p :     4.908699
      px      :     1.407628
      py      :     1.791124
      dz2     :     0.009556  d :     0.050663
      dxz     :     0.010163
      dyz     :     0.010842
      dx2y2   :     0.007806
      dxy     :     0.012295
      f0      :     0.000456  f :     0.004030
      f+1     :     0.000692
      f-1     :     0.000546
      f+2     :     0.000437
      f-2     :     0.000724
      f+3     :     0.000461
      f-3     :     0.000713
  4 H s       :     0.621927  s :     0.621927
      pz      :     0.017659  p :     0.047747
      px      :     0.014261
      py      :     0.015826
  5 H s       :     0.547266  s :     0.547266
      pz      :     0.011465  p :     0.058628
      px      :     0.032552
      py      :     0.014612
  6 O s       :     3.810310  s :     3.810310
      pz      :     1.500023  p :     4.832348
      px      :     1.526982
      py      :     1.805343
      dz2     :     0.017220  d :     0.052637
      dxz     :     0.006566
      dyz     :     0.008440
      dx2y2   :     0.007584
      dxy     :     0.012827
      f0      :     0.000643  f :     0.004078
      f+1     :     0.000747
      f-1     :     0.000544
      f+2     :     0.000413
      f-2     :     0.000419
      f+3     :     0.000436
      f-3     :     0.000875
  7 H s       :     0.601509  s :     0.601509
      pz      :     0.019143  p :     0.046261
      px      :     0.012796
      py      :     0.014322
  8 H s       :     0.607663  s :     0.607663
      pz      :     0.011381  p :     0.046108
      px      :     0.018362
      py      :     0.016365
  9 O s       :     3.803557  s :     3.803557
      pz      :     1.531030  p :     4.891638
      px      :     1.867534
      py      :     1.493073
      dz2     :     0.015599  d :     0.050558
      dxz     :     0.007967
      dyz     :     0.008011
      dx2y2   :     0.008427
      dxy     :     0.010555
      f0      :     0.000588  f :     0.004034
      f+1     :     0.000497
      f-1     :     0.000804
      f+2     :     0.000442
      f-2     :     0.000405
      f+3     :     0.000812
      f-3     :     0.000486
 10 H s       :     0.563754  s :     0.563754
      pz      :     0.009899  p :     0.055121
      px      :     0.016500
      py      :     0.028722
 11 H s       :     0.603181  s :     0.603181
      pz      :     0.018664  p :     0.046688
      px      :     0.015117
      py      :     0.012907
 12 O s       :     3.797665  s :     3.797665
      pz      :     1.602272  p :     4.897407
      px      :     1.457974
      py      :     1.837162
      dz2     :     0.016044  d :     0.051590
      dxz     :     0.008000
      dyz     :     0.007862
      dx2y2   :     0.009087
      dxy     :     0.010597
      f0      :     0.000557  f :     0.003983
      f+1     :     0.000811
      f-1     :     0.000491
      f+2     :     0.000435
      f-2     :     0.000404
      f+3     :     0.000477
      f-3     :     0.000808
 13 H s       :     0.544837  s :     0.544837
      pz      :     0.025078  p :     0.049767
      px      :     0.011453
      py      :     0.013236
 14 H s       :     0.593543  s :     0.593543
      pz      :     0.010187  p :     0.043575
      px      :     0.018677
      py      :     0.014710
 15 O s       :     3.807676  s :     3.807676
      pz      :     1.539354  p :     4.855294
      px      :     1.513528
      py      :     1.802413
      dz2     :     0.016890  d :     0.052342
      dxz     :     0.006631
      dyz     :     0.008468
      dx2y2   :     0.007587
      dxy     :     0.012767
      f0      :     0.000631  f :     0.004050
      f+1     :     0.000742
      f-1     :     0.000539
      f+2     :     0.000414
      f-2     :     0.000420
      f+3     :     0.000435
      f-3     :     0.000870
 16 H s       :     0.569382  s :     0.569382
      pz      :     0.024174  p :     0.050333
      px      :     0.012244
      py      :     0.013915
 17 H s       :     0.614138  s :     0.614138
      pz      :     0.011704  p :     0.046481
      px      :     0.018272
      py      :     0.016505
 18 O s       :     3.788032  s :     3.788032
      pz      :     1.566717  p :     4.901863
      px      :     1.772143
      py      :     1.563003
      dz2     :     0.016903  d :     0.051912
      dxz     :     0.007966
      dyz     :     0.006686
      dx2y2   :     0.008135
      dxy     :     0.012222
      f0      :     0.000614  f :     0.003969
      f+1     :     0.000530
      f-1     :     0.000748
      f+2     :     0.000416
      f-2     :     0.000424
      f+3     :     0.000810
      f-3     :     0.000427
 19 H s       :     0.549126  s :     0.549126
      pz      :     0.024865  p :     0.049171
      px      :     0.012625
      py      :     0.011680
 20 H s       :     0.579433  s :     0.579433
      pz      :     0.011074  p :     0.051387
      px      :     0.016619
      py      :     0.023695


                     *******************************
                     * LOEWDIN POPULATION ANALYSIS *
                     *******************************

----------------------
LOEWDIN ATOMIC CHARGES
----------------------
   0 O :   -0.294486
   1 H :    0.170600
   2 H :    0.194932
   3 O :   -0.378164
   4 H :    0.145870
   5 H :    0.149108
   6 O :   -0.330563
   7 H :    0.166315
   8 H :    0.163241
   9 O :   -0.338704
  10 H :    0.149935
  11 H :    0.162697
  12 O :   -0.289640
  13 H :    0.161154
  14 H :    0.176926
  15 O :   -0.338147
  16 H :    0.152459
  17 H :    0.160235
  18 O :   -0.294198
  19 H :    0.162141
  20 H :    0.148289

-------------------------------
LOEWDIN REDUCED ORBITAL CHARGES
-------------------------------
  0 O s       :     3.457050  s :     3.457050
      pz      :     1.675964  p :     4.773485
      px      :     1.360344
      py      :     1.737177
      dz2     :     0.010959  d :     0.059150
      dxz     :     0.012068
      dyz     :     0.010964
      dx2y2   :     0.009737
      dxy     :     0.015421
      f0      :     0.000470  f :     0.004801
      f+1     :     0.000852
      f-1     :     0.000655
      f+2     :     0.000409
      f-2     :     0.000999
      f+3     :     0.000474
      f-3     :     0.000943
  1 H s       :     0.662340  s :     0.662340
      pz      :     0.067817  p :     0.167060
      px      :     0.045544
      py      :     0.053700
  2 H s       :     0.652707  s :     0.652707
      pz      :     0.033955  p :     0.152361
      px      :     0.073947
      py      :     0.044458
  3 O s       :     3.464035  s :     3.464035
      pz      :     1.695151  p :     4.851873
      px      :     1.387159
      py      :     1.769563
      dz2     :     0.009817  d :     0.057494
      dxz     :     0.012866
      dyz     :     0.011402
      dx2y2   :     0.008924
      dxy     :     0.014485
      f0      :     0.000452  f :     0.004762
      f+1     :     0.000850
      f-1     :     0.000646
      f+2     :     0.000410
      f-2     :     0.001043
      f+3     :     0.000472
      f-3     :     0.000889
  4 H s       :     0.686414  s :     0.686414
      pz      :     0.066892  p :     0.167716
      px      :     0.046645
      py      :     0.054180
  5 H s       :     0.652395  s :     0.652395
      pz      :     0.034307  p :     0.198497
      px      :     0.115619
      py      :     0.048570
  6 O s       :     3.468875  s :     3.468875
      pz      :     1.502904  p :     4.795977
      px      :     1.516911
      py      :     1.776163
      dz2     :     0.022252  d :     0.060765
      dxz     :     0.007326
      dyz     :     0.007801
      dx2y2   :     0.007753
      dxy     :     0.015632
      f0      :     0.000897  f :     0.004945
      f+1     :     0.001009
      f-1     :     0.000722
      f+2     :     0.000388
      f-2     :     0.000418
      f+3     :     0.000375
      f-3     :     0.001136
  7 H s       :     0.672759  s :     0.672759
      pz      :     0.082287  p :     0.160926
      px      :     0.036012
      py      :     0.042627
  8 H s       :     0.676733  s :     0.676733
      pz      :     0.030596  p :     0.160026
      px      :     0.073437
      py      :     0.055992
  9 O s       :     3.458183  s :     3.458183
      pz      :     1.516038  p :     4.817190
      px      :     1.828165
      py      :     1.472987
      dz2     :     0.020484  d :     0.058524
      dxz     :     0.007179
      dyz     :     0.009575
      dx2y2   :     0.009449
      dxy     :     0.011837
      f0      :     0.000816  f :     0.004807
      f+1     :     0.000576
      f-1     :     0.001170
      f+2     :     0.000417
      f-2     :     0.000417
      f+3     :     0.000966
      f-3     :     0.000443
 10 H s       :     0.662645  s :     0.662645
      pz      :     0.030000  p :     0.187420
      px      :     0.053379
      py      :     0.104041
 11 H s       :     0.675270  s :     0.675270
      pz      :     0.080607  p :     0.162034
      px      :     0.044077
      py      :     0.037350
 12 O s       :     3.453818  s :     3.453818
      pz      :     1.552487  p :     4.771003
      px      :     1.444511
      py      :     1.774004
      dz2     :     0.020495  d :     0.060008
      dxz     :     0.009069
      dyz     :     0.006946
      dx2y2   :     0.011079
      dxy     :     0.012420
      f0      :     0.000755  f :     0.004811
      f+1     :     0.001145
      f-1     :     0.000595
      f+2     :     0.000410
      f-2     :     0.000415
      f+3     :     0.000453
      f-3     :     0.001038
 13 H s       :     0.663272  s :     0.663272
      pz      :     0.095917  p :     0.175574
      px      :     0.036487
      py      :     0.043170
 14 H s       :     0.665230  s :     0.665230
      pz      :     0.031414  p :     0.157844
      px      :     0.076280
      py      :     0.050150
 15 O s       :     3.463888  s :     3.463888
      pz      :     1.523095  p :     4.809421
      px      :     1.512341
      py      :     1.773984
      dz2     :     0.021377  d :     0.059952
      dxz     :     0.007254
      dyz     :     0.007749
      dx2y2   :     0.007831
      dxy     :     0.015741
      f0      :     0.000865  f :     0.004887
      f+1     :     0.000985
      f-1     :     0.000715
      f+2     :     0.000388
      f-2     :     0.000417
      f+3     :     0.000375
      f-3     :     0.001143
 16 H s       :     0.674479  s :     0.674479
      pz      :     0.093515  p :     0.173061
      px      :     0.036660
      py      :     0.042886
 17 H s       :     0.678986  s :     0.678986
      pz      :     0.031927  p :     0.160779
      px      :     0.072971
      py      :     0.055881
 18 O s       :     3.443868  s :     3.443868
      pz      :     1.535491  p :     4.786342
      px      :     1.716275
      py      :     1.534576
      dz2     :     0.020711  d :     0.059139
      dxz     :     0.007345
      dyz     :     0.007177
      dx2y2   :     0.009245
      dxy     :     0.014661
      f0      :     0.000834  f :     0.004849
      f+1     :     0.000728
      f-1     :     0.000970
      f+2     :     0.000390
      f-2     :     0.000424
      f+3     :     0.001095
      f-3     :     0.000408
 19 H s       :     0.662690  s :     0.662690
      pz      :     0.095577  p :     0.175169
      px      :     0.042169
      py      :     0.037423
 20 H s       :     0.675300  s :     0.675300
      pz      :     0.032334  p :     0.176411
      px      :     0.058828
      py      :     0.085249


                      *****************************
                      * MAYER POPULATION ANALYSIS *
                      *****************************

  NA   - Mulliken gross atomic population
  ZA   - Total nuclear charge
  QA   - Mulliken gross atomic charge
  VA   - Mayer's total valence
  BVA  - Mayer's bonded valence
  FA   - Mayer's free valence

  ATOM       NA         ZA         QA         VA         BVA        FA
  0 O      8.7496     8.0000    -0.7496     2.0593     1.6667     0.3926
  1 H      0.6199     1.0000     0.3801     0.8752     0.8314     0.0438
  2 H      0.6125     1.0000     0.3875     0.8695     0.8231     0.0464
  3 O      8.7661     8.0000    -0.7661     1.9982     1.6055     0.3928
  4 H      0.6697     1.0000     0.3303     0.9113     0.8633     0.0480
  5 H      0.6059     1.0000     0.3941     0.8884     0.8427     0.0457
  6 O      8.6994     8.0000    -0.6994     2.0796     1.6937     0.3858
  7 H      0.6478     1.0000     0.3522     0.8955     0.8488     0.0467
  8 H      0.6538     1.0000     0.3462     0.9031     0.8554     0.0477
  9 O      8.7498     8.0000    -0.7498     2.0292     1.6362     0.3930
 10 H      0.6189     1.0000     0.3811     0.8931     0.8463     0.0468
 11 H      0.6499     1.0000     0.3501     0.9010     0.8536     0.0475
 12 O      8.7506     8.0000    -0.7506     2.0486     1.6553     0.3933
 13 H      0.5946     1.0000     0.4054     0.8677     0.8251     0.0426
 14 H      0.6371     1.0000     0.3629     0.8894     0.8416     0.0478
 15 O      8.7194     8.0000    -0.7194     2.0667     1.6783     0.3884
 16 H      0.6197     1.0000     0.3803     0.8812     0.8366     0.0446
 17 H      0.6606     1.0000     0.3394     0.9062     0.8578     0.0484
 18 O      8.7458     8.0000    -0.7458     2.0482     1.6581     0.3901
 19 H      0.5983     1.0000     0.4017     0.8696     0.8265     0.0431
 20 H      0.6308     1.0000     0.3692     0.8945     0.8484     0.0461

  Mayer bond orders larger than 0.100000
B(  0-O ,  1-H ) :   0.8235 B(  0-O ,  2-H ) :   0.8091 B(  3-O ,  4-H ) :   0.8579 
B(  3-O ,  5-H ) :   0.7666 B(  6-O ,  7-H ) :   0.8427 B(  6-O ,  8-H ) :   0.8444 
B(  9-O , 10-H ) :   0.7861 B(  9-O , 11-H ) :   0.8431 B( 12-O , 13-H ) :   0.7899 
B( 12-O , 14-H ) :   0.8290 B( 15-O , 16-H ) :   0.8187 B( 15-O , 17-H ) :   0.8490 
B( 18-O , 19-H ) :   0.7948 B( 18-O , 20-H ) :   0.8211 


                *******************************************
                * RELAXED MP2 DENSITY POPULATION ANALYSIS *
                *******************************************

------------------------------------------------------------------------------
                           ORCA POPULATION ANALYSIS
------------------------------------------------------------------------------
Input electron density              ... 12h2o.su.etal.mol0,1,3,5,6,8,9-orca.engrad-mp2.def2tzvp.frozencore.pmp2re
BaseName (.gbw .S,...)              ... 12h2o.su.etal.mol0,1,3,5,6,8,9-orca.engrad-mp2.def2tzvp.frozencore

                    ********************************
                    * MULLIKEN POPULATION ANALYSIS *
                    ********************************

-----------------------
MULLIKEN ATOMIC CHARGES
-----------------------
   0 O :   -0.726548
   1 H :    0.373192
   2 H :    0.379987
   3 O :   -0.746749
   4 H :    0.324287
   5 H :    0.369547
   6 O :   -0.684860
   7 H :    0.345340
   8 H :    0.337990
   9 O :   -0.726167
  10 H :    0.359364
  11 H :    0.342057
  12 O :   -0.721023
  13 H :    0.389592
  14 H :    0.355905
  15 O :   -0.700738
  16 H :    0.367805
  17 H :    0.332473
  18 O :   -0.713772
  19 H :    0.387993
  20 H :    0.354324
Sum of atomic charges:   -0.0000000

--------------------------------
MULLIKEN REDUCED ORBITAL CHARGES
--------------------------------
  0 O s       :     3.805943  s :     3.805943
      pz      :     1.713070  p :     4.867785
      px      :     1.378535
      py      :     1.776180
      dz2     :     0.009218  d :     0.048855
      dxz     :     0.009196
      dyz     :     0.010628
      dx2y2   :     0.007775
      dxy     :     0.012039
      f0      :     0.000455  f :     0.003965
      f+1     :     0.000676
      f-1     :     0.000537
      f+2     :     0.000431
      f-2     :     0.000692
      f+3     :     0.000463
      f-3     :     0.000712
  1 H s       :     0.579920  s :     0.579920
      pz      :     0.017489  p :     0.046888
      px      :     0.013555
      py      :     0.015844
  2 H s       :     0.577732  s :     0.577732
      pz      :     0.011881  p :     0.042281
      px      :     0.017091
      py      :     0.013310
  3 O s       :     3.802844  s :     3.802844
      pz      :     1.705112  p :     4.891149
      px      :     1.400875
      py      :     1.785162
      dz2     :     0.009357  d :     0.048790
      dxz     :     0.009596
      dyz     :     0.010543
      dx2y2   :     0.007676
      dxy     :     0.011618
      f0      :     0.000454  f :     0.003965
      f+1     :     0.000676
      f-1     :     0.000538
      f+2     :     0.000437
      f-2     :     0.000705
      f+3     :     0.000459
      f-3     :     0.000696
  4 H s       :     0.627181  s :     0.627181
      pz      :     0.017829  p :     0.048532
      px      :     0.014270
      py      :     0.016433
  5 H s       :     0.571693  s :     0.571693
      pz      :     0.012222  p :     0.058760
      px      :     0.031412
      py      :     0.015126
  6 O s       :     3.814775  s :     3.814775
      pz      :     1.493783  p :     4.815787
      px      :     1.522528
      py      :     1.799476
      dz2     :     0.015839  d :     0.050296
      dxz     :     0.006498
      dyz     :     0.008395
      dx2y2   :     0.007498
      dxy     :     0.012066
      f0      :     0.000624  f :     0.004002
      f+1     :     0.000725
      f-1     :     0.000533
      f+2     :     0.000414
      f-2     :     0.000418
      f+3     :     0.000437
      f-3     :     0.000851
  7 H s       :     0.607698  s :     0.607698
      pz      :     0.018372  p :     0.046963
      px      :     0.013360
      py      :     0.015231
  8 H s       :     0.615136  s :     0.615136
      pz      :     0.012086  p :     0.046874
      px      :     0.017786
      py      :     0.017002
  9 O s       :     3.805191  s :     3.805191
      pz      :     1.520620  p :     4.868513
      px      :     1.860824
      py      :     1.487069
      dz2     :     0.014429  d :     0.048498
      dxz     :     0.007986
      dyz     :     0.007726
      dx2y2   :     0.008225
      dxy     :     0.010131
      f0      :     0.000575  f :     0.003965
      f+1     :     0.000491
      f-1     :     0.000775
      f+2     :     0.000441
      f-2     :     0.000403
      f+3     :     0.000794
      f-3     :     0.000485
 10 H s       :     0.585122  s :     0.585122
      pz      :     0.010611  p :     0.055514
      px      :     0.017083
      py      :     0.027820
 11 H s       :     0.610514  s :     0.610514
      pz      :     0.017912  p :     0.047429
      px      :     0.016116
      py      :     0.013401
 12 O s       :     3.799087  s :     3.799087
      pz      :     1.595768  p :     4.868417
      px      :     1.450629
      py      :     1.822020
      dz2     :     0.015025  d :     0.049608
      dxz     :     0.007749
      dyz     :     0.007917
      dx2y2   :     0.008800
      dxy     :     0.010117
      f0      :     0.000545  f :     0.003911
      f+1     :     0.000781
      f-1     :     0.000486
      f+2     :     0.000434
      f-2     :     0.000402
      f+3     :     0.000475
      f-3     :     0.000787
 13 H s       :     0.560107  s :     0.560107
      pz      :     0.024414  p :     0.050301
      px      :     0.011791
      py      :     0.014096
 14 H s       :     0.599804  s :     0.599804
      pz      :     0.010966  p :     0.044291
      px      :     0.017851
      py      :     0.015473
 15 O s       :     3.809538  s :     3.809538
      pz      :     1.535633  p :     4.837042
      px      :     1.505646
      py      :     1.795763
      dz2     :     0.015654  d :     0.050180
      dxz     :     0.006587
      dyz     :     0.008444
      dx2y2   :     0.007494
      dxy     :     0.012001
      f0      :     0.000614  f :     0.003978
      f+1     :     0.000720
      f-1     :     0.000529
      f+2     :     0.000415
      f-2     :     0.000419
      f+3     :     0.000435
      f-3     :     0.000845
 16 H s       :     0.581345  s :     0.581345
      pz      :     0.023313  p :     0.050850
      px      :     0.012730
      py      :     0.014807
 17 H s       :     0.620228  s :     0.620228
      pz      :     0.012449  p :     0.047300
      px      :     0.017691
      py      :     0.017159
 18 O s       :     3.785135  s :     3.785135
      pz      :     1.563139  p :     4.874585
      px      :     1.753280
      py      :     1.558166
      dz2     :     0.015770  d :     0.050152
      dxz     :     0.007953
      dyz     :     0.006673
      dx2y2   :     0.008126
      dxy     :     0.011630
      f0      :     0.000597  f :     0.003899
      f+1     :     0.000521
      f-1     :     0.000727
      f+2     :     0.000416
      f-2     :     0.000423
      f+3     :     0.000787
      f-3     :     0.000427
 19 H s       :     0.562461  s :     0.562461
      pz      :     0.024046  p :     0.049546
      px      :     0.013395
      py      :     0.012104
 20 H s       :     0.593686  s :     0.593686
      pz      :     0.011780  p :     0.051990
      px      :     0.017068
      py      :     0.023142


                     *******************************
                     * LOEWDIN POPULATION ANALYSIS *
                     *******************************

----------------------
LOEWDIN ATOMIC CHARGES
----------------------
   0 O :   -0.288406
   1 H :    0.172349
   2 H :    0.195764
   3 O :   -0.380369
   4 H :    0.147696
   5 H :    0.141258
   6 O :   -0.332983
   7 H :    0.167708
   8 H :    0.163849
   9 O :   -0.337248
  10 H :    0.143333
  11 H :    0.163889
  12 O :   -0.281344
  13 H :    0.156908
  14 H :    0.178155
  15 O :   -0.338404
  16 H :    0.149353
  17 H :    0.161694
  18 O :   -0.286492
  19 H :    0.158792
  20 H :    0.144498

-------------------------------
LOEWDIN REDUCED ORBITAL CHARGES
-------------------------------
  0 O s       :     3.458534  s :     3.458534
      pz      :     1.670788  p :     4.766926
      px      :     1.365460
      py      :     1.730678
      dz2     :     0.010903  d :     0.058127
      dxz     :     0.011720
      dyz     :     0.010954
      dx2y2   :     0.009547
      dxy     :     0.015003
      f0      :     0.000474  f :     0.004820
      f+1     :     0.000857
      f-1     :     0.000656
      f+2     :     0.000409
      f-2     :     0.000999
      f+3     :     0.000477
      f-3     :     0.000948
  1 H s       :     0.660994  s :     0.660994
      pz      :     0.067691  p :     0.166657
      px      :     0.044777
      py      :     0.054189
  2 H s       :     0.652081  s :     0.652081
      pz      :     0.034578  p :     0.152155
      px      :     0.072469
      py      :     0.045108
  3 O s       :     3.465620  s :     3.465620
      pz      :     1.694776  p :     4.853218
      px      :     1.390577
      py      :     1.767865
      dz2     :     0.009776  d :     0.056731
      dxz     :     0.012495
      dyz     :     0.011312
      dx2y2   :     0.008911
      dxy     :     0.014238
      f0      :     0.000454  f :     0.004801
      f+1     :     0.000862
      f-1     :     0.000647
      f+2     :     0.000411
      f-2     :     0.001044
      f+3     :     0.000477
      f-3     :     0.000906
  4 H s       :     0.684303  s :     0.684303
      pz      :     0.067027  p :     0.168001
      px      :     0.046272
      py      :     0.054702
  5 H s       :     0.660141  s :     0.660141
      pz      :     0.035013  p :     0.198601
      px      :     0.114486
      py      :     0.049103
  6 O s       :     3.470937  s :     3.470937
      pz      :     1.504641  p :     4.797700
      px      :     1.519113
      py      :     1.773945
      dz2     :     0.021463  d :     0.059386
      dxz     :     0.007176
      dyz     :     0.007820
      dx2y2   :     0.007677
      dxy     :     0.015250
      f0      :     0.000898  f :     0.004961
      f+1     :     0.001017
      f-1     :     0.000719
      f+2     :     0.000390
      f-2     :     0.000417
      f+3     :     0.000375
      f-3     :     0.001144
  7 H s       :     0.671354  s :     0.671354
      pz      :     0.081401  p :     0.160938
      px      :     0.036116
      py      :     0.043421
  8 H s       :     0.675948  s :     0.675948
      pz      :     0.030910  p :     0.160203
      px      :     0.072707
      py      :     0.056586
  9 O s       :     3.459451  s :     3.459451
      pz      :     1.514851  p :     4.815268
      px      :     1.825287
      py      :     1.475130
      dz2     :     0.019982  d :     0.057689
      dxz     :     0.007242
      dyz     :     0.009347
      dx2y2   :     0.009397
      dxy     :     0.011721
      f0      :     0.000817  f :     0.004840
      f+1     :     0.000577
      f-1     :     0.001183
      f+2     :     0.000420
      f-2     :     0.000416
      f+3     :     0.000981
      f-3     :     0.000446
 10 H s       :     0.668681  s :     0.668681
      pz      :     0.030364  p :     0.187986
      px      :     0.054089
      py      :     0.103533
 11 H s       :     0.673917  s :     0.673917
      pz      :     0.079842  p :     0.162194
      px      :     0.044986
      py      :     0.037367
 12 O s       :     3.455032  s :     3.455032
      pz      :     1.551028  p :     4.762197
      px      :     1.447025
      py      :     1.764144
      dz2     :     0.020209  d :     0.059281
      dxz     :     0.008896
      dyz     :     0.007035
      dx2y2   :     0.010944
      dxy     :     0.012197
      f0      :     0.000758  f :     0.004834
      f+1     :     0.001153
      f-1     :     0.000596
      f+2     :     0.000412
      f-2     :     0.000414
      f+3     :     0.000455
      f-3     :     0.001044
 13 H s       :     0.667367  s :     0.667367
      pz      :     0.095344  p :     0.175725
      px      :     0.036450
      py      :     0.043932
 14 H s       :     0.663924  s :     0.663924
      pz      :     0.031952  p :     0.157920
      px      :     0.075259
      py      :     0.050710
 15 O s       :     3.465421  s :     3.465421
      pz      :     1.524082  p :     4.809317
      px      :     1.513892
      py      :     1.771342
      dz2     :     0.020755  d :     0.058762
      dxz     :     0.007131
      dyz     :     0.007787
      dx2y2   :     0.007748
      dxy     :     0.015341
      f0      :     0.000869  f :     0.004904
      f+1     :     0.000992
      f-1     :     0.000713
      f+2     :     0.000389
      f-2     :     0.000417
      f+3     :     0.000375
      f-3     :     0.001149
 16 H s       :     0.677277  s :     0.677277
      pz      :     0.092655  p :     0.173370
      px      :     0.036972
      py      :     0.043743
 17 H s       :     0.677238  s :     0.677238
      pz      :     0.032342  p :     0.161068
      px      :     0.072301
      py      :     0.056426
 18 O s       :     3.444260  s :     3.444260
      pz      :     1.537011  p :     4.778826
      px      :     1.706129
      py      :     1.535686
      dz2     :     0.020260  d :     0.058532
      dxz     :     0.007387
      dyz     :     0.007083
      dx2y2   :     0.009337
      dxy     :     0.014465
      f0      :     0.000837  f :     0.004874
      f+1     :     0.000730
      f-1     :     0.000977
      f+2     :     0.000391
      f-2     :     0.000424
      f+3     :     0.001106
      f-3     :     0.000410
 19 H s       :     0.665953  s :     0.665953
      pz      :     0.094708  p :     0.175255
      px      :     0.042732
      py      :     0.037815
 20 H s       :     0.678400  s :     0.678400
      pz      :     0.032909  p :     0.177102
      px      :     0.059306
      py      :     0.084888


                      *****************************
                      * MAYER POPULATION ANALYSIS *
                      *****************************

  NA   - Mulliken gross atomic population
  ZA   - Total nuclear charge
  QA   - Mulliken gross atomic charge
  VA   - Mayer's total valence
  BVA  - Mayer's bonded valence
  FA   - Mayer's free valence

  ATOM       NA         ZA         QA         VA         BVA        FA
  0 O      8.7265     8.0000    -0.7265     2.0982     1.7120     0.3863
  1 H      0.6268     1.0000     0.3732     0.8807     0.8369     0.0438
  2 H      0.6200     1.0000     0.3800     0.8778     0.8316     0.0462
  3 O      8.7467     8.0000    -0.7467     2.0056     1.6176     0.3880
  4 H      0.6757     1.0000     0.3243     0.9150     0.8669     0.0481
  5 H      0.6305     1.0000     0.3695     0.9191     0.8742     0.0449
  6 O      8.6849     8.0000    -0.6849     2.0872     1.7063     0.3808
  7 H      0.6547     1.0000     0.3453     0.9015     0.8547     0.0467
  8 H      0.6620     1.0000     0.3380     0.9117     0.8642     0.0475
  9 O      8.7262     8.0000    -0.7262     2.0493     1.6619     0.3874
 10 H      0.6406     1.0000     0.3594     0.9220     0.8764     0.0456
 11 H      0.6579     1.0000     0.3421     0.9076     0.8601     0.0474
 12 O      8.7210     8.0000    -0.7210     2.0987     1.7120     0.3867
 13 H      0.6104     1.0000     0.3896     0.8887     0.8465     0.0422
 14 H      0.6441     1.0000     0.3559     0.8965     0.8489     0.0477
 15 O      8.7007     8.0000    -0.7007     2.0824     1.6994     0.3830
 16 H      0.6322     1.0000     0.3678     0.8980     0.8536     0.0444
 17 H      0.6675     1.0000     0.3325     0.9126     0.8643     0.0483
 18 O      8.7138     8.0000    -0.7138     2.0915     1.7075     0.3840
 19 H      0.6120     1.0000     0.3880     0.8880     0.8452     0.0428
 20 H      0.6457     1.0000     0.3543     0.9150     0.8693     0.0456

  Mayer bond orders larger than 0.100000
B(  0-O ,  1-H ) :   0.8271 B(  0-O ,  2-H ) :   0.8123 B(  3-O ,  4-H ) :   0.8611 
B(  3-O ,  5-H ) :   0.7690 B(  5-H , 18-O ) :   0.1029 B(  6-O ,  7-H ) :   0.8472 
B(  6-O ,  8-H ) :   0.8486 B(  9-O , 10-H ) :   0.7847 B(  9-O , 11-H ) :   0.8462 
B( 12-O , 13-H ) :   0.7942 B( 12-O , 14-H ) :   0.8316 B( 15-O , 16-H ) :   0.8241 
B( 15-O , 17-H ) :   0.8521 B( 18-O , 19-H ) :   0.7991 B( 18-O , 20-H ) :   0.8240 



----------------------------------
MP2 DERIVATIVE INTEGRAL GENERATION
----------------------------------


Input Wavefunction Amplitudes       ... 12h2o.su.etal.mol0,1,3,5,6,8,9-orca.engrad-mp2.def2tzvp.frozencore.mp2tsaa.tmp
Input Correlated Electron Density   ... 12h2o.su.etal.mol0,1,3,5,6,8,9-orca.engrad-mp2.def2tzvp.frozencore.pmp2re
Input Energy Weighted Density       ... 12h2o.su.etal.mol0,1,3,5,6,8,9-orca.engrad-mp2.def2tzvp.frozencore.wmp2.tmp
Input SCF Electron Density          ... 12h2o.su.etal.mol0,1,3,5,6,8,9-orca.engrad-mp2.def2tzvp.frozencore.scfp

One-Electron Terms    ...
                        ... One-Electron Terms done
Prescreening matrices              ... done

Batch handling in the gradient evaluation:
Memory available                      ... 8000.0 MB
Memory per occupied orbital in Q2     ...   19.4 MB
Memory per occupied orbital in Q3     ...    0.1 MB
Total memory requirement per |i>      ...   19.5 MB
Max. Number of orbitals possible      ...    410
Number of orbitals treated per batch  ...     28
Number of batches to be done          ...      1
Batch   0: i=    7 ...    34

---------------------------------------
MP2 TOTAL ENERGY:     -534.242629943 Eh
---------------------------------------

The final MP2 gradient
  0:   0.02522294  -0.00996585   0.00222228
  1:  -0.00037930  -0.00228423  -0.00326011
  2:  -0.02375497   0.00948935  -0.00135651
  3:  -0.00805589  -0.00058093  -0.00095438
  4:  -0.00193637   0.00032190   0.00063007
  5:   0.01455926  -0.00255674   0.00042758
  6:  -0.00749097   0.00590145  -0.00788658
  7:  -0.00242714  -0.00095505   0.00735113
  8:   0.00861818  -0.00620392  -0.00048200
  9:  -0.00488007  -0.00269209   0.00923264
 10:   0.00374925   0.00763040   0.00299122
 11:   0.00022783  -0.00144597  -0.01012238
 12:   0.01594302  -0.00984821  -0.00317569
 13:   0.00009327  -0.00006126  -0.00061516
 14:  -0.01494319   0.00641608   0.00116528
 15:   0.00863398  -0.00572028  -0.00337519
 16:   0.00070159   0.00154762   0.00517874
 17:  -0.00880435   0.00635357   0.00077244
 18:  -0.00779340  -0.00353360  -0.00076093
 19:   0.00173153   0.00109972   0.00169920
 20:   0.00098482   0.00708803   0.00031835

-----------------------------------
NORM OF THE MP2 GRADIENT:  0.057943
-----------------------------------

-------------------------   --------------------
FINAL SINGLE POINT ENERGY      -534.242629943200
-------------------------   --------------------


                            ***************************************
                            *     ORCA property calculations      *
                            ***************************************

                                    ---------------------
                                    Active property flags
                                    ---------------------
   (+) Dipole Moment


------------------------------------------------------------------------------
                       ORCA ELECTRIC PROPERTIES CALCULATION
------------------------------------------------------------------------------

Dipole Moment Calculation                       ... on
Quadrupole Moment Calculation                   ... off
Polarizability Calculation                      ... off
GBWName                                         ... 12h2o.su.etal.mol0,1,3,5,6,8,9-orca.engrad-mp2.def2tzvp.frozencore.gbw
Electron density file                           ... 12h2o.su.etal.mol0,1,3,5,6,8,9-orca.engrad-mp2.def2tzvp.frozencore.scfp
The origin for moment calculation is the CENTER OF MASS  = ( 0.918646, -0.678359  0.748221)

-------------
DIPOLE MOMENT
-------------
                                X             Y             Z
Electronic contribution:      0.41044       0.07019      -0.09863
Nuclear contribution   :      0.56521       1.36331       1.95129
                        -----------------------------------------
Total Dipole Moment    :      0.97565       1.43350       1.85267
                        -----------------------------------------
Magnitude (a.u.)       :      2.53755
Magnitude (Debye)      :      6.44995



--------------------
Rotational spectrum 
--------------------
 
Rotational constants in cm-1:     0.039321     0.020867     0.015966 
Rotational constants in MHz :  1178.798966   625.586332   478.636223 

 Dipole components along the rotational axes: 
x,y,z [a.u.] :     1.666233     1.673162     0.929182 
x,y,z [Debye]:     4.235229     4.252840     2.361793 

 

                         *** MP2 UNRELAXED DENSITY ***

------------------------------------------------------------------------------
                       ORCA ELECTRIC PROPERTIES CALCULATION
------------------------------------------------------------------------------

Dipole Moment Calculation                       ... on
Quadrupole Moment Calculation                   ... off
Polarizability Calculation                      ... off
GBWName                                         ... 12h2o.su.etal.mol0,1,3,5,6,8,9-orca.engrad-mp2.def2tzvp.frozencore.gbw
Electron density file                           ... 12h2o.su.etal.mol0,1,3,5,6,8,9-orca.engrad-mp2.def2tzvp.frozencore.pmp2ur
The origin for moment calculation is the CENTER OF MASS  = ( 0.918646, -0.678359  0.748221)

-------------
DIPOLE MOMENT
-------------
                                X             Y             Z
Electronic contribution:      0.41025       0.05818      -0.11681
Nuclear contribution   :      0.56521       1.36331       1.95129
                        -----------------------------------------
Total Dipole Moment    :      0.97546       1.42149       1.83448
                        -----------------------------------------
Magnitude (a.u.)       :      2.51743
Magnitude (Debye)      :      6.39880



--------------------
Rotational spectrum 
--------------------
 
Rotational constants in cm-1:     0.039321     0.020867     0.015966 
Rotational constants in MHz :  1178.798966   625.586332   478.636223 

 Dipole components along the rotational axes: 
x,y,z [a.u.] :     1.649674     1.665859     0.917036 
x,y,z [Debye]:     4.193137     4.234277     2.330919 

 

                           *** MP2 RELAXED DENSITY ***

------------------------------------------------------------------------------
                       ORCA ELECTRIC PROPERTIES CALCULATION
------------------------------------------------------------------------------

Dipole Moment Calculation                       ... on
Quadrupole Moment Calculation                   ... off
Polarizability Calculation                      ... off
GBWName                                         ... 12h2o.su.etal.mol0,1,3,5,6,8,9-orca.engrad-mp2.def2tzvp.frozencore.gbw
Electron density file                           ... 12h2o.su.etal.mol0,1,3,5,6,8,9-orca.engrad-mp2.def2tzvp.frozencore.pmp2re
The origin for moment calculation is the CENTER OF MASS  = ( 0.918646, -0.678359  0.748221)

-------------
DIPOLE MOMENT
-------------
                                X             Y             Z
Electronic contribution:      0.41137       0.05591      -0.13947
Nuclear contribution   :      0.56521       1.36331       1.95129
                        -----------------------------------------
Total Dipole Moment    :      0.97658       1.41922       1.81182
                        -----------------------------------------
Magnitude (a.u.)       :      2.50012
Magnitude (Debye)      :      6.35479



--------------------
Rotational spectrum 
--------------------
 
Rotational constants in cm-1:     0.039321     0.020867     0.015966 
Rotational constants in MHz :  1178.798966   625.586332   478.636223 

 Dipole components along the rotational axes: 
x,y,z [a.u.] :     1.627476     1.664350     0.912056 
x,y,z [Debye]:     4.136716     4.230442     2.318263 

 

Timings for individual modules:

Sum of individual times         ...       98.400 sec (=   1.640 min)
GTO integral calculation        ...        0.835 sec (=   0.014 min)   0.8 %
SCF iterations                  ...       16.482 sec (=   0.275 min)  16.8 %
MP2 module                      ...       81.082 sec (=   1.351 min)  82.4 %
                             ****ORCA TERMINATED NORMALLY****
TOTAL RUN TIME: 0 days 0 hours 1 minutes 39 seconds 708 msec
