90
Energy:   -418.62384475
    C     -2.41316698     -2.30297708     -4.04284580
    H     -1.86744618     -1.40814017     -3.82754160
    H     -2.51290771     -2.41369362     -5.10241776
    H     -1.88805275     -3.14565922     -3.64404643
    C     -3.81081935     -2.21869173     -3.40170321
    N     -4.85143507     -2.15593746     -2.92434340
    C      3.74508693      2.60916938      0.20197618
    H      4.48244593      1.83476974      0.24079714
    H      2.77208316      2.17145553      0.12092461
    H      3.79835498      3.19742856      1.09417164
    C      4.00757351      3.50705483     -1.02134001
    N      4.20300670      4.17557137     -1.93215452
    C      0.36799236      0.52060793      0.38387905
    H      1.31303591      0.24749324     -0.03707372
    H      0.28192872      0.10575237      1.36642014
    H      0.29703636      1.58680619      0.43942736
    C     -0.76617501     -0.02375862     -0.50433795
    N     -1.61061416     -0.42906426     -1.16565588
    C     -1.05203155      1.77654847     -3.92013295
    H     -1.82602746      1.32814688     -3.33296472
    H     -0.77975889      1.11535515     -4.71611667
    H     -1.40427215      2.70059604     -4.32874247
    C      0.17704022      2.04359842     -3.03150091
    N      1.09214003      2.24242924     -2.36987396
    C      1.13357340     -2.61214705     -2.02824280
    H      1.50934483     -3.57514460     -2.30452477
    H      0.16947838     -2.72146154     -1.57716606
    H      1.80375825     -2.15438542     -1.33095831
    C      1.01575418     -1.72765226     -3.28338725
    N      0.92803241     -1.06910568     -4.21789935
    C      2.12467330      3.01231232      3.83645996
    H      2.39585802      3.14884235      4.86248072
    H      1.96288991      3.96658044      3.38028283
    H      2.91283373      2.50113624      3.32420881
    C      0.83285305      2.17808835      3.75356972
    N     -0.12896585      1.55697068      3.69185417
    C     -4.81840418      0.97965441     -1.76330091
    H     -3.94698550      0.65696148     -2.29377141
    H     -4.93685480      2.03650439     -1.88135452
    H     -5.67947687      0.47845585     -2.15349690
    C     -4.66281402      0.64436772     -0.26831779
    N     -4.54697008      0.39473154      0.84476510
    C      0.71104536      5.44513338     -1.53265734
    H     -0.21266995      5.16555768     -1.99470458
    H      1.52804219      5.10176693     -2.13225282
    H      0.75713624      6.51040821     -1.44341467
    C      0.79830392      4.80850385     -0.13312571
    N      0.86327189      4.33450423      0.90888920
    C      3.86836741     -2.27536716      1.14094362
    H      3.00420928     -2.71107453      0.68455562
    H      4.27509622     -2.95737138      1.85811934
    H      4.60191640     -2.06787917      0.39010829
    C      3.47096076     -0.96532329      1.84624710
    N      3.17507345      0.01006393      2.37137760
    C     -2.35502241      2.96376572      1.50648948
    H     -3.30240072      3.26641411      1.90117729
    H     -1.57710336      3.53432011      1.96931637
    H     -2.20140118      1.92377291      1.70577466
    C     -2.33222743      3.20381909     -0.01451504
    N     -2.31525554      3.38254974     -1.14697205
    C     -2.54994908     -0.77344237      3.31115001
    H     -2.17162966     -0.19473013      4.12776911
    H     -3.59604044     -0.58212886      3.19286606
    H     -2.03421147     -0.50326464      2.41342076
    C     -2.33113289     -2.27056045      3.59812897
    N     -2.16821430     -3.38523291      3.81179786
    C      3.82413735      1.07339650     -3.93635833
    H      4.79723735      1.01027712     -4.37680416
    H      3.58708290      2.09825808     -3.74049355
    H      3.10077375      0.66228110     -4.60913491
    C      3.80588480      0.28090409     -2.61604677
    N      3.79229495     -0.30914253     -1.63301480
    C     -3.55842401     -2.99944384      0.29456602
    H     -3.76352878     -3.51434120      1.20983261
    H     -4.47002373     -2.85941610     -0.24790727
    H     -3.12241111     -2.04665250      0.51131590
    C     -2.57873521     -3.83122058     -0.55393697
    N     -1.84931237     -4.45051616     -1.18568601
    C      1.05900467     -1.62680289      4.66252505
    H      0.67134403     -1.17703742      3.77239560
    H      1.66816676     -0.91832669      5.18394821
    H      0.24802534     -1.93066029      5.29092166
    C      1.90741366     -2.85647975      4.28876443
    N      2.53909272     -3.77203007      4.01048267
    C      0.05794120     -5.27389630      1.80070012
    H      0.97302669     -5.63434618      2.22211987
    H     -0.14751509     -5.79954414      0.89164503
    H     -0.74136945     -5.43405281      2.49377404
    C      0.18701568     -3.76806962      1.50502158
    N      0.28311750     -2.64691321      1.28487547
