90
Energy:   -415.56059375
    C     -2.48930501     -5.82777514     -1.04359383
    H     -2.46808270     -6.01755695      0.00922746
    H     -1.48879777     -5.80571981     -1.42227302
    H     -3.03954338     -6.60296924     -1.53472614
    C     -3.16790105     -4.47067196     -1.30699159
    N     -3.67314664     -3.46024696     -1.50310320
    C      4.46923783      1.86477309     -2.06570930
    H      5.04461863      2.62199857     -2.55606293
    H      3.48375491      1.84017091     -2.48178291
    H      4.93905413      0.91358142     -2.20501519
    C      4.38329388      2.17934871     -0.56063262
    N      4.31930470      2.41356456      0.55996539
    C     -2.39619308      2.37851864      2.36323612
    H     -3.19796927      3.08544073      2.31510856
    H     -2.60512422      1.65334104      3.12176386
    H     -2.29659023      1.88727415      1.41790167
    C     -1.08488137      3.11181904      2.70136644
    N     -0.10855019      3.65779452      2.95311984
    C     -3.39805376     -1.27511703      1.39498184
    H     -4.08711678     -0.46406048      1.50579523
    H     -2.91553087     -1.46362761      2.33121606
    H     -3.92627592     -2.15181149      1.08307276
    C     -2.34054346     -0.90933253      0.33693001
    N     -1.55317897     -0.63698935     -0.45083766
    C     -1.41850703     -1.69822136     -3.76389070
    H     -1.98286817     -1.92634866     -4.64386492
    H     -0.71452394     -0.92271364     -3.98273921
    H     -2.08106102     -1.37055363     -2.99022723
    C     -0.66587448     -2.95763882     -3.29590361
    N     -0.10550533     -3.89533236     -2.94746595
    C      1.10996085      1.25821464      0.47956253
    H      1.50784552      2.09668717      1.01205835
    H      0.07216659      1.14615288      0.71477377
    H      1.22199683      1.41802903     -0.57248613
    C      1.86970559     -0.01728937      0.88880263
    N      2.43537009     -0.96696007      1.19350048
    C     -4.72863001      3.83952481     -1.43307005
    H     -4.11335827      4.58324362     -0.97130906
    H     -5.69304417      4.25355461     -1.64135769
    H     -4.27394399      3.51736106     -2.34650874
    C     -4.88053414      2.63690512     -0.48321164
    N     -4.99363368      1.74150009      0.22400112
    C      1.58444088      5.18239748      0.47185254
    H      2.09740158      4.58192410      1.19379659
    H      0.53628170      5.18114208      0.68693360
    H      1.95583724      6.18501825      0.51327016
    C      1.82019388      4.60541167     -0.93637610
    N      1.99572271      4.17581950     -1.98486633
    C      5.70153223     -0.61337903      2.02905666
    H      5.40679948      0.40178386      2.19481884
    H      6.66291326     -0.78179558      2.46755578
    H      4.98532334     -1.27033777      2.47666042
    C      5.77286259     -0.88653177      0.51515456
    N      5.82597129     -1.08990640     -0.61201437
    C      2.61781372      1.81654347      3.90079580
    H      1.59988389      1.67954951      3.60087631
    H      3.19793736      2.13361779      3.05947569
    H      2.66646476      2.56047310      4.66832487
    C      3.17790722      0.48665747      4.43866054
    N      3.59492228     -0.50350312      4.83912529
    C      0.58579718     -3.55475833      0.30097233
    H      0.41349577     -2.64034616     -0.22729160
    H      0.69349973     -4.35645489     -0.39944318
    H      1.47924577     -3.46739049      0.88322277
    C     -0.60712895     -3.84272946      1.23134853
    N     -1.49531668     -4.05713706      1.92405590
    C      3.18248387     -2.54649464     -2.03640957
    H      4.12894202     -2.50949487     -2.53415263
    H      2.64802574     -3.41852011     -2.35077427
    H      3.33719951     -2.58510565     -0.97835883
    C      2.36683550     -1.28910858     -2.39038421
    N      1.75954821     -0.35292751     -2.65393442
    C     -5.45116378     -0.73961255     -2.11188883
    H     -5.54226225     -1.66342630     -2.64402548
    H     -6.42012376     -0.30359154     -1.98578832
    H     -5.01463944     -0.92233920     -1.15222401
    C     -4.55373920      0.22543583     -2.90870168
    N     -3.88556580      0.94395822     -3.50196507
    C      0.86531397     -2.39803343      4.15727793
    H      1.70646557     -2.55215600      3.51415243
    H      0.24481407     -3.26969458      4.14801429
    H      1.20755418     -2.21443348      5.15430440
    C      0.05516894     -1.18591619      3.66125691
    N     -0.54802085     -0.28343982      3.29194671
    C     -0.73999689      2.01467037     -2.79343861
    H     -1.39491832      2.19104989     -3.62100635
    H     -0.78787741      0.98282997     -2.51431149
    H      0.26269246      2.26237302     -3.07300356
    C     -1.17161133      2.88938944     -1.60172744
    N     -1.49296790      3.54065755     -0.71444430
