73
Energy:   -460.12589975
C   -1.24263818   2.91147131  -2.00023907
H   -2.10751718   2.39784993  -1.63544110
H   -1.46403928   3.95308482  -2.10474716
H   -0.43539897   2.78600129  -1.30920996
C   -0.84102714   2.33213934  -3.36942973
N   -0.54200947   1.90080036  -4.38885441
C    3.42141190  -1.95874167  -0.01753903
H    2.42453569  -1.59385149  -0.15167763
H    3.54728357  -2.28954615   0.99222520
H    3.59461552  -2.77683794  -0.68508535
C    4.42572537  -0.83035049  -0.31701824
N    5.17348240   0.00978803  -0.53999412
C   -3.23544327  -2.06748646   0.72889869
H   -2.26607366  -1.92216768   0.29982390
H   -3.94698154  -1.45192090   0.21929941
H   -3.51819574  -3.09485250   0.63158910
C   -3.19957543  -1.68395133   2.21994339
N   -3.17287019  -1.39839200   3.33009395
C    0.35714929   4.48262621   1.13193532
H    0.41370627   3.42463109   0.98244349
H    0.61645771   4.71421802   2.14387577
H    1.03772818   4.97352583   0.46806106
C   -1.07698816   4.96550159   0.84613618
N   -2.14476868   5.32502426   0.63334574
C    2.64521083   1.39956705  -2.49027539
H    2.20647013   0.70987743  -1.79981538
H    3.68005430   1.16197825  -2.62275044
H    2.14043630   1.33194094  -3.43130061
C    2.51376617   2.83148839  -1.93898275
N    2.41589965   3.89761892  -1.52852032
C    0.13241066  -3.88453542  -1.09748441
H    0.08741750  -2.82761748  -0.93685980
H   -0.12251386  -4.10203743  -2.11365637
H    1.12336421  -4.23409820  -0.89570233
C   -0.86216619  -4.58955904  -0.15654946
N   -1.60267387  -5.11448117   0.54401939
C    0.55633031  -1.33453204  -3.78522030
H    0.62656047  -0.58963446  -4.55013565
H    0.21891413  -0.88175697  -2.87635059
H   -0.13834375  -2.09060160  -4.08636123
C    1.94069226  -1.97011150  -3.55898873
N    2.97141266  -2.44332930  -3.39054904
C   -0.38442926   0.45449510   3.93868366
H   -1.32642660   0.30193858   4.42269575
H    0.35491876  -0.17258397   4.39149205
H   -0.47284848   0.20944653   2.90088198
C    0.03449259   1.92927693   4.08402137
N    0.34639895   3.02731903   4.19223190
C   -2.90478890   1.99799248   1.68598881
H   -1.90604480   1.93418852   1.30738683
H   -3.00995119   1.34451714   2.52670872
H   -3.10792182   3.00400609   1.98859865
C   -3.89852092   1.58243014   0.58535054
N   -4.63839958   1.27302510  -0.23412469
C    2.90929564   1.72560823   1.68354968
H    2.63851378   2.58636561   2.25859237
H    2.19391129   1.57975586   0.90134038
H    3.87943891   1.87254107   1.25678057
C    2.93235676   0.48520378   2.59594487
N    2.94952682  -0.43833372   3.27526456
C   -3.03513723  -0.47485231  -2.65668316
H   -2.46331165  -0.14179939  -1.81585533
H   -4.07486868  -0.30276821  -2.47163006
H   -2.73395737   0.06580327  -3.52954130
C   -2.79517597  -1.98001458  -2.87692198
N   -2.61651390  -3.10067630  -3.04089980
C    0.46902886  -2.83139872   2.70899645
H    0.73646483  -2.49156183   3.68771453
H   -0.51443806  -3.25219704   2.73390973
H    0.48685954  -2.00647799   2.02775717
C    1.47391713  -3.90214587   2.24499202
N    2.22210212  -4.69936580   1.89951964
Cl  -0.09630249   0.04152241  -0.06569790
