27
Energy:   -105.16559097
O    1.38250405   1.42023194  -2.05981947
H    0.44940026   1.62388863  -2.12364043
H    1.47388023   0.97491428  -1.21745706
C   -2.72079087  -0.40120205   0.01647102
H   -2.57514135  -1.34119841  -0.47352208
H   -3.76622606  -0.17617104   0.05287700
H   -2.33244341  -0.45403082   1.01210874
C   -1.98470084   0.70384951  -0.76367802
N   -1.43664836   1.52661062  -1.34453445
C    1.60856692  -2.34917446  -2.41460332
H    2.52003221  -2.14123438  -1.89413033
H    1.21787382  -1.44201429  -2.82608651
H    1.79957822  -3.04570036  -3.20407495
C    0.58412896  -2.95160969  -1.43521644
N   -0.17861166  -3.40015010  -0.70601839
C    0.14784270   3.40146316   1.31349015
H    0.62953763   4.05359025   2.01177408
H   -0.54483344   3.96209348   0.72121278
H    0.88279518   2.95565188   0.67631180
C   -0.60628556   2.29763210   2.07798184
N   -1.16776832   1.47577970   2.64718066
C    0.37209810  -1.65196025   2.36904985
H    0.12071276  -2.61455945   1.97521183
H   -0.50088205  -1.20069878   2.79233205
H    1.12021603  -1.76068445   3.12628014
C    0.91361432  -0.75953304   1.23682468
N    1.31679776  -0.09508041   0.39383157
