27
Energy:   -110.28568724
O   -1.75416791  -1.63270547  -0.75351448
H   -1.12942482  -1.12618994  -1.27252310
H   -1.51234718  -1.45344437   0.15512189
C    0.90370529   1.15506458   2.80379184
H    0.75756380   2.09420521   2.31230661
H    1.90607033   0.81867637   2.63945564
H    0.73431941   1.27185924   3.85382351
C   -0.08482929   0.11945282   2.23642276
N   -0.82083822  -0.65160720   1.81399069
C    1.07367265  -3.29059848  -1.11113894
H    0.22564602  -3.71097653  -0.61210657
H    1.72856034  -4.07642621  -1.42497964
H    0.74606429  -2.73659459  -1.96592052
C    1.82316083  -2.35191362  -0.14742829
N    2.38118885  -1.65302008   0.57009809
C    2.07273022   1.67348807  -0.81206067
H    1.63059816   2.61443657  -0.55900860
H    2.90100932   1.83407320  -1.47013761
H    2.41372097   1.18856949   0.07871336
C    1.02619352   0.78602177  -1.51117761
N    0.24699937   0.12526277  -2.03170194
C   -2.99871297   1.46437067  -0.53553554
H   -3.89670677   2.04575554  -0.55787291
H   -3.14091305   0.61258240   0.09623575
H   -2.76049819   1.13782493  -1.52625280
C   -1.84446054   2.32353273   0.01322841
N   -0.98506714   2.96321794   0.42180811
