27
Energy:   -106.36241772
O    0.14552420  -1.78937355  -0.79172611
H   -0.52743733  -2.23597788  -0.27801491
H   -0.21596767  -0.91824932  -0.95512148
C    2.40303067  -0.52832350  -2.82984715
H    1.40591289  -0.41040250  -3.19964569
H    2.51197934  -1.50319961  -2.40247630
H    3.09811125  -0.41214020  -3.63499528
C    2.68093429   0.53783609  -1.75389486
N    2.88784617   1.33164036  -0.95279948
C    1.55146366  -1.07486494   2.05252886
H    1.11664122  -2.05097338   1.99737512
H    2.25111411  -1.04126355   2.86139182
H    2.05657714  -0.85704258   1.13475281
C    0.44332151  -0.03185885   2.28866288
N   -0.38174069   0.74470659   2.46447539
C   -0.20249585   3.25220207  -0.09292081
H   -0.91840359   3.98170220  -0.40947388
H    0.76989231   3.53252020  -0.44045801
H   -0.19735780   3.19780030   0.97568255
C   -0.57903154   1.87711410  -0.67511831
N   -0.85937947   0.85329859  -1.10859082
C   -3.55708924  -0.36532711   1.09416973
H   -3.41631365   0.20913406   0.20249896
H   -3.31844251   0.23539268   1.94686109
H   -4.57679442  -0.68353463   1.15617320
C   -2.63555894  -1.59873046   1.06103226
N   -1.94943774  -2.51705531   1.03635990
