27
Energy:   -106.65613397
O    1.28169972  -1.46119919  -0.14454139
H    1.33709148  -1.44839478  -1.10005154
H    0.35979319  -1.28660585   0.04476617
C    2.21376810   1.67300502  -0.67964522
H    2.84630026   2.53398216  -0.62030213
H    2.59865084   0.99766873  -1.41495825
H    2.18502433   1.18525310   0.27228491
C    0.79081820   2.10781987  -1.07682228
N   -0.26863269   2.43155929  -1.37253865
C    0.85497737  -2.24227322   3.01216462
H    0.80374095  -2.74313460   3.95631127
H    1.81822189  -2.40310240   2.57490834
H    0.09881711  -2.62937031   2.36156752
C    0.63067259  -0.73280031   3.21899528
N    0.46366749   0.39107087   3.37299010
C   -1.66843765  -0.17432994  -3.27328269
H   -2.27006466  -0.62050706  -2.50916811
H   -2.02288271  -0.48574470  -4.23364129
H   -1.72980170   0.89130897  -3.19880265
C   -0.20408757  -0.61768815  -3.09803329
N    0.88618762  -0.94778849  -2.96755214
C   -2.17898200   1.62887667   1.39513924
H   -3.13070939   1.51156743   1.86985356
H   -2.25435081   2.36465880   0.62193598
H   -1.45614401   1.94419524   2.11831179
C   -1.74107682   0.28491261   0.78391123
N   -1.41503651  -0.71572971   0.32882419
