27
Energy:   -106.57363180
O    1.11629698  -1.45045144  -0.82905142
H    1.05642811  -2.12328838  -0.15086412
H    1.26224135  -0.63635039  -0.34720956
C    1.55661569   0.63345989  -3.20324350
H    1.95246564   1.07617812  -4.09330167
H    1.38377518  -0.40924019  -3.36998216
H    2.25600282   0.75551823  -2.40270712
C    0.22905180   1.32131369  -2.83441933
N   -0.75937985   1.83345212  -2.55981298
C   -2.14408808  -1.63367236  -1.00936484
H   -3.13702227  -1.95843099  -1.24069515
H   -1.51249673  -2.48658210  -0.87321630
H   -1.76793776  -1.03599892  -1.81322832
C   -2.16539984  -0.79891174   0.28459053
N   -2.18126741  -0.17739451   1.24799913
C   -0.60524638   2.96594494   0.91902317
H   -0.69411975   3.53971562   0.02025240
H   -0.32877023   3.61003323   1.72748487
H   -1.54302497   2.49997941   1.13890162
C    0.47444794   1.88377853   0.73253981
N    1.27832943   1.07805644   0.59369447
C    0.49922725  -0.78151961   3.47128515
H    1.12910706   0.02030361   3.14689165
H    0.82789523  -1.12833463   4.42867524
H   -0.51030831  -0.43464889   3.54489040
C    0.57261169  -1.93562786   2.45430488
N    0.62724973  -2.79491391   1.69711684
