27
Energy:   -105.32572173
O    0.22444956  -0.25749670  -2.66102775
H   -0.14402022   0.44723868  -2.12828963
H    0.48425093  -0.92645420  -2.02759981
C    2.88110280   1.56350316  -1.76551885
H    1.91232706   1.72089646  -2.19166566
H    3.30878314   0.67085441  -2.17192607
H    3.51130673   2.39730542  -1.99468226
C    2.75285287   1.42166915  -0.23743669
N    2.65736498   1.31606728   0.90028993
C   -3.34106417  -1.09910781  -0.88977680
H   -3.68667597  -0.10840803  -1.09945899
H   -4.14127927  -1.79432334  -1.03548281
H   -2.53333118  -1.34189729  -1.54819897
C   -2.85446082  -1.17494900   0.56935490
N   -2.49216250  -1.23141621   1.65574476
C   -0.52768047   2.03323391   2.03037317
H   -1.02369779   1.26937346   2.59196396
H   -0.96761545   2.98270084   2.25368653
H    0.50992423   2.05074464   2.29108170
C   -0.67398422   1.74089644   0.52546984
N   -0.78291401   1.52323791  -0.59499909
C    0.83609133  -2.17338767   2.19680435
H    1.01213004  -3.18137385   2.50965321
H   -0.06192038  -1.81047789   2.65152464
H    1.65994659  -1.55867415   2.49393882
C    0.68945679  -2.12968774   0.66442429
N    0.58028072  -2.09715116  -0.47650231
