
                                 *****************
                                 * O   R   C   A *
                                 *****************

           --- An Ab Initio, DFT and Semiempirical electronic structure package ---

                  #######################################################
                  #                        -***-                        #
                  #          Department of theory and spectroscopy      #
                  #               Directorship: Frank Neese             #
                  #        Max Planck Institute fuer Kohlenforschung    #
                  #                Kaiser Wilhelm Platz 1               #
                  #                 D-45470 Muelheim/Ruhr               #
                  #                      Germany                        #
                  #                                                     #
                  #                  All rights reserved                #
                  #                        -***-                        #
                  #######################################################


                         Program Version 4.2.0 -  RELEASE  -


 With contributions from (in alphabetic order):
   Daniel Aravena         : Magnetic Suceptibility
   Michael Atanasov       : Ab Initio Ligand Field Theory (pilot matlab implementation)
   Alexander A. Auer      : GIAO ZORA, VPT2
   Ute Becker             : Parallelization
   Giovanni Bistoni       : ED, misc. LED, open-shell LED, HFLED
   Martin Brehm           : Molecular dynamics
   Dmytro Bykov           : SCF Hessian
   Vijay G. Chilkuri      : MRCI spin determinant printing, contributions to CSF-ICE
   Dipayan Datta          : RHF DLPNO-CCSD density
   Achintya Kumar Dutta   : EOM-CC, STEOM-CC
   Dmitry Ganyushin       : Spin-Orbit,Spin-Spin,Magnetic field MRCI
   Miquel Garcia          : C-PCM Hessian, Gaussian charge scheme
   Yang Guo               : DLPNO-NEVPT2, CIM, IAO-localization
   Andreas Hansen         : Spin unrestricted coupled pair/coupled cluster methods
   Benjamin Helmich-Paris : CASSCF linear response (MC-RPA)
   Lee Huntington         : MR-EOM, pCC
   Robert Izsak           : Overlap fitted RIJCOSX, COSX-SCS-MP3, EOM
   Christian Kollmar      : KDIIS, OOCD, Brueckner-CCSD(T), CCSD density
   Simone Kossmann        : Meta GGA functionals, TD-DFT gradient, OOMP2, MP2 Hessian
   Martin Krupicka        : AUTO-CI
   Lucas Lang             : DCDCAS
   Dagmar Lenk            : GEPOL surface, SMD
   Dimitrios Liakos       : Extrapolation schemes; Compound Job, initial MDCI parallelization
   Dimitrios Manganas     : Further ROCIS development; embedding schemes
   Dimitrios Pantazis     : SARC Basis sets
   Taras Petrenko         : DFT Hessian,TD-DFT gradient, ASA, ECA, R-Raman, ABS, FL, XAS/XES, NRVS
   Peter Pinski           : DLPNO-MP2, DLPNO-MP2 Gradient
   Christoph Reimann      : Effective Core Potentials
   Marius Retegan         : Local ZFS, SOC
   Christoph Riplinger    : Optimizer, TS searches, QM/MM, DLPNO-CCSD(T), (RO)-DLPNO pert. Triples
   Tobias Risthaus        : Range-separated hybrids, TD-DFT gradient, RPA, STAB
   Michael Roemelt        : Original ROCIS implementation
   Masaaki Saitow         : Open-shell DLPNO-CCSD energy and density
   Barbara Sandhoefer     : DKH picture change effects
   Avijit Sen             : IP-ROCIS
   Kantharuban Sivalingam : CASSCF convergence, NEVPT2, FIC-MRCI
   Bernardo de Souza      : ESD, SOC TD-DFT
   Georgi Stoychev        : AutoAux, RI-MP2 NMR
   Willem Van den Heuvel  : Paramagnetic NMR
   Boris Wezisla          : Elementary symmetry handling
   Frank Wennmohs         : Technical directorship


 We gratefully acknowledge several colleagues who have allowed us to
 interface, adapt or use parts of their codes:
   Stefan Grimme, W. Hujo, H. Kruse,             : VdW corrections, initial TS optimization,
                  C. Bannwarth                     DFT functionals, gCP, sTDA/sTD-DF
   Ed Valeev, F. Pavosevic, A. Kumar             : LibInt (2-el integral package), F12 methods
   Garnet Chan, S. Sharma, J. Yang, R. Olivares  : DMRG
   Ulf Ekstrom                                   : XCFun DFT Library
   Mihaly Kallay                                 : mrcc  (arbitrary order and MRCC methods)
   Andreas Klamt, Michael Diedenhofen            : otool_cosmo (COSMO solvation model)
   Jiri Pittner, Ondrej Demel                    : Mk-CCSD
   Frank Weinhold                                : gennbo (NPA and NBO analysis)
   Christopher J. Cramer and Donald G. Truhlar   : smd solvation model
   Lars Goerigk                                  : TD-DFT with DH, B97 family of functionals
   V. Asgeirsson, H. Jonsson                     : NEB implementation
   FAccTs GmbH                                   : IRC, NEB, NEB-TS, Multilevel, MM, QM/MM, CI optimization
   S Lehtola, MJT Oliveira, MAL Marques          : LibXC Library


 Your calculation uses the libint2 library for the computation of 2-el integrals
 For citations please refer to: http://libint.valeyev.net

 Your ORCA version has been built with support for libXC version: 4.2.3
 For citations please refer to: https://tddft.org/programs/libxc/

 This ORCA versions uses:
   CBLAS   interface :  Fast vector & matrix operations
   LAPACKE interface :  Fast linear algebra routines
   SCALAPACK package :  Parallel linear algebra routines


----- Orbital basis set information -----
Your calculation utilizes the basis: def2-TZVP
   F. Weigend and R. Ahlrichs, Phys. Chem. Chem. Phys. 7, 3297 (2005).

================================================================================
                                        WARNINGS
                       Please study these warnings very carefully!
================================================================================


WARNING: The frozen-core approximation for MP2-gradient calculations is turned on by default.

INFO   : the flag for use of LIBINT has been found!

================================================================================
                                       INPUT FILE
================================================================================
NAME = 12h2o.su.etal.mol1,2,3,4,7,8,10-orca.engrad-mp2.def2tzvp.frozencore.inp
|  1> # 12h2o.su.etal.mol1,2,3,4,7,8,10
|  2> ! MP2 def2-TZVP EnGrad TightSCF
|  3> 
|  4> %pal
|  5>     nprocs 6
|  6> end
|  7> 
|  8> %maxcore 8000
|  9> 
| 10> %scf
| 11>     ConvForced true
| 12> end
| 13> 
| 14> *xyz 0 1
| 15> O  -1.794470000  -0.923410000   2.768350000
| 16> H  -2.338250000  -1.359750000   3.430940000
| 17> H  -0.879480000  -1.303000000   2.865760000
| 18> O   0.923410000  -1.794470000  -2.768350000
| 19> H   1.359750000  -2.338250000  -3.430940000
| 20> H   1.303000000  -0.879480000  -2.865760000
| 21> O  -1.752130000  -0.741530000  -2.896280000
| 22> H  -2.036450000  -0.920500000  -1.984040000
| 23> H  -0.921210000  -1.242140000  -2.984230000
| 24> O  -0.885520000   1.737840000   0.052730000
| 25> H  -1.032320000   2.090180000  -0.841890000
| 26> H  -1.284090000   0.839590000   0.017130000
| 27> O  -1.737840000  -0.885520000  -0.052730000
| 28> H  -2.090180000  -1.032320000   0.841890000
| 29> H  -0.839590000  -1.284090000  -0.017130000
| 30> O   1.752130000   0.741530000  -2.896280000
| 31> H   2.036450000   0.920500000  -1.984040000
| 32> H   0.921210000   1.242140000  -2.984230000
| 33> O  -0.923410000   1.794470000  -2.768350000
| 34> H  -1.359750000   2.338250000  -3.430940000
| 35> H  -1.303000000   0.879480000  -2.865760000
| 36> *
| 37> 
| 38>                          ****END OF INPUT****
================================================================================

                     *******************************
                     * Energy+Gradient Calculation *
                     *******************************

---------------------------------
CARTESIAN COORDINATES (ANGSTROEM)
---------------------------------
  O     -1.794470   -0.923410    2.768350
  H     -2.338250   -1.359750    3.430940
  H     -0.879480   -1.303000    2.865760
  O      0.923410   -1.794470   -2.768350
  H      1.359750   -2.338250   -3.430940
  H      1.303000   -0.879480   -2.865760
  O     -1.752130   -0.741530   -2.896280
  H     -2.036450   -0.920500   -1.984040
  H     -0.921210   -1.242140   -2.984230
  O     -0.885520    1.737840    0.052730
  H     -1.032320    2.090180   -0.841890
  H     -1.284090    0.839590    0.017130
  O     -1.737840   -0.885520   -0.052730
  H     -2.090180   -1.032320    0.841890
  H     -0.839590   -1.284090   -0.017130
  O      1.752130    0.741530   -2.896280
  H      2.036450    0.920500   -1.984040
  H      0.921210    1.242140   -2.984230
  O     -0.923410    1.794470   -2.768350
  H     -1.359750    2.338250   -3.430940
  H     -1.303000    0.879480   -2.865760

----------------------------
CARTESIAN COORDINATES (A.U.)
----------------------------
  NO LB      ZA    FRAG     MASS         X           Y           Z
   0 O     8.0000    0    15.999   -3.391057   -1.744992    5.231423
   1 H     1.0000    0     1.008   -4.418652   -2.569555    6.483537
   2 H     1.0000    0     1.008   -1.661976   -2.462313    5.415502
   3 O     8.0000    0    15.999    1.744992   -3.391057   -5.231423
   4 H     1.0000    0     1.008    2.569555   -4.418652   -6.483537
   5 H     1.0000    0     1.008    2.462313   -1.661976   -5.415502
   6 O     8.0000    0    15.999   -3.311046   -1.401289   -5.473176
   7 H     1.0000    0     1.008   -3.848333   -1.739493   -3.749292
   8 H     1.0000    0     1.008   -1.740835   -2.347304   -5.639377
   9 O     8.0000    0    15.999   -1.673390    3.284042    0.099645
  10 H     1.0000    0     1.008   -1.950802    3.949868   -1.590942
  11 H     1.0000    0     1.008   -2.426578    1.586595    0.032371
  12 O     8.0000    0    15.999   -3.284042   -1.673390   -0.099645
  13 H     1.0000    0     1.008   -3.949868   -1.950802    1.590942
  14 H     1.0000    0     1.008   -1.586595   -2.426578   -0.032371
  15 O     8.0000    0    15.999    3.311046    1.401289   -5.473176
  16 H     1.0000    0     1.008    3.848333    1.739493   -3.749292
  17 H     1.0000    0     1.008    1.740835    2.347304   -5.639377
  18 O     8.0000    0    15.999   -1.744992    3.391057   -5.231423
  19 H     1.0000    0     1.008   -2.569555    4.418652   -6.483537
  20 H     1.0000    0     1.008   -2.462313    1.661976   -5.415502

--------------------------------
INTERNAL COORDINATES (ANGSTROEM)
--------------------------------
 O      0   0   0     0.000000000000     0.00000000     0.00000000
 H      1   0   0     0.961828878803     0.00000000     0.00000000
 H      1   2   0     0.995381322057   106.21731035     0.00000000
 O      3   1   2     5.935920367146   102.58474291   140.89009172
 H      4   3   1     0.961828878803   146.97742434   224.01286022
 H      4   3   1     0.995381322057    97.62005672    87.72090689
 O      4   3   1     2.878117964938    74.30903121   359.04191204
 H      7   4   3     0.972136791249    99.37069922   345.64431536
 H      7   4   3     0.974050112161    12.30570018   233.12878636
 O      8   7   4     3.541164138161   107.84672602    83.70571148
 H     10   8   7     0.972645187106    72.17296994    29.09453504
 H     10   8   7     0.983350632989    33.04029707   190.88793319
 O     12  10   8     1.785153773264   170.81379649    88.00403199
 H     13  12  10     0.972645187106   101.65007623   109.44492584
 H     13  12  10     0.983350632989    99.09581498     3.33484705
 O      6   4   3     1.682356278379   171.61043709   321.17145860
 H     16   6   4     0.972136791249   103.79460456    70.64587838
 H     16   6   4     0.974050112161   105.61118924   321.69395179
 O     18  16   6     1.937600461318   161.54375213    39.05245435
 H     19  18  16     0.961828878803   121.08403650   202.75419110
 H     19  18  16     0.995381322057    95.17003195   315.21089530

---------------------------
INTERNAL COORDINATES (A.U.)
---------------------------
 O      0   0   0     0.000000000000     0.00000000     0.00000000
 H      1   0   0     1.817593168635     0.00000000     0.00000000
 H      1   2   0     1.880998097508   106.21731035     0.00000000
 O      3   1   2    11.217263846671   102.58474291   140.89009172
 H      4   3   1     1.817593168635   146.97742434   224.01286022
 H      4   3   1     1.880998097508    97.62005672    87.72090689
 O      4   3   1     5.438854734852    74.30903121   359.04191204
 H      7   4   3     1.837072300170    99.37069922   345.64431536
 H      7   4   3     1.840687952699    12.30570018   233.12878636
 O      8   7   4     6.691830416388   107.84672602    83.70571148
 H     10   8   7     1.838033029106    72.17296994    29.09453504
 H     10   8   7     1.858263389967    33.04029707   190.88793319
 O     12  10   8     3.373451738406   170.81379649    88.00403199
 H     13  12  10     1.838033029106   101.65007623   109.44492584
 H     13  12  10     1.858263389967    99.09581498     3.33484705
 O      6   4   3     3.179192625819   171.61043709   321.17145860
 H     16   6   4     1.837072300170   103.79460456    70.64587838
 H     16   6   4     1.840687952699   105.61118924   321.69395179
 O     18  16   6     3.661534228851   161.54375213    39.05245435
 H     19  18  16     1.817593168635   121.08403650   202.75419110
 H     19  18  16     1.880998097508    95.17003195   315.21089530

---------------------
BASIS SET INFORMATION
---------------------
There are 2 groups of distinct atoms

 Group   1 Type O   : 11s6p2d1f contracted to 5s3p2d1f pattern {62111/411/11/1}
 Group   2 Type H   : 5s1p contracted to 3s1p pattern {311/1}

Atom   0O    basis set group =>   1
Atom   1H    basis set group =>   2
Atom   2H    basis set group =>   2
Atom   3O    basis set group =>   1
Atom   4H    basis set group =>   2
Atom   5H    basis set group =>   2
Atom   6O    basis set group =>   1
Atom   7H    basis set group =>   2
Atom   8H    basis set group =>   2
Atom   9O    basis set group =>   1
Atom  10H    basis set group =>   2
Atom  11H    basis set group =>   2
Atom  12O    basis set group =>   1
Atom  13H    basis set group =>   2
Atom  14H    basis set group =>   2
Atom  15O    basis set group =>   1
Atom  16H    basis set group =>   2
Atom  17H    basis set group =>   2
Atom  18O    basis set group =>   1
Atom  19H    basis set group =>   2
Atom  20H    basis set group =>   2


           ************************************************************
           *        Program running with 6 parallel MPI-processes     *
           *              working on a common directory               *
           ************************************************************
------------------------------------------------------------------------------
                           ORCA GTO INTEGRAL CALCULATION
------------------------------------------------------------------------------

                         BASIS SET STATISTICS AND STARTUP INFO

 # of primitive gaussian shells          ...  224
 # of primitive gaussian functions       ...  434
 # of contracted shells                  ...  133
 # of contracted basis functions         ...  301
 Highest angular momentum                ...    3
 Maximum contraction depth               ...    6
 Integral package used                   ... LIBINT
 Integral threshhold            Thresh   ...  2.500e-11
 Primitive cut-off              TCut     ...  2.500e-12


------------------------------ INTEGRAL EVALUATION ----------------------------


 * One electron integrals 
 Pre-screening matrix                    ... done
 Shell pair data                         ... done (   0.002 sec)



           ************************************************************
           *        Program running with 6 parallel MPI-processes     *
           *              working on a common directory               *
           ************************************************************
-------------------------------------------------------------------------------
                                 ORCA SCF
-------------------------------------------------------------------------------

------------
SCF SETTINGS
------------
Hamiltonian:
 Ab initio Hamiltonian  Method          .... Hartree-Fock(GTOs)


General Settings:
 Integral files         IntName         .... 12h2o.su.etal.mol1,2,3,4,7,8,10-orca.engrad-mp2.def2tzvp.frozencore
 Hartree-Fock type      HFTyp           .... RHF
 Total Charge           Charge          ....    0
 Multiplicity           Mult            ....    1
 Number of Electrons    NEL             ....   70
 Basis Dimension        Dim             ....  301
 Nuclear Repulsion      ENuc            ....    366.1922947998 Eh

Convergence Acceleration:
 DIIS                   CNVDIIS         .... on
   Start iteration      DIISMaxIt       ....    12
   Startup error        DIISStart       ....  0.200000
   # of expansion vecs  DIISMaxEq       ....     5
   Bias factor          DIISBfac        ....   1.050
   Max. coefficient     DIISMaxC        ....  10.000
 Newton-Raphson         CNVNR           .... off
 SOSCF                  CNVSOSCF        .... on
   Start iteration      SOSCFMaxIt      ....   150
   Startup grad/error   SOSCFStart      ....  0.003300
 Level Shifting         CNVShift        .... on
   Level shift para.    LevelShift      ....    0.2500
   Turn off err/grad.   ShiftErr        ....    0.0010
 Zerner damping         CNVZerner       .... off
 Static damping         CNVDamp         .... on
   Fraction old density DampFac         ....    0.7000
   Max. Damping (<1)    DampMax         ....    0.9800
   Min. Damping (>=0)   DampMin         ....    0.0000
   Turn off err/grad.   DampErr         ....    0.1000
 Fernandez-Rico         CNVRico         .... off

SCF Procedure:
 Maximum # iterations   MaxIter         ....   125
 SCF integral mode      SCFMode         .... Direct
   Integral package                     .... LIBINT
 Reset frequency        DirectResetFreq ....    20
 Integral Threshold     Thresh          ....  2.500e-11 Eh
 Primitive CutOff       TCut            ....  2.500e-12 Eh

Convergence Tolerance:
 Convergence Check Mode ConvCheckMode   .... Total+1el-Energy
 Convergence forced     ConvForced      .... 1
 Energy Change          TolE            ....  1.000e-08 Eh
 1-El. energy change                    ....  1.000e-05 Eh
 Orbital Gradient       TolG            ....  1.000e-05
 Orbital Rotation angle TolX            ....  1.000e-05
 DIIS Error             TolErr          ....  5.000e-07


Diagonalization of the overlap matrix:
Smallest eigenvalue                        ... 3.665e-03
Time for diagonalization                   ...    0.014 sec
Threshold for overlap eigenvalues          ... 1.000e-08
Number of eigenvalues below threshold      ... 0
Time for construction of square roots      ...    0.007 sec
Total time needed                          ...    0.021 sec

-------------------
DFT GRID GENERATION
-------------------

General Integration Accuracy     IntAcc      ...  4.340
Radial Grid Type                 RadialGrid  ... Gauss-Chebyshev
Angular Grid (max. acc.)         AngularGrid ... Lebedev-110
Angular grid pruning method      GridPruning ... 3 (G Style)
Weight generation scheme         WeightScheme... Becke
Basis function cutoff            BFCut       ...    1.0000e-11
Integration weight cutoff        WCut        ...    1.0000e-14
Grids for H and He will be reduced by one unit

# of grid points (after initial pruning)     ...  23128 (   0.0 sec)
# of grid points (after weights+screening)   ...  21671 (   0.0 sec)
nearest neighbour list constructed           ...    0.0 sec
Grid point re-assignment to atoms done       ...    0.0 sec
Grid point division into batches done        ...    0.0 sec
Reduced shell lists constructed in    0.0 sec

Total number of grid points                  ...    21671
Total number of batches                      ...      348
Average number of points per batch           ...       62
Average number of grid points per atom       ...     1032
Average number of shells per batch           ...    51.85 (38.98%)
Average number of basis functions per batch  ...   101.51 (33.72%)
Average number of large shells per batch     ...    33.68 (64.96%)
Average number of large basis fcns per batch ...    67.03 (66.04%)
Maximum spatial batch extension              ...  14.87, 20.95, 13.04 au
Average spatial batch extension              ...   0.68,  0.76,  0.65 au

Time for grid setup =    0.075 sec

------------------------------
INITIAL GUESS: MODEL POTENTIAL
------------------------------
Loading Hartree-Fock densities                     ... done
Calculating cut-offs                               ... done
Setting up the integral package                    ... done
Initializing the effective Hamiltonian             ... done
Starting the Coulomb interaction                   ... done (   0.0 sec)
Reading the grid                                   ... done
Mapping shells                                     ... done
Starting the XC term evaluation                    ... done (   0.0 sec)
Transforming the Hamiltonian                       ... done (   0.0 sec)
Diagonalizing the Hamiltonian                      ... done (   0.0 sec)
Back transforming the eigenvectors                 ... done (   0.0 sec)
Now organizing SCF variables                       ... done
                      ------------------
                      INITIAL GUESS DONE (   0.2 sec)
                      ------------------
--------------
SCF ITERATIONS
--------------
ITER       Energy         Delta-E        Max-DP      RMS-DP      [F,P]     Damp
               ***  Starting incremental Fock matrix formation  ***
  0   -531.8542161471   0.000000000000 0.04464069  0.00088349  0.3430399 0.7000
  1   -532.0870986724  -0.232882525262 0.02954174  0.00061275  0.2165105 0.7000
                               ***Turning on DIIS***
  2   -532.2110895664  -0.123990893990 0.01626744  0.00034447  0.1635269 0.7000
  3   -533.3703583620  -1.159268795636 0.00770627  0.00015986  0.1218164 0.7000
  4   -533.1383567258   0.232001636162 0.01731584  0.00037076  0.0861895 0.0000
  5   -532.4950098046   0.643346921262 0.00220161  0.00005903  0.0054955 0.0000
                      *** Initiating the SOSCF procedure ***
                           *** Shutting down DIIS ***
                      *** Re-Reading the Fockian *** 
                      *** Removing any level shift *** 
ITER      Energy       Delta-E        Grad      Rot      Max-DP    RMS-DP
  6   -532.46178787   0.0332219341  0.000826  0.000826  0.001337  0.000037
               *** Restarting incremental Fock matrix formation ***
  7   -532.45124376   0.0105441146  0.000303  0.000435  0.000630  0.000016
  8   -532.45125392  -0.0000101658  0.000104  0.000327  0.000507  0.000014
  9   -532.45125641  -0.0000024848  0.000058  0.000038  0.000105  0.000002
 10   -532.45125661  -0.0000002036  0.000011  0.000009  0.000022  0.000000
                  ***Gradient check signals convergence***
              ***Rediagonalizing the Fockian in SOSCF/NRSCF***

               *****************************************************
               *                     SUCCESS                       *
               *           SCF CONVERGED AFTER  11 CYCLES          *
               *****************************************************


----------------
TOTAL SCF ENERGY
----------------

Total Energy       :         -532.45125662 Eh          -14488.73529 eV

Components:
Nuclear Repulsion  :          366.19229480 Eh            9964.59893 eV
Electronic Energy  :         -898.64355142 Eh          -24453.33422 eV
One Electron Energy:        -1465.54853939 Eh          -39879.60320 eV
Two Electron Energy:          566.90498797 Eh           15426.26898 eV

Virial components:
Potential Energy   :        -1064.23482239 Eh          -28959.30178 eV
Kinetic Energy     :          531.78356577 Eh           14470.56649 eV
Virial Ratio       :            2.00125557


---------------
SCF CONVERGENCE
---------------

  Last Energy change         ...   -5.1464e-09  Tolerance :   1.0000e-08
  Last MAX-Density change    ...    5.2703e-06  Tolerance :   1.0000e-07
  Last RMS-Density change    ...    1.3306e-07  Tolerance :   5.0000e-09
  Last Orbital Gradient      ...    1.7629e-06  Tolerance :   1.0000e-05
  Last Orbital Rotation      ...    2.1795e-06  Tolerance :   1.0000e-05

             **** THE GBW FILE WAS UPDATED (12h2o.su.etal.mol1,2,3,4,7,8,10-orca.engrad-mp2.def2tzvp.frozencore.gbw) ****
             **** DENSITY FILE WAS UPDATED (12h2o.su.etal.mol1,2,3,4,7,8,10-orca.engrad-mp2.def2tzvp.frozencore.scfp) ****
             **** ENERGY FILE WAS UPDATED (12h2o.su.etal.mol1,2,3,4,7,8,10-orca.engrad-mp2.def2tzvp.frozencore.en.tmp) ****
             **** THE GBW FILE WAS UPDATED (12h2o.su.etal.mol1,2,3,4,7,8,10-orca.engrad-mp2.def2tzvp.frozencore.gbw) ****
             **** DENSITY FILE WAS UPDATED (12h2o.su.etal.mol1,2,3,4,7,8,10-orca.engrad-mp2.def2tzvp.frozencore.scfp) ****
----------------
ORBITAL ENERGIES
----------------

  NO   OCC          E(Eh)            E(eV) 
   0   2.0000     -20.600433      -560.5663 
   1   2.0000     -20.581911      -560.0623 
   2   2.0000     -20.565512      -559.6160 
   3   2.0000     -20.553421      -559.2870 
   4   2.0000     -20.548474      -559.1524 
   5   2.0000     -20.547086      -559.1146 
   6   2.0000     -20.493681      -557.6614 
   7   2.0000      -1.380225       -37.5578 
   8   2.0000      -1.366460       -37.1833 
   9   2.0000      -1.359654       -36.9981 
  10   2.0000      -1.346369       -36.6366 
  11   2.0000      -1.334399       -36.3108 
  12   2.0000      -1.324064       -36.0296 
  13   2.0000      -1.278098       -34.7788 
  14   2.0000      -0.745976       -20.2990 
  15   2.0000      -0.731656       -19.9094 
  16   2.0000      -0.722647       -19.6642 
  17   2.0000      -0.716099       -19.4860 
  18   2.0000      -0.711339       -19.3565 
  19   2.0000      -0.701018       -19.0757 
  20   2.0000      -0.663529       -18.0555 
  21   2.0000      -0.631488       -17.1836 
  22   2.0000      -0.617274       -16.7969 
  23   2.0000      -0.600912       -16.3517 
  24   2.0000      -0.587207       -15.9787 
  25   2.0000      -0.577309       -15.7094 
  26   2.0000      -0.561135       -15.2693 
  27   2.0000      -0.544167       -14.8075 
  28   2.0000      -0.535354       -14.5677 
  29   2.0000      -0.509206       -13.8562 
  30   2.0000      -0.506441       -13.7810 
  31   2.0000      -0.498538       -13.5659 
  32   2.0000      -0.493624       -13.4322 
  33   2.0000      -0.490086       -13.3359 
  34   2.0000      -0.444644       -12.0994 
  35   0.0000       0.094451         2.5701 
  36   0.0000       0.125804         3.4233 
  37   0.0000       0.155038         4.2188 
  38   0.0000       0.162534         4.4228 
  39   0.0000       0.175476         4.7749 
  40   0.0000       0.187122         5.0918 
  41   0.0000       0.234159         6.3718 
  42   0.0000       0.255797         6.9606 
  43   0.0000       0.268506         7.3064 
  44   0.0000       0.287769         7.8306 
  45   0.0000       0.318745         8.6735 
  46   0.0000       0.330894         9.0041 
  47   0.0000       0.348948         9.4954 
  48   0.0000       0.357320         9.7232 
  49   0.0000       0.422629        11.5003 
  50   0.0000       0.463943        12.6245 
  51   0.0000       0.495174        13.4744 
  52   0.0000       0.514182        13.9916 
  53   0.0000       0.517916        14.0932 
  54   0.0000       0.531613        14.4659 
  55   0.0000       0.538707        14.6590 
  56   0.0000       0.548012        14.9122 
  57   0.0000       0.555173        15.1070 
  58   0.0000       0.563006        15.3202 
  59   0.0000       0.569319        15.4920 
  60   0.0000       0.583218        15.8702 
  61   0.0000       0.608859        16.5679 
  62   0.0000       0.614545        16.7226 
  63   0.0000       0.622434        16.9373 
  64   0.0000       0.629168        17.1205 
  65   0.0000       0.643841        17.5198 
  66   0.0000       0.658862        17.9285 
  67   0.0000       0.673705        18.3325 
  68   0.0000       0.695215        18.9178 
  69   0.0000       0.712024        19.3752 
  70   0.0000       0.727542        19.7974 
  71   0.0000       0.742555        20.2060 
  72   0.0000       0.757947        20.6248 
  73   0.0000       0.766410        20.8551 
  74   0.0000       0.770008        20.9530 
  75   0.0000       0.779867        21.2212 
  76   0.0000       0.802475        21.8365 
  77   0.0000       0.808938        22.0123 
  78   0.0000       0.820477        22.3263 
  79   0.0000       0.852903        23.2087 
  80   0.0000       0.862082        23.4584 
  81   0.0000       0.878888        23.9158 
  82   0.0000       0.898794        24.4574 
  83   0.0000       0.903826        24.5944 
  84   0.0000       0.962483        26.1905 
  85   0.0000       1.003070        27.2949 
  86   0.0000       1.011110        27.5137 
  87   0.0000       1.047595        28.5065 
  88   0.0000       1.070095        29.1188 
  89   0.0000       1.093150        29.7461 
  90   0.0000       1.155684        31.4478 
  91   0.0000       1.350606        36.7519 
  92   0.0000       1.373531        37.3757 
  93   0.0000       1.385861        37.7112 
  94   0.0000       1.400664        38.1140 
  95   0.0000       1.415012        38.5044 
  96   0.0000       1.419191        38.6182 
  97   0.0000       1.432390        38.9773 
  98   0.0000       1.440333        39.1934 
  99   0.0000       1.450247        39.4632 
 100   0.0000       1.459529        39.7158 
 101   0.0000       1.480541        40.2876 
 102   0.0000       1.524257        41.4772 
 103   0.0000       1.529440        41.6182 
 104   0.0000       1.547185        42.1010 
 105   0.0000       1.566553        42.6281 
 106   0.0000       1.587777        43.2056 
 107   0.0000       1.595578        43.4179 
 108   0.0000       1.607834        43.7514 
 109   0.0000       1.629907        44.3520 
 110   0.0000       1.654742        45.0278 
 111   0.0000       1.685396        45.8619 
 112   0.0000       1.796783        48.8930 
 113   0.0000       1.824061        49.6352 
 114   0.0000       1.846723        50.2519 
 115   0.0000       1.869750        50.8785 
 116   0.0000       1.877307        51.0841 
 117   0.0000       1.892913        51.5088 
 118   0.0000       1.935129        52.6575 
 119   0.0000       1.938145        52.7396 
 120   0.0000       1.956805        53.2474 
 121   0.0000       1.975974        53.7690 
 122   0.0000       1.996612        54.3306 
 123   0.0000       2.013947        54.8023 
 124   0.0000       2.023431        55.0604 
 125   0.0000       2.039303        55.4923 
 126   0.0000       2.049709        55.7754 
 127   0.0000       2.086066        56.7647 
 128   0.0000       2.108860        57.3850 
 129   0.0000       2.153524        58.6004 
 130   0.0000       2.161077        58.8059 
 131   0.0000       2.178939        59.2919 
 132   0.0000       2.219398        60.3929 
 133   0.0000       2.247962        61.1702 
 134   0.0000       2.256828        61.4114 
 135   0.0000       2.274119        61.8819 
 136   0.0000       2.301749        62.6338 
 137   0.0000       2.311677        62.9039 
 138   0.0000       2.315661        63.0123 
 139   0.0000       2.341022        63.7025 
 140   0.0000       2.353691        64.0472 
 141   0.0000       2.367852        64.4325 
 142   0.0000       2.375395        64.6378 
 143   0.0000       2.402799        65.3835 
 144   0.0000       2.403272        65.3964 
 145   0.0000       2.428921        66.0943 
 146   0.0000       2.469058        67.1865 
 147   0.0000       2.480295        67.4923 
 148   0.0000       2.507151        68.2230 
 149   0.0000       2.532394        68.9099 
 150   0.0000       2.538771        69.0835 
 151   0.0000       2.553103        69.4735 
 152   0.0000       2.586547        70.3835 
 153   0.0000       2.590325        70.4863 
 154   0.0000       2.607210        70.9458 
 155   0.0000       2.614876        71.1544 
 156   0.0000       2.631743        71.6134 
 157   0.0000       2.640539        71.8527 
 158   0.0000       2.661947        72.4353 
 159   0.0000       2.671584        72.6975 
 160   0.0000       2.676330        72.8266 
 161   0.0000       2.692606        73.2695 
 162   0.0000       2.711538        73.7847 
 163   0.0000       2.732636        74.3588 
 164   0.0000       2.757790        75.0433 
 165   0.0000       2.786627        75.8280 
 166   0.0000       2.808398        76.4204 
 167   0.0000       2.818397        76.6925 
 168   0.0000       2.876534        78.2745 
 169   0.0000       2.906635        79.0935 
 170   0.0000       2.941556        80.0438 
 171   0.0000       2.962067        80.6019 
 172   0.0000       2.963542        80.6421 
 173   0.0000       2.980150        81.0940 
 174   0.0000       3.008312        81.8603 
 175   0.0000       3.012765        81.9815 
 176   0.0000       3.020426        82.1900 
 177   0.0000       3.035143        82.5904 
 178   0.0000       3.044112        82.8345 
 179   0.0000       3.069406        83.5228 
 180   0.0000       3.090265        84.0904 
 181   0.0000       3.108236        84.5794 
 182   0.0000       3.134975        85.3070 
 183   0.0000       3.159964        85.9870 
 184   0.0000       3.179597        86.5212 
 185   0.0000       3.223252        87.7091 
 186   0.0000       3.244545        88.2885 
 187   0.0000       3.251468        88.4769 
 188   0.0000       3.300117        89.8008 
 189   0.0000       3.324762        90.4714 
 190   0.0000       3.338871        90.8553 
 191   0.0000       3.349450        91.1432 
 192   0.0000       3.396279        92.4175 
 193   0.0000       3.468938        94.3946 
 194   0.0000       3.513744        95.6138 
 195   0.0000       3.554420        96.7207 
 196   0.0000       3.960235       107.7635 
 197   0.0000       4.041437       109.9731 
 198   0.0000       4.053665       110.3058 
 199   0.0000       4.089192       111.2726 
 200   0.0000       4.119786       112.1051 
 201   0.0000       4.155892       113.0876 
 202   0.0000       4.188000       113.9613 
 203   0.0000       4.275012       116.3290 
 204   0.0000       4.293848       116.8415 
 205   0.0000       4.316410       117.4555 
 206   0.0000       4.339838       118.0930 
 207   0.0000       4.384720       119.3143 
 208   0.0000       4.394644       119.5843 
 209   0.0000       4.410263       120.0094 
 210   0.0000       5.516135       150.1017 
 211   0.0000       5.524377       150.3259 
 212   0.0000       5.537504       150.6832 
 213   0.0000       5.551966       151.0767 
 214   0.0000       5.552458       151.0901 
 215   0.0000       5.554311       151.1405 
 216   0.0000       5.601751       152.4314 
 217   0.0000       5.609139       152.6324 
 218   0.0000       5.647109       153.6656 
 219   0.0000       5.653330       153.8349 
 220   0.0000       5.657515       153.9488 
 221   0.0000       5.687256       154.7581 
 222   0.0000       5.702083       155.1616 
 223   0.0000       5.719127       155.6254 
 224   0.0000       5.777465       157.2128 
 225   0.0000       5.799474       157.8117 
 226   0.0000       5.810047       158.0994 
 227   0.0000       5.814654       158.2248 
 228   0.0000       5.820540       158.3850 
 229   0.0000       5.826383       158.5439 
 230   0.0000       5.840309       158.9229 
 231   0.0000       5.844981       159.0500 
 232   0.0000       5.855521       159.3368 
 233   0.0000       5.868339       159.6856 
 234   0.0000       5.874852       159.8629 
 235   0.0000       5.881332       160.0392 
 236   0.0000       5.884428       160.1234 
 237   0.0000       5.888472       160.2335 
 238   0.0000       5.890924       160.3002 
 239   0.0000       5.899465       160.5326 
 240   0.0000       5.913768       160.9218 
 241   0.0000       5.933232       161.4514 
 242   0.0000       5.935463       161.5122 
 243   0.0000       5.942237       161.6965 
 244   0.0000       5.967813       162.3925 
 245   0.0000       6.394695       174.0085 
 246   0.0000       6.447490       175.4451 
 247   0.0000       6.481036       176.3580 
 248   0.0000       6.485420       176.4772 
 249   0.0000       6.488311       176.5559 
 250   0.0000       6.502932       176.9538 
 251   0.0000       6.530286       177.6981 
 252   0.0000       6.661420       181.2664 
 253   0.0000       6.673763       181.6023 
 254   0.0000       6.684816       181.9031 
 255   0.0000       6.730253       183.1395 
 256   0.0000       6.739649       183.3952 
 257   0.0000       6.757365       183.8773 
 258   0.0000       6.792581       184.8355 
 259   0.0000       6.840419       186.1373 
 260   0.0000       6.848455       186.3559 
 261   0.0000       6.855353       186.5437 
 262   0.0000       6.861546       186.7121 
 263   0.0000       6.878370       187.1700 
 264   0.0000       6.886088       187.3800 
 265   0.0000       6.899004       187.7314 
 266   0.0000       6.905227       187.9008 
 267   0.0000       6.914852       188.1627 
 268   0.0000       6.928090       188.5229 
 269   0.0000       6.934024       188.6844 
 270   0.0000       6.941390       188.8848 
 271   0.0000       6.954788       189.2494 
 272   0.0000       6.962982       189.4724 
 273   0.0000       6.981001       189.9627 
 274   0.0000       6.992924       190.2871 
 275   0.0000       7.010179       190.7567 
 276   0.0000       7.040419       191.5795 
 277   0.0000       7.050542       191.8550 
 278   0.0000       7.102459       193.2677 
 279   0.0000       7.126590       193.9244 
 280   0.0000       7.345868       199.8912 
 281   0.0000       7.384835       200.9516 
 282   0.0000       7.395450       201.2404 
 283   0.0000       7.455026       202.8616 
 284   0.0000       7.459470       202.9825 
 285   0.0000       7.486587       203.7204 
 286   0.0000       7.504856       204.2175 
 287   0.0000       7.506058       204.2502 
 288   0.0000       7.545593       205.3260 
 289   0.0000       7.565220       205.8601 
 290   0.0000       7.575467       206.1389 
 291   0.0000       7.590961       206.5606 
 292   0.0000       7.600081       206.8087 
 293   0.0000       7.661523       208.4806 
 294   0.0000      44.834525      1220.0095 
 295   0.0000      44.983202      1224.0551 
 296   0.0000      44.991008      1224.2676 
 297   0.0000      45.000996      1224.5393 
 298   0.0000      45.025934      1225.2180 
 299   0.0000      45.061201      1226.1776 
 300   0.0000      45.146938      1228.5106 

                    ********************************
                    * MULLIKEN POPULATION ANALYSIS *
                    ********************************

-----------------------
MULLIKEN ATOMIC CHARGES
-----------------------
   0 O :   -0.712903
   1 H :    0.363890
   2 H :    0.363426
   3 O :   -0.781273
   4 H :    0.350593
   5 H :    0.408414
   6 O :   -0.767830
   7 H :    0.400317
   8 H :    0.391127
   9 O :   -0.768461
  10 H :    0.374395
  11 H :    0.369199
  12 O :   -0.761153
  13 H :    0.406928
  14 H :    0.363738
  15 O :   -0.746779
  16 H :    0.366035
  17 H :    0.403482
  18 O :   -0.792269
  19 H :    0.355333
  20 H :    0.413792
Sum of atomic charges:   -0.0000000

--------------------------------
MULLIKEN REDUCED ORBITAL CHARGES
--------------------------------
  0 O s       :     3.810536  s :     3.810536
      pz      :     1.716118  p :     4.876109
      px      :     1.356059
      py      :     1.803933
      dz2     :     0.003900  d :     0.024742
      dxz     :     0.004224
      dyz     :     0.005863
      dx2y2   :     0.002496
      dxy     :     0.008259
      f0      :     0.000082  f :     0.001516
      f+1     :     0.000328
      f-1     :     0.000186
      f+2     :     0.000071
      f-2     :     0.000349
      f+3     :     0.000100
      f-3     :     0.000399
  1 H s       :     0.590657  s :     0.590657
      pz      :     0.016989  p :     0.045452
      px      :     0.013518
      py      :     0.014945
  2 H s       :     0.594786  s :     0.594786
      pz      :     0.010792  p :     0.041788
      px      :     0.017758
      py      :     0.013238
  3 O s       :     3.806058  s :     3.806058
      pz      :     1.732364  p :     4.951209
      px      :     1.782855
      py      :     1.435989
      dz2     :     0.003951  d :     0.022590
      dxz     :     0.005146
      dyz     :     0.004801
      dx2y2   :     0.002256
      dxy     :     0.006436
      f0      :     0.000089  f :     0.001417
      f+1     :     0.000175
      f-1     :     0.000331
      f+2     :     0.000061
      f-2     :     0.000355
      f+3     :     0.000326
      f-3     :     0.000081
  4 H s       :     0.603766  s :     0.603766
      pz      :     0.017118  p :     0.045641
      px      :     0.014843
      py      :     0.013680
  5 H s       :     0.535220  s :     0.535220
      pz      :     0.010380  p :     0.056366
      px      :     0.013126
      py      :     0.032860
  6 O s       :     3.792076  s :     3.792076
      pz      :     1.570487  p :     4.950576
      px      :     1.594566
      py      :     1.785523
      dz2     :     0.011693  d :     0.023840
      dxz     :     0.001208
      dyz     :     0.002193
      dx2y2   :     0.002255
      dxy     :     0.006491
      f0      :     0.000230  f :     0.001337
      f+1     :     0.000377
      f-1     :     0.000147
      f+2     :     0.000050
      f-2     :     0.000054
      f+3     :     0.000045
      f-3     :     0.000434
  7 H s       :     0.551982  s :     0.551982
      pz      :     0.024582  p :     0.047701
      px      :     0.011078
      py      :     0.012041
  8 H s       :     0.559234  s :     0.559234
      pz      :     0.009683  p :     0.049639
      px      :     0.024415
      py      :     0.015542
  9 O s       :     3.805260  s :     3.805260
      pz      :     1.577906  p :     4.937555
      px      :     1.874409
      py      :     1.485241
      dz2     :     0.010938  d :     0.024244
      dxz     :     0.002500
      dyz     :     0.002848
      dx2y2   :     0.002996
      dxy     :     0.004963
      f0      :     0.000165  f :     0.001401
      f+1     :     0.000118
      f-1     :     0.000440
      f+2     :     0.000076
      f-2     :     0.000040
      f+3     :     0.000446
      f-3     :     0.000117
 10 H s       :     0.576453  s :     0.576453
      pz      :     0.024169  p :     0.049152
      px      :     0.013504
      py      :     0.011479
 11 H s       :     0.576746  s :     0.576746
      pz      :     0.010057  p :     0.054055
      px      :     0.015924
      py      :     0.028074
 12 O s       :     3.802342  s :     3.802342
      pz      :     1.611820  p :     4.933879
      px      :     1.465874
      py      :     1.856185
      dz2     :     0.010321  d :     0.023535
      dxz     :     0.002474
      dyz     :     0.002094
      dx2y2   :     0.003464
      dxy     :     0.005182
      f0      :     0.000169  f :     0.001398
      f+1     :     0.000438
      f-1     :     0.000114
      f+2     :     0.000070
      f-2     :     0.000037
      f+3     :     0.000112
      f-3     :     0.000458
 13 H s       :     0.544649  s :     0.544649
      pz      :     0.025148  p :     0.048423
      px      :     0.010891
      py      :     0.012385
 14 H s       :     0.594263  s :     0.594263
      pz      :     0.009396  p :     0.041999
      px      :     0.018498
      py      :     0.014105
 15 O s       :     3.795126  s :     3.795126
      pz      :     1.526757  p :     4.925728
      px      :     1.606910
      py      :     1.792060
      dz2     :     0.012259  d :     0.024538
      dxz     :     0.001245
      dyz     :     0.002266
      dx2y2   :     0.002252
      dxy     :     0.006516
      f0      :     0.000250  f :     0.001387
      f+1     :     0.000389
      f-1     :     0.000155
      f+2     :     0.000052
      f-2     :     0.000056
      f+3     :     0.000046
      f-3     :     0.000439
 16 H s       :     0.590480  s :     0.590480
      pz      :     0.019318  p :     0.043485
      px      :     0.011549
      py      :     0.012618
 17 H s       :     0.547359  s :     0.547359
      pz      :     0.009298  p :     0.049159
      px      :     0.024538
      py      :     0.015322
 18 O s       :     3.807620  s :     3.807620
      pz      :     1.726150  p :     4.961250
      px      :     1.789596
      py      :     1.445504
      dz2     :     0.003739  d :     0.022022
      dxz     :     0.005037
      dyz     :     0.004539
      dx2y2   :     0.002173
      dxy     :     0.006534
      f0      :     0.000081  f :     0.001378
      f+1     :     0.000169
      f-1     :     0.000316
      f+2     :     0.000060
      f-2     :     0.000345
      f+3     :     0.000326
      f-3     :     0.000081
 19 H s       :     0.599298  s :     0.599298
      pz      :     0.016950  p :     0.045369
      px      :     0.014682
      py      :     0.013737
 20 H s       :     0.530344  s :     0.530344
      pz      :     0.009816  p :     0.055864
      px      :     0.013003
      py      :     0.033046


                     *******************************
                     * LOEWDIN POPULATION ANALYSIS *
                     *******************************

----------------------
LOEWDIN ATOMIC CHARGES
----------------------
   0 O :   -0.311528
   1 H :    0.164543
   2 H :    0.186207
   3 O :   -0.351403
   4 H :    0.155261
   5 H :    0.155510
   6 O :   -0.301162
   7 H :    0.160445
   8 H :    0.157078
   9 O :   -0.375492
  10 H :    0.147489
  11 H :    0.143508
  12 O :   -0.297637
  13 H :    0.163829
  14 H :    0.176605
  15 O :   -0.294652
  16 H :    0.172386
  17 H :    0.162629
  18 O :   -0.326945
  19 H :    0.156265
  20 H :    0.157065

-------------------------------
LOEWDIN REDUCED ORBITAL CHARGES
-------------------------------
  0 O s       :     3.468375  s :     3.468375
      pz      :     1.680697  p :     4.808800
      px      :     1.353982
      py      :     1.774121
      dz2     :     0.005287  d :     0.032250
      dxz     :     0.006661
      dyz     :     0.005823
      dx2y2   :     0.003868
      dxy     :     0.010612
      f0      :     0.000085  f :     0.002102
      f+1     :     0.000448
      f-1     :     0.000273
      f+2     :     0.000036
      f-2     :     0.000604
      f+3     :     0.000093
      f-3     :     0.000564
  1 H s       :     0.672144  s :     0.672144
      pz      :     0.066292  p :     0.163313
      px      :     0.044182
      py      :     0.052839
  2 H s       :     0.665874  s :     0.665874
      pz      :     0.033368  p :     0.147919
      px      :     0.070941
      py      :     0.043609
  3 O s       :     3.460236  s :     3.460236
      pz      :     1.710429  p :     4.860681
      px      :     1.745998
      py      :     1.404253
      dz2     :     0.004257  d :     0.028530
      dxz     :     0.005278
      dyz     :     0.006981
      dx2y2   :     0.003674
      dxy     :     0.008340
      f0      :     0.000073  f :     0.001956
      f+1     :     0.000260
      f-1     :     0.000436
      f+2     :     0.000031
      f-2     :     0.000619
      f+3     :     0.000454
      f-3     :     0.000083
  4 H s       :     0.679839  s :     0.679839
      pz      :     0.065818  p :     0.164899
      px      :     0.052983
      py      :     0.046098
  5 H s       :     0.646832  s :     0.646832
      pz      :     0.033246  p :     0.197658
      px      :     0.047615
      py      :     0.116797
  6 O s       :     3.445612  s :     3.445612
      pz      :     1.541551  p :     4.824137
      px      :     1.555453
      py      :     1.727133
      dz2     :     0.014723  d :     0.029424
      dxz     :     0.001830
      dyz     :     0.001670
      dx2y2   :     0.003305
      dxy     :     0.007896
      f0      :     0.000417  f :     0.001989
      f+1     :     0.000538
      f-1     :     0.000317
      f+2     :     0.000019
      f-2     :     0.000049
      f+3     :     0.000025
      f-3     :     0.000624
  7 H s       :     0.667340  s :     0.667340
      pz      :     0.093521  p :     0.172215
      px      :     0.037079
      py      :     0.041615
  8 H s       :     0.666407  s :     0.666407
      pz      :     0.030817  p :     0.176515
      px      :     0.087697
      py      :     0.058000
  9 O s       :     3.464542  s :     3.464542
      pz      :     1.566949  p :     4.879555
      px      :     1.837127
      py      :     1.475479
      dz2     :     0.013762  d :     0.029430
      dxz     :     0.001585
      dyz     :     0.003936
      dx2y2   :     0.003987
      dxy     :     0.006159
      f0      :     0.000350  f :     0.001966
      f+1     :     0.000188
      f-1     :     0.000707
      f+2     :     0.000043
      f-2     :     0.000042
      f+3     :     0.000567
      f-3     :     0.000068
 10 H s       :     0.679738  s :     0.679738
      pz      :     0.092071  p :     0.172773
      px      :     0.043432
      py      :     0.037269
 11 H s       :     0.673014  s :     0.673014
      pz      :     0.030826  p :     0.183477
      px      :     0.052611
      py      :     0.100040
 12 O s       :     3.456866  s :     3.456866
      pz      :     1.563635  p :     4.807895
      px      :     1.453622
      py      :     1.790638
      dz2     :     0.014059  d :     0.030857
      dxz     :     0.003521
      dyz     :     0.001281
      dx2y2   :     0.005283
      dxy     :     0.006713
      f0      :     0.000333  f :     0.002019
      f+1     :     0.000699
      f-1     :     0.000203
      f+2     :     0.000037
      f-2     :     0.000042
      f+3     :     0.000075
      f-3     :     0.000630
 13 H s       :     0.662936  s :     0.662936
      pz      :     0.095210  p :     0.173235
      px      :     0.035628
      py      :     0.042397
 14 H s       :     0.668572  s :     0.668572
      pz      :     0.030569  p :     0.154823
      px      :     0.074845
      py      :     0.049409
 15 O s       :     3.451401  s :     3.451401
      pz      :     1.518649  p :     4.810396
      px      :     1.560131
      py      :     1.731615
      dz2     :     0.015905  d :     0.030783
      dxz     :     0.002067
      dyz     :     0.001809
      dx2y2   :     0.003254
      dxy     :     0.007748
      f0      :     0.000462  f :     0.002073
      f+1     :     0.000570
      f-1     :     0.000328
      f+2     :     0.000021
      f-2     :     0.000052
      f+3     :     0.000025
      f-3     :     0.000615
 16 H s       :     0.668332  s :     0.668332
      pz      :     0.080898  p :     0.159282
      px      :     0.036636
      py      :     0.041748
 17 H s       :     0.661368  s :     0.661368
      pz      :     0.029358  p :     0.176003
      px      :     0.088517
      py      :     0.058128
 18 O s       :     3.455394  s :     3.455394
      pz      :     1.684010  p :     4.840976
      px      :     1.748466
      py      :     1.408499
      dz2     :     0.004785  d :     0.028628
      dxz     :     0.005220
      dyz     :     0.006834
      dx2y2   :     0.003566
      dxy     :     0.008224
      f0      :     0.000088  f :     0.001948
      f+1     :     0.000257
      f-1     :     0.000428
      f+2     :     0.000032
      f-2     :     0.000611
      f+3     :     0.000449
      f-3     :     0.000083
 19 H s       :     0.678216  s :     0.678216
      pz      :     0.066250  p :     0.165519
      px      :     0.052995
      py      :     0.046274
 20 H s       :     0.643409  s :     0.643409
      pz      :     0.033214  p :     0.199525
      px      :     0.047604
      py      :     0.118707


                      *****************************
                      * MAYER POPULATION ANALYSIS *
                      *****************************

  NA   - Mulliken gross atomic population
  ZA   - Total nuclear charge
  QA   - Mulliken gross atomic charge
  VA   - Mayer's total valence
  BVA  - Mayer's bonded valence
  FA   - Mayer's free valence

  ATOM       NA         ZA         QA         VA         BVA        FA
  0 O      8.7129     8.0000    -0.7129     1.7743     1.7743     0.0000
  1 H      0.6361     1.0000     0.3639     0.8827     0.8827     0.0000
  2 H      0.6366     1.0000     0.3634     0.8814     0.8814    -0.0000
  3 O      8.7813     8.0000    -0.7813     1.6835     1.6835     0.0000
  4 H      0.6494     1.0000     0.3506     0.8937     0.8937     0.0000
  5 H      0.5916     1.0000     0.4084     0.8721     0.8721     0.0000
  6 O      8.7678     8.0000    -0.7678     1.7189     1.7189    -0.0000
  7 H      0.5997     1.0000     0.4003     0.8627     0.8627     0.0000
  8 H      0.6089     1.0000     0.3911     0.8855     0.8855    -0.0000
  9 O      8.7685     8.0000    -0.7685     1.7049     1.7049    -0.0000
 10 H      0.6256     1.0000     0.3744     0.8886     0.8886    -0.0000
 11 H      0.6308     1.0000     0.3692     0.8970     0.8970     0.0000
 12 O      8.7612     8.0000    -0.7612     1.7277     1.7277     0.0000
 13 H      0.5931     1.0000     0.4069     0.8667     0.8667    -0.0000
 14 H      0.6363     1.0000     0.3637     0.8860     0.8860    -0.0000
 15 O      8.7468     8.0000    -0.7468     1.7385     1.7385    -0.0000
 16 H      0.6340     1.0000     0.3660     0.8813     0.8813    -0.0000
 17 H      0.5965     1.0000     0.4035     0.8744     0.8744     0.0000
 18 O      8.7923     8.0000    -0.7923     1.6720     1.6720     0.0000
 19 H      0.6447     1.0000     0.3553     0.8906     0.8906    -0.0000
 20 H      0.5862     1.0000     0.4138     0.8700     0.8700     0.0000

  Mayer bond orders larger than 0.100000
B(  0-O ,  1-H ) :   0.8755 B(  0-O ,  2-H ) :   0.8728 B(  3-O ,  4-H ) :   0.8856 
B(  3-O ,  5-H ) :   0.7830 B(  6-O ,  7-H ) :   0.8388 B(  6-O ,  8-H ) :   0.8272 
B(  9-O , 10-H ) :   0.8604 B(  9-O , 11-H ) :   0.8523 B( 12-O , 13-H ) :   0.8236 
B( 12-O , 14-H ) :   0.8700 B( 15-O , 16-H ) :   0.8732 B( 15-O , 17-H ) :   0.8181 
B( 18-O , 19-H ) :   0.8804 B( 18-O , 20-H ) :   0.7655 

-------
TIMINGS
-------

Total SCF time: 0 days 0 hours 0 min 19 sec 

Total time                  ....      19.731 sec
Sum of individual times     ....      19.447 sec  ( 98.6%)

Fock matrix formation       ....      18.960 sec  ( 96.1%)
Diagonalization             ....       0.116 sec  (  0.6%)
Density matrix formation    ....       0.013 sec  (  0.1%)
Population analysis         ....       0.022 sec  (  0.1%)
Initial guess               ....       0.166 sec  (  0.8%)
Orbital Transformation      ....       0.000 sec  (  0.0%)
Orbital Orthonormalization  ....       0.000 sec  (  0.0%)
DIIS solution               ....       0.043 sec  (  0.2%)
SOSCF solution              ....       0.051 sec  (  0.3%)


           ************************************************************
           *        Program running with 6 parallel MPI-processes     *
           *              working on a common directory               *
           ************************************************************

------------------------------------------------------------------------------
                                ORCA  MP2 
------------------------------------------------------------------------------

Freezing NCore=14 chemical core electrons
MP2 will be done in the AO integral direct mode
The Q1-step will be done using symmetric double matrices
Dimension of the basis                    ...  301
Memory devoted for MP2                    ... 8000 MB   
Memory needed for all in one shot         ...  523 MB
Number of MOs that can be treated together...   75      
MP2 density construction                  ... relaxed
The MP2 gradient is requested => amplitudes will be stored on disk
Total number of MOs              ...   28
Number of MOs treated per batch  ...    5 
Number of batches necessary      ...    1 
OPERATORS   0/  0 PASS   0
-----------------------------------------------
 MP2 CORRELATION ENERGY   :     -1.814209498 Eh
-----------------------------------------------


---------------------
MP2 DENSITY FORMATION
---------------------

Completing the external part of the density      ... done
Storing the unrelaxed density                    ... done

Calculating G(D)                                 ... done
Completing the Lagrangian                        ... done
Solving the Z-vector equations                   ... 

------------------------------------------------------------------------------
                           ORCA CP-SCF CALCULATION
------------------------------------------------------------------------------

Input orbitals are from        ... 12h2o.su.etal.mol1,2,3,4,7,8,10-orca.engrad-mp2.def2tzvp.frozencore.gbw
Input Perturbation             ... 12h2o.su.etal.mol1,2,3,4,7,8,10-orca.engrad-mp2.def2tzvp.frozencore.pin.tmp
Wavefunction output            ... 12h2o.su.etal.mol1,2,3,4,7,8,10-orca.engrad-mp2.def2tzvp.frozencore.pout.tmp
Perturbation mode              ... Real perturbation (singlet)
Solver                         ... POPLE
Max. number of iterations      ... 128
Convergence tolerance          ... 1.000e-08
Integral handling              ... Direct
Number of perturbations        ... 1
Number of operators            ... 1
Orbital ranges used for CP-SCF:
 Operator 0:  Orbitals   0... 34  to  35...300
Variables per vector in CP-SCF ... 9310
Number of vectors sought       ... 1
     CP-SCF ITERATION   0: 
     CP-SCF ITERATION   1:      0.000909237576
     CP-SCF ITERATION   2:      0.000025098939
     CP-SCF ITERATION   3:      0.000001156749
     CP-SCF ITERATION   4:      0.000000121719
     CP-SCF ITERATION   5:      0.000000009799
                                                 ... done
Finalizing the relaxed density                   ... done
Transforming P to the AO basis                   ... done
Storing the relaxed density                      ... done

------------------------------------
ENERGY WEIGHTED DENSITY FINALIZATION
------------------------------------

Gathering the parts of the W-matrix              ...                                                      done
Forming the Z-density                            ... done
Transforming Z to the AO basis                   ... done
Calculating G(Z)                                 ... done
Finalizing the W-matrix                          ...                                                      done
Transforming W to the AO basis and storing       ... done

                *********************************************
                * UNRELAXED MP2 DENSITY POPULATION ANALYSIS *
                *********************************************

------------------------------------------------------------------------------
                           ORCA POPULATION ANALYSIS
------------------------------------------------------------------------------
Input electron density              ... 12h2o.su.etal.mol1,2,3,4,7,8,10-orca.engrad-mp2.def2tzvp.frozencore.pmp2ur
BaseName (.gbw .S,...)              ... 12h2o.su.etal.mol1,2,3,4,7,8,10-orca.engrad-mp2.def2tzvp.frozencore

                    ********************************
                    * MULLIKEN POPULATION ANALYSIS *
                    ********************************

-----------------------
MULLIKEN ATOMIC CHARGES
-----------------------
   0 O :   -0.707561
   1 H :    0.361738
   2 H :    0.360728
   3 O :   -0.774941
   4 H :    0.348304
   5 H :    0.403637
   6 O :   -0.760432
   7 H :    0.397357
   8 H :    0.387489
   9 O :   -0.762261
  10 H :    0.371265
  11 H :    0.365109
  12 O :   -0.754739
  13 H :    0.403944
  14 H :    0.360885
  15 O :   -0.739973
  16 H :    0.363536
  17 H :    0.399858
  18 O :   -0.785544
  19 H :    0.352967
  20 H :    0.408635
Sum of atomic charges:    0.0000000

--------------------------------
MULLIKEN REDUCED ORBITAL CHARGES
--------------------------------
  0 O s       :     3.805717  s :     3.805717
      pz      :     1.705161  p :     4.846243
      px      :     1.348452
      py      :     1.792629
      dz2     :     0.009421  d :     0.051533
      dxz     :     0.009584
      dyz     :     0.011253
      dx2y2   :     0.007837
      dxy     :     0.013439
      f0      :     0.000453  f :     0.004069
      f+1     :     0.000689
      f-1     :     0.000551
      f+2     :     0.000438
      f-2     :     0.000713
      f+3     :     0.000468
      f-3     :     0.000757
  1 H s       :     0.591253  s :     0.591253
      pz      :     0.017450  p :     0.047009
      px      :     0.013899
      py      :     0.015661
  2 H s       :     0.595929  s :     0.595929
      pz      :     0.011624  p :     0.043343
      px      :     0.017699
      py      :     0.014019
  3 O s       :     3.801073  s :     3.801073
      pz      :     1.721714  p :     4.919732
      px      :     1.770812
      py      :     1.427207
      dz2     :     0.009474  d :     0.050136
      dxz     :     0.010607
      dyz     :     0.010218
      dx2y2   :     0.007901
      dxy     :     0.011936
      f0      :     0.000458  f :     0.004000
      f+1     :     0.000540
      f-1     :     0.000697
      f+2     :     0.000432
      f-2     :     0.000721
      f+3     :     0.000695
      f-3     :     0.000457
  4 H s       :     0.604412  s :     0.604412
      pz      :     0.017602  p :     0.047284
      px      :     0.015551
      py      :     0.014131
  5 H s       :     0.538372  s :     0.538372
      pz      :     0.011191  p :     0.057991
      px      :     0.013828
      py      :     0.032972
  6 O s       :     3.786869  s :     3.786869
      pz      :     1.560748  p :     4.918012
      px      :     1.584609
      py      :     1.772655
      dz2     :     0.016987  d :     0.051600
      dxz     :     0.006738
      dyz     :     0.007866
      dx2y2   :     0.008007
      dxy     :     0.012002
      f0      :     0.000615  f :     0.003951
      f+1     :     0.000749
      f-1     :     0.000527
      f+2     :     0.000415
      f-2     :     0.000423
      f+3     :     0.000422
      f-3     :     0.000799
  7 H s       :     0.553446  s :     0.553446
      pz      :     0.024637  p :     0.049197
      px      :     0.011727
      py      :     0.012832
  8 H s       :     0.561379  s :     0.561379
      pz      :     0.010447  p :     0.051132
      px      :     0.024597
      py      :     0.016088
  9 O s       :     3.800296  s :     3.800296
      pz      :     1.568095  p :     4.906554
      px      :     1.862415
      py      :     1.476045
      dz2     :     0.016172  d :     0.051430
      dxz     :     0.008074
      dyz     :     0.008272
      dx2y2   :     0.008523
      dxy     :     0.010389
      f0      :     0.000550  f :     0.003980
      f+1     :     0.000491
      f-1     :     0.000810
      f+2     :     0.000440
      f-2     :     0.000406
      f+3     :     0.000801
      f-3     :     0.000482
 10 H s       :     0.577973  s :     0.577973
      pz      :     0.024279  p :     0.050763
      px      :     0.014371
      py      :     0.012112
 11 H s       :     0.579065  s :     0.579065
      pz      :     0.010924  p :     0.055826
      px      :     0.016666
      py      :     0.028236
 12 O s       :     3.797299  s :     3.797299
      pz      :     1.601648  p :     4.902161
      px      :     1.457003
      py      :     1.843510
      dz2     :     0.015795  d :     0.051286
      dxz     :     0.007931
      dyz     :     0.007838
      dx2y2   :     0.009048
      dxy     :     0.010674
      f0      :     0.000558  f :     0.003993
      f+1     :     0.000807
      f-1     :     0.000494
      f+2     :     0.000437
      f-2     :     0.000405
      f+3     :     0.000480
      f-3     :     0.000813
 13 H s       :     0.546206  s :     0.546206
      pz      :     0.025242  p :     0.049850
      px      :     0.011426
      py      :     0.013181
 14 H s       :     0.595543  s :     0.595543
      pz      :     0.010209  p :     0.043572
      px      :     0.018524
      py      :     0.014839
 15 O s       :     3.789921  s :     3.789921
      pz      :     1.517549  p :     4.894091
      px      :     1.597162
      py      :     1.779381
      dz2     :     0.017403  d :     0.051974
      dxz     :     0.006706
      dyz     :     0.007864
      dx2y2   :     0.007978
      dxy     :     0.012022
      f0      :     0.000631  f :     0.003987
      f+1     :     0.000757
      f-1     :     0.000531
      f+2     :     0.000415
      f-2     :     0.000424
      f+3     :     0.000424
      f-3     :     0.000805
 16 H s       :     0.591406  s :     0.591406
      pz      :     0.019390  p :     0.045058
      px      :     0.012240
      py      :     0.013428
 17 H s       :     0.549533  s :     0.549533
      pz      :     0.010032  p :     0.050609
      px      :     0.024717
      py      :     0.015859
 18 O s       :     3.802616  s :     3.802616
      pz      :     1.715094  p :     4.928971
      px      :     1.777407
      py      :     1.436471
      dz2     :     0.009426  d :     0.049981
      dxz     :     0.010576
      dyz     :     0.010071
      dx2y2   :     0.007854
      dxy     :     0.012053
      f0      :     0.000455  f :     0.003976
      f+1     :     0.000537
      f-1     :     0.000685
      f+2     :     0.000432
      f-2     :     0.000713
      f+3     :     0.000696
      f-3     :     0.000458
 19 H s       :     0.600044  s :     0.600044
      pz      :     0.017432  p :     0.046989
      px      :     0.015372
      py      :     0.014185
 20 H s       :     0.533900  s :     0.533900
      pz      :     0.010613  p :     0.057464
      px      :     0.013692
      py      :     0.033159


                     *******************************
                     * LOEWDIN POPULATION ANALYSIS *
                     *******************************

----------------------
LOEWDIN ATOMIC CHARGES
----------------------
   0 O :   -0.307793
   1 H :    0.163439
   2 H :    0.184511
   3 O :   -0.347974
   4 H :    0.153981
   5 H :    0.152881
   6 O :   -0.296841
   7 H :    0.158474
   8 H :    0.154792
   9 O :   -0.372625
  10 H :    0.145370
  11 H :    0.140965
  12 O :   -0.292951
  13 H :    0.161853
  14 H :    0.174762
  15 O :   -0.290527
  16 H :    0.170928
  17 H :    0.160383
  18 O :   -0.322821
  19 H :    0.154893
  20 H :    0.154298

-------------------------------
LOEWDIN REDUCED ORBITAL CHARGES
-------------------------------
  0 O s       :     3.464586  s :     3.464586
      pz      :     1.669298  p :     4.778252
      px      :     1.345912
      py      :     1.763042
      dz2     :     0.010896  d :     0.060107
      dxz     :     0.012225
      dyz     :     0.011494
      dx2y2   :     0.009330
      dxy     :     0.016162
      f0      :     0.000468  f :     0.004848
      f+1     :     0.000856
      f-1     :     0.000657
      f+2     :     0.000409
      f-2     :     0.001011
      f+3     :     0.000474
      f-3     :     0.000974
  1 H s       :     0.670278  s :     0.670278
      pz      :     0.067466  p :     0.166282
      px      :     0.044990
      py      :     0.053826
  2 H s       :     0.664455  s :     0.664455
      pz      :     0.034204  p :     0.151034
      px      :     0.072214
      py      :     0.044616
  3 O s       :     3.456590  s :     3.456590
      pz      :     1.699815  p :     4.829493
      px      :     1.733856
      py      :     1.395822
      dz2     :     0.009897  d :     0.057155
      dxz     :     0.011057
      dyz     :     0.012623
      dx2y2   :     0.009405
      dxy     :     0.014172
      f0      :     0.000453  f :     0.004736
      f+1     :     0.000646
      f-1     :     0.000850
      f+2     :     0.000410
      f-2     :     0.001029
      f+3     :     0.000876
      f-3     :     0.000473
  4 H s       :     0.677943  s :     0.677943
      pz      :     0.067065  p :     0.168076
      px      :     0.053966
      py      :     0.047045
  5 H s       :     0.647116  s :     0.647116
      pz      :     0.034063  p :     0.200003
      px      :     0.048456
      py      :     0.117484
  6 O s       :     3.441912  s :     3.441912
      pz      :     1.531815  p :     4.791899
      px      :     1.545664
      py      :     1.714420
      dz2     :     0.020690  d :     0.058228
      dxz     :     0.007318
      dyz     :     0.007272
      dx2y2   :     0.009021
      dxy     :     0.013928
      f0      :     0.000845  f :     0.004801
      f+1     :     0.000965
      f-1     :     0.000719
      f+2     :     0.000389
      f-2     :     0.000426
      f+3     :     0.000407
      f-3     :     0.001050
  7 H s       :     0.666477  s :     0.666477
      pz      :     0.094808  p :     0.175049
      px      :     0.037843
      py      :     0.042398
  8 H s       :     0.665927  s :     0.665927
      pz      :     0.031575  p :     0.179281
      px      :     0.088823
      py      :     0.058883
  9 O s       :     3.460893  s :     3.460893
      pz      :     1.557094  p :     4.849196
      px      :     1.825715
      py      :     1.466387
      dz2     :     0.019628  d :     0.057793
      dxz     :     0.007095
      dyz     :     0.009402
      dx2y2   :     0.009719
      dxy     :     0.011949
      f0      :     0.000766  f :     0.004742
      f+1     :     0.000576
      f-1     :     0.001147
      f+2     :     0.000415
      f-2     :     0.000415
      f+3     :     0.000979
      f-3     :     0.000445
 10 H s       :     0.678832  s :     0.678832
      pz      :     0.093487  p :     0.175797
      px      :     0.044228
      py      :     0.038083
 11 H s       :     0.672580  s :     0.672580
      pz      :     0.031696  p :     0.186455
      px      :     0.053515
      py      :     0.101245
 12 O s       :     3.453072  s :     3.453072
      pz      :     1.553040  p :     4.775405
      px      :     1.444435
      py      :     1.777929
      dz2     :     0.020107  d :     0.059661
      dxz     :     0.009030
      dyz     :     0.006945
      dx2y2   :     0.011056
      dxy     :     0.012523
      f0      :     0.000754  f :     0.004813
      f+1     :     0.001138
      f-1     :     0.000598
      f+2     :     0.000411
      f-2     :     0.000416
      f+3     :     0.000455
      f-3     :     0.001042
 13 H s       :     0.662252  s :     0.662252
      pz      :     0.096400  p :     0.175895
      px      :     0.036336
      py      :     0.043159
 14 H s       :     0.667237  s :     0.667237
      pz      :     0.031413  p :     0.158001
      px      :     0.076217
      py      :     0.050371
 15 O s       :     3.447637  s :     3.447637
      pz      :     1.509217  p :     4.778790
      px      :     1.550517
      py      :     1.719055
      dz2     :     0.021747  d :     0.059231
      dxz     :     0.007468
      dyz     :     0.007334
      dx2y2   :     0.008937
      dxy     :     0.013745
      f0      :     0.000884  f :     0.004869
      f+1     :     0.000993
      f-1     :     0.000727
      f+2     :     0.000389
      f-2     :     0.000427
      f+3     :     0.000408
      f-3     :     0.001041
 16 H s       :     0.666727  s :     0.666727
      pz      :     0.082394  p :     0.162344
      px      :     0.037412
      py      :     0.042538
 17 H s       :     0.660964  s :     0.660964
      pz      :     0.030084  p :     0.178653
      px      :     0.089585
      py      :     0.058985
 18 O s       :     3.451763  s :     3.451763
      pz      :     1.672487  p :     4.808576
      px      :     1.736189
      py      :     1.399901
      dz2     :     0.010604  d :     0.057737
      dxz     :     0.011111
      dyz     :     0.012585
      dx2y2   :     0.009340
      dxy     :     0.014097
      f0      :     0.000474  f :     0.004745
      f+1     :     0.000645
      f-1     :     0.000846
      f+2     :     0.000412
      f-2     :     0.001023
      f+3     :     0.000872
      f-3     :     0.000474
 19 H s       :     0.676415  s :     0.676415
      pz      :     0.067508  p :     0.168692
      px      :     0.053969
      py      :     0.047215
 20 H s       :     0.643876  s :     0.643876
      pz      :     0.034041  p :     0.201826
      px      :     0.048429
      py      :     0.119355


                      *****************************
                      * MAYER POPULATION ANALYSIS *
                      *****************************

  NA   - Mulliken gross atomic population
  ZA   - Total nuclear charge
  QA   - Mulliken gross atomic charge
  VA   - Mayer's total valence
  BVA  - Mayer's bonded valence
  FA   - Mayer's free valence

  ATOM       NA         ZA         QA         VA         BVA        FA
  0 O      8.7076     8.0000    -0.7076     2.0818     1.6929     0.3890
  1 H      0.6383     1.0000     0.3617     0.8882     0.8431     0.0451
  2 H      0.6393     1.0000     0.3607     0.8874     0.8393     0.0480
  3 O      8.7749     8.0000    -0.7749     2.0012     1.6063     0.3949
  4 H      0.6517     1.0000     0.3483     0.8994     0.8527     0.0467
  5 H      0.5964     1.0000     0.4036     0.8797     0.8344     0.0453
  6 O      8.7604     8.0000    -0.7604     2.0335     1.6422     0.3914
  7 H      0.6026     1.0000     0.3974     0.8686     0.8250     0.0435
  8 H      0.6125     1.0000     0.3875     0.8922     0.8473     0.0449
  9 O      8.7623     8.0000    -0.7623     2.0195     1.6260     0.3935
 10 H      0.6287     1.0000     0.3713     0.8950     0.8493     0.0457
 11 H      0.6349     1.0000     0.3651     0.9045     0.8568     0.0477
 12 O      8.7547     8.0000    -0.7547     2.0430     1.6494     0.3937
 13 H      0.5961     1.0000     0.4039     0.8725     0.8298     0.0427
 14 H      0.6391     1.0000     0.3609     0.8924     0.8443     0.0481
 15 O      8.7400     8.0000    -0.7400     2.0496     1.6607     0.3889
 16 H      0.6365     1.0000     0.3635     0.8871     0.8409     0.0462
 17 H      0.6001     1.0000     0.3999     0.8811     0.8373     0.0438
 18 O      8.7855     8.0000    -0.7855     1.9923     1.5951     0.3972
 19 H      0.6470     1.0000     0.3530     0.8964     0.8497     0.0467
 20 H      0.5914     1.0000     0.4086     0.8781     0.8323     0.0458

  Mayer bond orders larger than 0.100000
B(  0-O ,  1-H ) :   0.8364 B(  0-O ,  2-H ) :   0.8313 B(  3-O ,  4-H ) :   0.8453 
B(  3-O ,  5-H ) :   0.7479 B(  6-O ,  7-H ) :   0.8019 B(  6-O ,  8-H ) :   0.7909 
B(  9-O , 10-H ) :   0.8219 B(  9-O , 11-H ) :   0.8133 B( 12-O , 13-H ) :   0.7880 
B( 12-O , 14-H ) :   0.8291 B( 15-O , 16-H ) :   0.8334 B( 15-O , 17-H ) :   0.7828 
B( 18-O , 19-H ) :   0.8401 B( 18-O , 20-H ) :   0.7310 


                *******************************************
                * RELAXED MP2 DENSITY POPULATION ANALYSIS *
                *******************************************

------------------------------------------------------------------------------
                           ORCA POPULATION ANALYSIS
------------------------------------------------------------------------------
Input electron density              ... 12h2o.su.etal.mol1,2,3,4,7,8,10-orca.engrad-mp2.def2tzvp.frozencore.pmp2re
BaseName (.gbw .S,...)              ... 12h2o.su.etal.mol1,2,3,4,7,8,10-orca.engrad-mp2.def2tzvp.frozencore

                    ********************************
                    * MULLIKEN POPULATION ANALYSIS *
                    ********************************

-----------------------
MULLIKEN ATOMIC CHARGES
-----------------------
   0 O :   -0.689133
   1 H :    0.355166
   2 H :    0.354652
   3 O :   -0.747721
   4 H :    0.341818
   5 H :    0.379756
   6 O :   -0.725644
   7 H :    0.384553
   8 H :    0.368555
   9 O :   -0.738263
  10 H :    0.356348
  11 H :    0.345243
  12 O :   -0.725709
  13 H :    0.387527
  14 H :    0.352963
  15 O :   -0.711410
  16 H :    0.357231
  17 H :    0.380589
  18 O :   -0.754324
  19 H :    0.345809
  20 H :    0.381996
Sum of atomic charges:   -0.0000000

--------------------------------
MULLIKEN REDUCED ORBITAL CHARGES
--------------------------------
  0 O s       :     3.809971  s :     3.809971
      pz      :     1.694588  p :     4.825901
      px      :     1.344595
      py      :     1.786718
      dz2     :     0.009161  d :     0.049266
      dxz     :     0.008999
      dyz     :     0.010973
      dx2y2   :     0.007598
      dxy     :     0.012534
      f0      :     0.000451  f :     0.003996
      f+1     :     0.000669
      f-1     :     0.000543
      f+2     :     0.000438
      f-2     :     0.000692
      f+3     :     0.000466
      f-3     :     0.000736
  1 H s       :     0.597146  s :     0.597146
      pz      :     0.017565  p :     0.047688
      px      :     0.013825
      py      :     0.016298
  2 H s       :     0.601386  s :     0.601386
      pz      :     0.012468  p :     0.043962
      px      :     0.016708
      py      :     0.014785
  3 O s       :     3.801864  s :     3.801864
      pz      :     1.716388  p :     4.893603
      px      :     1.755372
      py      :     1.421844
      dz2     :     0.009283  d :     0.048321
      dxz     :     0.010310
      dyz     :     0.009659
      dx2y2   :     0.007764
      dxy     :     0.011305
      f0      :     0.000456  f :     0.003932
      f+1     :     0.000532
      f-1     :     0.000680
      f+2     :     0.000431
      f-2     :     0.000702
      f+3     :     0.000676
      f-3     :     0.000455
  4 H s       :     0.610147  s :     0.610147
      pz      :     0.017700  p :     0.048034
      px      :     0.016185
      py      :     0.014149
  5 H s       :     0.562089  s :     0.562089
      pz      :     0.011887  p :     0.058156
      px      :     0.014284
      py      :     0.031984
  6 O s       :     3.782649  s :     3.782649
      pz      :     1.557323  p :     4.889256
      px      :     1.579967
      py      :     1.751965
      dz2     :     0.015859  d :     0.049859
      dxz     :     0.006714
      dyz     :     0.007857
      dx2y2   :     0.007972
      dxy     :     0.011457
      f0      :     0.000600  f :     0.003881
      f+1     :     0.000728
      f-1     :     0.000518
      f+2     :     0.000415
      f-2     :     0.000422
      f+3     :     0.000422
      f-3     :     0.000775
  7 H s       :     0.565873  s :     0.565873
      pz      :     0.023818  p :     0.049574
      px      :     0.012150
      py      :     0.013606
  8 H s       :     0.579821  s :     0.579821
      pz      :     0.011075  p :     0.051624
      px      :     0.024092
      py      :     0.016457
  9 O s       :     3.796863  s :     3.796863
      pz      :     1.563488  p :     4.887932
      px      :     1.855463
      py      :     1.468981
      dz2     :     0.015131  d :     0.049553
      dxz     :     0.008111
      dyz     :     0.008045
      dx2y2   :     0.008307
      dxy     :     0.009960
      f0      :     0.000538  f :     0.003915
      f+1     :     0.000485
      f-1     :     0.000783
      f+2     :     0.000440
      f-2     :     0.000405
      f+3     :     0.000783
      f-3     :     0.000481
 10 H s       :     0.592292  s :     0.592292
      pz      :     0.023586  p :     0.051360
      px      :     0.015284
      py      :     0.012490
 11 H s       :     0.598491  s :     0.598491
      pz      :     0.011697  p :     0.056266
      px      :     0.017273
      py      :     0.027296
 12 O s       :     3.798703  s :     3.798703
      pz      :     1.594647  p :     4.873774
      px      :     1.449594
      py      :     1.829532
      dz2     :     0.014788  d :     0.049312
      dxz     :     0.007673
      dyz     :     0.007887
      dx2y2   :     0.008780
      dxy     :     0.010184
      f0      :     0.000547  f :     0.003921
      f+1     :     0.000778
      f-1     :     0.000488
      f+2     :     0.000436
      f-2     :     0.000403
      f+3     :     0.000478
      f-3     :     0.000791
 13 H s       :     0.562074  s :     0.562074
      pz      :     0.024576  p :     0.050399
      px      :     0.011771
      py      :     0.014052
 14 H s       :     0.602731  s :     0.602731
      pz      :     0.010989  p :     0.044307
      px      :     0.017687
      py      :     0.015630
 15 O s       :     3.788540  s :     3.788540
      pz      :     1.512192  p :     4.868869
      px      :     1.596310
      py      :     1.760366
      dz2     :     0.016131  d :     0.050087
      dxz     :     0.006655
      dyz     :     0.007843
      dx2y2   :     0.007963
      dxy     :     0.011495
      f0      :     0.000613  f :     0.003914
      f+1     :     0.000735
      f-1     :     0.000522
      f+2     :     0.000415
      f-2     :     0.000422
      f+3     :     0.000424
      f-3     :     0.000782
 16 H s       :     0.597110  s :     0.597110
      pz      :     0.018631  p :     0.045659
      px      :     0.012768
      py      :     0.014261
 17 H s       :     0.568428  s :     0.568428
      pz      :     0.010603  p :     0.050983
      px      :     0.024217
      py      :     0.016162
 18 O s       :     3.804488  s :     3.804488
      pz      :     1.705546  p :     4.897705
      px      :     1.762426
      py      :     1.429733
      dz2     :     0.009307  d :     0.048223
      dxz     :     0.010272
      dyz     :     0.009492
      dx2y2   :     0.007728
      dxy     :     0.011423
      f0      :     0.000453  f :     0.003908
      f+1     :     0.000529
      f-1     :     0.000667
      f+2     :     0.000432
      f-2     :     0.000693
      f+3     :     0.000678
      f-3     :     0.000456
 19 H s       :     0.606424  s :     0.606424
      pz      :     0.017586  p :     0.047767
      px      :     0.015957
      py      :     0.014224
 20 H s       :     0.560484  s :     0.560484
      pz      :     0.011284  p :     0.057520
      px      :     0.014123
      py      :     0.032113


                     *******************************
                     * LOEWDIN POPULATION ANALYSIS *
                     *******************************

----------------------
LOEWDIN ATOMIC CHARGES
----------------------
   0 O :   -0.306015
   1 H :    0.165247
   2 H :    0.186242
   3 O :   -0.344508
   4 H :    0.155947
   5 H :    0.144996
   6 O :   -0.288296
   7 H :    0.155120
   8 H :    0.149660
   9 O :   -0.372536
  10 H :    0.141264
  11 H :    0.134965
  12 O :   -0.285027
  13 H :    0.157510
  14 H :    0.175589
  15 O :   -0.284094
  16 H :    0.172321
  17 H :    0.154670
  18 O :   -0.315699
  19 H :    0.156680
  20 H :    0.145965

-------------------------------
LOEWDIN REDUCED ORBITAL CHARGES
-------------------------------
  0 O s       :     3.466426  s :     3.466426
      pz      :     1.663777  p :     4.775865
      px      :     1.350945
      py      :     1.761144
      dz2     :     0.010794  d :     0.058857
      dxz     :     0.011852
      dyz     :     0.011456
      dx2y2   :     0.009106
      dxy     :     0.015650
      f0      :     0.000471  f :     0.004866
      f+1     :     0.000862
      f-1     :     0.000657
      f+2     :     0.000410
      f-2     :     0.001011
      f+3     :     0.000477
      f-3     :     0.000979
  1 H s       :     0.668676  s :     0.668676
      pz      :     0.067410  p :     0.166077
      px      :     0.044182
      py      :     0.054486
  2 H s       :     0.662678  s :     0.662678
      pz      :     0.034879  p :     0.151080
      px      :     0.070793
      py      :     0.045408
  3 O s       :     3.457890  s :     3.457890
      pz      :     1.699417  p :     4.825285
      px      :     1.725951
      py      :     1.399917
      dz2     :     0.009874  d :     0.056559
      dxz     :     0.010986
      dyz     :     0.012273
      dx2y2   :     0.009443
      dxy     :     0.013983
      f0      :     0.000455  f :     0.004774
      f+1     :     0.000646
      f-1     :     0.000861
      f+2     :     0.000410
      f-2     :     0.001031
      f+3     :     0.000891
      f-3     :     0.000478
  4 H s       :     0.675980  s :     0.675980
      pz      :     0.067055  p :     0.168073
      px      :     0.054313
      py      :     0.046705
  5 H s       :     0.654760  s :     0.654760
      pz      :     0.034663  p :     0.200244
      px      :     0.048856
      py      :     0.116724
  6 O s       :     3.442091  s :     3.442091
      pz      :     1.533386  p :     4.783715
      px      :     1.547054
      py      :     1.703275
      dz2     :     0.020246  d :     0.057664
      dxz     :     0.007222
      dyz     :     0.007313
      dx2y2   :     0.009106
      dxy     :     0.013778
      f0      :     0.000848  f :     0.004826
      f+1     :     0.000972
      f-1     :     0.000721
      f+2     :     0.000390
      f-2     :     0.000426
      f+3     :     0.000409
      f-3     :     0.001060
  7 H s       :     0.669647  s :     0.669647
      pz      :     0.094008  p :     0.175233
      px      :     0.038302
      py      :     0.042923
  8 H s       :     0.670500  s :     0.670500
      pz      :     0.032033  p :     0.179839
      px      :     0.088615
      py      :     0.059191
  9 O s       :     3.461711  s :     3.461711
      pz      :     1.558085  p :     4.849041
      px      :     1.822577
      py      :     1.468379
      dz2     :     0.019198  d :     0.057010
      dxz     :     0.007156
      dyz     :     0.009203
      dx2y2   :     0.009641
      dxy     :     0.011811
      f0      :     0.000767  f :     0.004774
      f+1     :     0.000576
      f-1     :     0.001160
      f+2     :     0.000417
      f-2     :     0.000414
      f+3     :     0.000992
      f-3     :     0.000448
 10 H s       :     0.682349  s :     0.682349
      pz      :     0.092957  p :     0.176387
      px      :     0.045117
      py      :     0.038312
 11 H s       :     0.677759  s :     0.677759
      pz      :     0.032340  p :     0.187277
      px      :     0.054216
      py      :     0.100721
 12 O s       :     3.454167  s :     3.454167
      pz      :     1.551428  p :     4.767110
      px      :     1.447037
      py      :     1.768644
      dz2     :     0.019808  d :     0.058914
      dxz     :     0.008848
      dyz     :     0.007028
      dx2y2   :     0.010934
      dxy     :     0.012296
      f0      :     0.000758  f :     0.004837
      f+1     :     0.001145
      f-1     :     0.000600
      f+2     :     0.000413
      f-2     :     0.000415
      f+3     :     0.000457
      f-3     :     0.001049
 13 H s       :     0.666422  s :     0.666422
      pz      :     0.095833  p :     0.176067
      px      :     0.036286
      py      :     0.043948
 14 H s       :     0.666272  s :     0.666272
      pz      :     0.031953  p :     0.158139
      px      :     0.075172
      py      :     0.051014
 15 O s       :     3.448298  s :     3.448298
      pz      :     1.511515  p :     4.772438
      px      :     1.552583
      py      :     1.708340
      dz2     :     0.021119  d :     0.058466
      dxz     :     0.007338
      dyz     :     0.007361
      dx2y2   :     0.009033
      dxy     :     0.013615
      f0      :     0.000883  f :     0.004892
      f+1     :     0.001001
      f-1     :     0.000728
      f+2     :     0.000391
      f-2     :     0.000427
      f+3     :     0.000410
      f-3     :     0.001052
 16 H s       :     0.665414  s :     0.665414
      pz      :     0.081476  p :     0.162265
      px      :     0.037706
      py      :     0.043084
 17 H s       :     0.666307  s :     0.666307
      pz      :     0.030436  p :     0.179023
      px      :     0.089256
      py      :     0.059331
 18 O s       :     3.453389  s :     3.453389
      pz      :     1.667745  p :     4.800153
      px      :     1.728582
      py      :     1.403826
      dz2     :     0.010716  d :     0.057372
      dxz     :     0.011081
      dyz     :     0.012253
      dx2y2   :     0.009400
      dxy     :     0.013922
      f0      :     0.000477  f :     0.004786
      f+1     :     0.000646
      f-1     :     0.000857
      f+2     :     0.000412
      f-2     :     0.001026
      f+3     :     0.000888
      f-3     :     0.000479
 19 H s       :     0.674625  s :     0.674625
      pz      :     0.067560  p :     0.168695
      px      :     0.054294
      py      :     0.046840
 20 H s       :     0.652042  s :     0.652042
      pz      :     0.034603  p :     0.201993
      px      :     0.048772
      py      :     0.118618


                      *****************************
                      * MAYER POPULATION ANALYSIS *
                      *****************************

  NA   - Mulliken gross atomic population
  ZA   - Total nuclear charge
  QA   - Mulliken gross atomic charge
  VA   - Mayer's total valence
  BVA  - Mayer's bonded valence
  FA   - Mayer's free valence

  ATOM       NA         ZA         QA         VA         BVA        FA
  0 O      8.6891     8.0000    -0.6891     2.1040     1.7207     0.3833
  1 H      0.6448     1.0000     0.3552     0.8931     0.8480     0.0451
  2 H      0.6453     1.0000     0.3547     0.8926     0.8445     0.0481
  3 O      8.7477     8.0000    -0.7477     2.0278     1.6386     0.3892
  4 H      0.6582     1.0000     0.3418     0.9038     0.8570     0.0468
  5 H      0.6202     1.0000     0.3798     0.9089     0.8644     0.0444
  6 O      8.7256     8.0000    -0.7256     2.0767     1.6915     0.3852
  7 H      0.6154     1.0000     0.3846     0.8853     0.8420     0.0433
  8 H      0.6314     1.0000     0.3686     0.9190     0.8749     0.0441
  9 O      8.7383     8.0000    -0.7383     2.0357     1.6474     0.3883
 10 H      0.6437     1.0000     0.3563     0.9153     0.8700     0.0454
 11 H      0.6548     1.0000     0.3452     0.9318     0.8849     0.0469
 12 O      8.7257     8.0000    -0.7257     2.0926     1.7056     0.3870
 13 H      0.6125     1.0000     0.3875     0.8946     0.8525     0.0422
 14 H      0.6470     1.0000     0.3530     0.9010     0.8531     0.0479
 15 O      8.7114     8.0000    -0.7114     2.0841     1.7010     0.3831
 16 H      0.6428     1.0000     0.3572     0.8924     0.8463     0.0461
 17 H      0.6194     1.0000     0.3806     0.9089     0.8659     0.0430
 18 O      8.7543     8.0000    -0.7543     2.0330     1.6423     0.3908
 19 H      0.6542     1.0000     0.3458     0.9016     0.8548     0.0468
 20 H      0.6180     1.0000     0.3820     0.9101     0.8655     0.0446

  Mayer bond orders larger than 0.100000
B(  0-O ,  1-H ) :   0.8403 B(  0-O ,  2-H ) :   0.8347 B(  3-O ,  4-H ) :   0.8482 
B(  3-O ,  5-H ) :   0.7469 B(  5-H , 15-O ) :   0.1117 B(  6-O ,  7-H ) :   0.8060 
B(  6-O ,  8-H ) :   0.7921 B(  6-O , 20-H ) :   0.1218 B(  9-O , 10-H ) :   0.8268 
B(  9-O , 11-H ) :   0.8150 B( 12-O , 13-H ) :   0.7921 B( 12-O , 14-H ) :   0.8315 
B( 15-O , 16-H ) :   0.8362 B( 15-O , 17-H ) :   0.7849 B( 18-O , 19-H ) :   0.8426 
B( 18-O , 20-H ) :   0.7279 


----------------------------------
MP2 DERIVATIVE INTEGRAL GENERATION
----------------------------------


Input Wavefunction Amplitudes       ... 12h2o.su.etal.mol1,2,3,4,7,8,10-orca.engrad-mp2.def2tzvp.frozencore.mp2tsaa.tmp
Input Correlated Electron Density   ... 12h2o.su.etal.mol1,2,3,4,7,8,10-orca.engrad-mp2.def2tzvp.frozencore.pmp2re
Input Energy Weighted Density       ... 12h2o.su.etal.mol1,2,3,4,7,8,10-orca.engrad-mp2.def2tzvp.frozencore.wmp2.tmp
Input SCF Electron Density          ... 12h2o.su.etal.mol1,2,3,4,7,8,10-orca.engrad-mp2.def2tzvp.frozencore.scfp

One-Electron Terms    ...
                        ... One-Electron Terms done
Prescreening matrices              ... done

Batch handling in the gradient evaluation:
Memory available                      ... 8000.0 MB
Memory per occupied orbital in Q2     ...   19.4 MB
Memory per occupied orbital in Q3     ...    0.1 MB
Total memory requirement per |i>      ...   19.5 MB
Max. Number of orbitals possible      ...    410
Number of orbitals treated per batch  ...     28
Number of batches to be done          ...      1
Batch   0: i=    7 ...    34

---------------------------------------
MP2 TOTAL ENERGY:     -534.265466114 Eh
---------------------------------------

The final MP2 gradient
  0:  -0.02541283   0.01147556   0.00338587
  1:  -0.00122332   0.00166581  -0.00260220
  2:   0.02747580  -0.01130686  -0.00172124
  3:   0.00251262  -0.00609713  -0.00025343
  4:  -0.00044602  -0.00047054   0.00000521
  5:   0.00112392   0.00848191   0.00078241
  6:   0.00074350  -0.00056416  -0.00181935
  7:   0.00054360   0.00002832   0.00144339
  8:  -0.00234696   0.00247271   0.00003831
  9:   0.00321460   0.00563932   0.00223297
 10:  -0.00226904   0.00398604  -0.00467360
 11:  -0.00457127  -0.01522229   0.00003723
 12:  -0.01506999   0.01433941   0.00011912
 13:  -0.00029048  -0.00223254  -0.00216631
 14:   0.01514505  -0.00625047   0.00244717
 15:  -0.00394145  -0.00073885  -0.00868393
 16:   0.00211285  -0.00122975   0.00711765
 17:   0.00410606  -0.00319331  -0.00126358
 18:  -0.00299238   0.00211566   0.00376523
 19:   0.00089913   0.00013796   0.00116293
 20:   0.00068662  -0.00303680   0.00064614

-----------------------------------
NORM OF THE MP2 GRADIENT:  0.055659
-----------------------------------

-------------------------   --------------------
FINAL SINGLE POINT ENERGY      -534.265466113553
-------------------------   --------------------


                            ***************************************
                            *     ORCA property calculations      *
                            ***************************************

                                    ---------------------
                                    Active property flags
                                    ---------------------
   (+) Dipole Moment


------------------------------------------------------------------------------
                       ORCA ELECTRIC PROPERTIES CALCULATION
------------------------------------------------------------------------------

Dipole Moment Calculation                       ... on
Quadrupole Moment Calculation                   ... off
Polarizability Calculation                      ... off
GBWName                                         ... 12h2o.su.etal.mol1,2,3,4,7,8,10-orca.engrad-mp2.def2tzvp.frozencore.gbw
Electron density file                           ... 12h2o.su.etal.mol1,2,3,4,7,8,10-orca.engrad-mp2.def2tzvp.frozencore.scfp
The origin for moment calculation is the CENTER OF MASS  = (-1.187026, -0.048000 -2.297689)

-------------
DIPOLE MOMENT
-------------
                                X             Y             Z
Electronic contribution:     -0.17328       0.02065       0.13943
Nuclear contribution   :      0.30943      -1.58749       0.73962
                        -----------------------------------------
Total Dipole Moment    :      0.13615      -1.56684       0.87905
                        -----------------------------------------
Magnitude (a.u.)       :      1.80173
Magnitude (Debye)      :      4.57964



--------------------
Rotational spectrum 
--------------------
 
Rotational constants in cm-1:     0.048185     0.022076     0.019864 
Rotational constants in MHz :  1444.555761   661.831731   595.518302 

 Dipole components along the rotational axes: 
x,y,z [a.u.] :     0.945051    -1.497552    -0.332360 
x,y,z [Debye]:     2.402128    -3.806476    -0.844791 

 

                         *** MP2 UNRELAXED DENSITY ***

------------------------------------------------------------------------------
                       ORCA ELECTRIC PROPERTIES CALCULATION
------------------------------------------------------------------------------

Dipole Moment Calculation                       ... on
Quadrupole Moment Calculation                   ... off
Polarizability Calculation                      ... off
GBWName                                         ... 12h2o.su.etal.mol1,2,3,4,7,8,10-orca.engrad-mp2.def2tzvp.frozencore.gbw
Electron density file                           ... 12h2o.su.etal.mol1,2,3,4,7,8,10-orca.engrad-mp2.def2tzvp.frozencore.pmp2ur
The origin for moment calculation is the CENTER OF MASS  = (-1.187026, -0.048000 -2.297689)

-------------
DIPOLE MOMENT
-------------
                                X             Y             Z
Electronic contribution:     -0.17820       0.03492       0.13552
Nuclear contribution   :      0.30943      -1.58749       0.73962
                        -----------------------------------------
Total Dipole Moment    :      0.13123      -1.55257       0.87514
                        -----------------------------------------
Magnitude (a.u.)       :      1.78706
Magnitude (Debye)      :      4.54234



--------------------
Rotational spectrum 
--------------------
 
Rotational constants in cm-1:     0.048185     0.022076     0.019864 
Rotational constants in MHz :  1444.555761   661.831731   595.518302 

 Dipole components along the rotational axes: 
x,y,z [a.u.] :     0.941653    -1.483045    -0.327777 
x,y,z [Debye]:     2.393492    -3.769600    -0.833143 

 

                           *** MP2 RELAXED DENSITY ***

------------------------------------------------------------------------------
                       ORCA ELECTRIC PROPERTIES CALCULATION
------------------------------------------------------------------------------

Dipole Moment Calculation                       ... on
Quadrupole Moment Calculation                   ... off
Polarizability Calculation                      ... off
GBWName                                         ... 12h2o.su.etal.mol1,2,3,4,7,8,10-orca.engrad-mp2.def2tzvp.frozencore.gbw
Electron density file                           ... 12h2o.su.etal.mol1,2,3,4,7,8,10-orca.engrad-mp2.def2tzvp.frozencore.pmp2re
The origin for moment calculation is the CENTER OF MASS  = (-1.187026, -0.048000 -2.297689)

-------------
DIPOLE MOMENT
-------------
                                X             Y             Z
Electronic contribution:     -0.17513       0.04189       0.14465
Nuclear contribution   :      0.30943      -1.58749       0.73962
                        -----------------------------------------
Total Dipole Moment    :      0.13430      -1.54559       0.88427
                        -----------------------------------------
Magnitude (a.u.)       :      1.78573
Magnitude (Debye)      :      4.53896



--------------------
Rotational spectrum 
--------------------
 
Rotational constants in cm-1:     0.048185     0.022076     0.019864 
Rotational constants in MHz :  1444.555761   661.831731   595.518302 

 Dipole components along the rotational axes: 
x,y,z [a.u.] :     0.947673    -1.475938    -0.335177 
x,y,z [Debye]:     2.408793    -3.751537    -0.851952 

 

Timings for individual modules:

Sum of individual times         ...      122.371 sec (=   2.040 min)
GTO integral calculation        ...        0.940 sec (=   0.016 min)   0.8 %
SCF iterations                  ...       20.385 sec (=   0.340 min)  16.7 %
MP2 module                      ...      101.047 sec (=   1.684 min)  82.6 %
                             ****ORCA TERMINATED NORMALLY****
TOTAL RUN TIME: 0 days 0 hours 2 minutes 3 seconds 335 msec
