61
Energy:   -592.03453034
C    4.12399748  -1.19345349  -1.37171329
H    5.18092366  -1.24049934  -1.53169425
H    3.70734560  -0.40976455  -1.96931847
H    3.67962918  -2.12694262  -1.64745584
C    3.84203876  -0.91014183   0.11551023
N    3.63210768  -0.69920342   1.22281574
C   -1.96117475  -4.10607062  -1.44382162
H   -2.64848216  -4.71082889  -0.88994787
H   -1.02185510  -4.61273249  -1.52044692
H   -2.35181740  -3.92881971  -2.42406625
C   -1.76165024  -2.76156284  -0.71988184
N   -1.61309517  -1.76051568  -0.18087577
C    1.85647242   0.30299987   4.18973414
H    2.88428145   0.17712202   3.92017239
H    1.63160041  -0.31258393   5.03554042
H    1.67547986   1.32827656   4.43661161
C    0.96133572  -0.10548237   3.00505167
N    0.29486576  -0.40961596   2.12300172
C   -1.16803940   4.50209989   1.04277021
H   -2.08553599   4.05236168   0.72522377
H   -0.47761781   4.51920923   0.22550380
H   -1.35638704   5.50275822   1.37156676
C   -0.57014029   3.68456063   2.20283323
N   -0.12497722   3.07586550   3.06655288
C   -4.44701458   0.16668221  -1.70789507
H   -4.45795966  -0.41540170  -0.81014304
H   -5.40963644   0.12303210  -2.17303258
H   -4.21108281   1.18312370  -1.47107869
C   -3.38536943  -0.39564546  -2.67137687
N   -2.59492637  -0.81432397  -3.38873287
C    0.60727815  -2.35155301  -3.89789366
H    0.87013078  -3.29883777  -3.47544810
H    1.28619786  -2.11349992  -4.68991502
H   -0.38946030  -2.39756695  -4.28427983
C    0.68638838  -1.26456195  -2.80987160
N    0.74528954  -0.45524770  -1.99978971
C    3.46452940   2.85605891   1.62189529
H    3.08803269   3.31665254   2.51127930
H    4.01243698   3.57672915   1.05151753
H    4.11022231   2.04482825   1.88625218
C    2.28850868   2.32348677   0.78228695
N    1.41290779   1.92696259   0.15716038
C   -0.87054532   2.38784478  -4.26429771
H    0.17984217   2.46735215  -4.45208714
H   -1.36058987   3.27947691  -4.59557942
H   -1.26491945   1.54615227  -4.79431834
C   -1.10941678   2.20153754  -2.75438710
N   -1.28726743   2.06282333  -1.63019002
C    1.68563412  -3.63713343   2.05988516
H    2.48083129  -2.99535244   2.37718438
H    1.89186230  -4.64038253   2.36949827
H    0.76644898  -3.31009172   2.49925005
C    1.56726947  -3.58758506   0.52524033
N    1.47914160  -3.55069405  -0.61737251
C   -3.07121300   0.88966834   3.79738695
H   -4.07134914   1.23705669   3.95214230
H   -2.39223813   1.49473783   4.36110950
H   -2.99334349  -0.12792769   4.11884264
C   -2.72105413   0.98341878   2.30065731
N   -2.46034493   1.05322025   1.18627406
Na  -0.45452663   0.37792437  -0.05383975
