61
Energy:   -591.31489345
C    2.66223971  -1.57211243  -3.76009953
H    3.28927012  -2.43772945  -3.80949822
H    3.08119174  -0.79337319  -4.36254744
H    1.68603478  -1.81766439  -4.12290423
C    2.56181209  -1.09366125  -2.29975752
N    2.48703917  -0.73743260  -1.21246653
C   -2.44140749  -4.33125037   1.76616184
H   -2.05540490  -5.08104838   1.10759892
H   -3.32579179  -3.90436557   1.34127024
H   -2.67760572  -4.77393207   2.71122396
C   -1.38415963  -3.22936404   1.96534383
N   -0.59699054  -2.40895958   2.11364388
C   -2.97319449   0.34065211   2.77493385
H   -3.35609383  -0.14124720   3.65018315
H   -3.38539997   1.32527075   2.70069181
H   -1.90709469   0.40430648   2.84034352
C   -3.36322540  -0.47450406   1.52793894
N   -3.65362113  -1.08142489   0.59949455
C    0.61201469   2.69183808  -4.68333241
H   -0.02988099   3.46340596  -4.31245085
H    0.57067162   2.67671958  -5.75242608
H    1.61672758   2.88144949  -4.36789842
C    0.14933141   1.33021534  -4.13241709
N   -0.19515733   0.31642532  -3.72223560
C   -1.31677487   5.40825586   0.87565839
H   -1.10525704   5.30632029  -0.16826188
H   -0.67161233   6.14915240   1.29961204
H   -2.33613412   5.70646256   1.00557599
C   -1.08263848   4.05943256   1.58096390
N   -0.90831330   3.05517231   2.10609592
C    0.80948042   1.22956747   4.58544834
H    1.51585446   1.97616605   4.88298232
H    0.67761770   0.52616200   5.38089290
H   -0.12783269   1.69449447   4.36142580
C    1.33164474   0.49825307   3.33479904
N    1.72041980  -0.04624375   2.40363379
C    2.48746693   2.66257625   0.32147617
H    3.34933049   3.29652292   0.33572430
H    2.77911998   1.67022930   0.04745954
H    2.03986057   2.64726857   1.29323402
C    1.47148207   3.20043732  -0.70325806
N    0.71503516   3.60089933  -1.46621927
C   -2.30221142   1.77652849  -1.35602286
H   -1.95284083   2.77105451  -1.53975740
H   -3.19660559   1.81525955  -0.76996992
H   -2.50719548   1.29261217  -2.28806665
C   -1.22275913   0.98588704  -0.59361296
N   -0.41905784   0.39721855  -0.02596413
C   -2.44730122  -2.20243100  -2.63844269
H   -2.19415362  -1.56886614  -3.46270724
H   -3.20146502  -1.73026871  -2.04413736
H   -2.81654082  -3.13665714  -3.00692977
C   -1.19478118  -2.44926469  -1.77712586
N   -0.26222308  -2.63304359  -1.13583633
C    4.36186165  -5.02485930   1.82747128
H    5.33388650  -4.59137173   1.71721523
H    4.29525258  -5.90843605   1.22767595
H    4.19844005  -5.27763352   2.85426126
C    3.29394276  -4.01325959   1.37160365
N    2.49882862  -3.26007762   1.03218948
Na   1.01486860  -1.43573389   0.57011851
