12
Energy:   -101.22292078
O    1.43927373   0.64808782  -0.12486791
H    1.66814849   1.18576265  -0.88299322
H    1.28628112  -0.22465286  -0.48701264
O   -0.31912339   1.70588401   1.53717982
H    0.33698849   1.36904738   0.92702399
H   -0.12959034   1.26084079   2.36316142
O   -1.69734624  -0.38730339  -0.14847449
H   -1.29097618   0.35732650   0.29494578
H   -2.23262470   0.00655425  -0.83737578
O    0.58801469  -1.78583889  -1.07863421
H   -0.28532764  -1.51558540  -0.79496524
H    0.63037426  -2.71886689  -0.86911984
