16
Energy:   -378.80469631
Na  -0.00675740   0.21150758   0.85507808
O   -0.04181907  -1.00297143  -3.02541711
H    0.74684227  -1.17975931  -3.53824377
H   -0.76430284  -1.17459992  -3.62939783
O   -0.01169380   1.21303623  -1.24936511
H   -0.06294971   0.55487196  -1.94249171
H   -0.09005756   2.05009732  -1.70698907
O   -0.23356281  -1.99748880  -0.09230543
H   -0.27673203  -2.00308950  -1.04851509
H   -0.29890091  -2.91953420   0.15628069
O   -1.57231998   0.91732968   2.42355383
H   -1.42994833   1.60271487   3.07640091
H   -2.47168920   0.62604518   2.57362114
O    1.83814260   0.92898455   2.19904457
H    1.99321474   1.65465155   2.80368653
H    2.69337266   0.51004944   2.10257306
