16
Energy:   -378.55426724
Na   0.01334874   0.34128640   0.81916219
O    1.35842701   2.22768422   1.11188888
H    1.94655160   2.72631902   0.54469874
H    1.47187538   2.61862404   1.97821871
O   -0.54425932   0.02556238   3.13209890
H   -0.22283069  -0.75643663   3.58086723
H   -1.11666237   0.45057736   3.77080765
O   -0.33146687  -1.54328421  -2.75541456
H   -0.12123419  -1.14689670  -3.60093867
H   -0.57052601  -2.44584262  -2.96629579
O   -1.67739476   0.55477565  -0.81445911
H   -1.75322277  -0.15017151  -1.45752322
H   -2.25329646   1.24417174  -1.14506780
O    1.14101703  -1.18558951  -0.43695679
H    0.72463129  -1.29900528  -1.29135226
H    1.96586817  -1.66626355  -0.50627420
