16
Energy:   -379.13362427
Na   0.39115542   0.29057178   0.89740418
O    2.57614745   1.06093638   0.92333659
H    3.08776387   1.27693728   0.14370585
H    3.16005403   1.25801309   1.65576114
O   -0.11439578  -1.91355586   0.30878997
H    0.00175050  -2.77780400   0.70352664
H   -0.58098679  -2.08415841  -0.50939060
O   -1.11790367  -0.83709999  -2.81015545
H   -1.94864224  -0.78582920  -3.28288855
H   -0.50098853  -1.19709182  -3.44737868
O   -0.53907586   1.14899187  -1.03495025
H   -0.76405538   0.47061084  -1.67167251
H   -0.73426107   1.97234052  -1.48242270
O   -0.74742167   0.62523542   2.87501031
H   -1.39928583   0.05661459   3.28485823
H   -0.75678118   1.42211650   3.40522234
