16
Energy:   -378.50567718
Na  -0.19640691  -0.71405786   0.49335962
O   -1.35980394   0.53117856  -1.03804701
H   -2.15236722   0.50666582  -1.57421342
H   -0.86946152   1.28375615  -1.36883868
O   -0.04048662  -2.99054068  -0.04179350
H   -0.78767041  -3.58731839  -0.08427411
H    0.69273762  -3.49896165  -0.38837997
O   -0.62967592  -0.80037824   2.78122797
H   -0.65937298  -0.12352854   3.45741169
H   -0.88845700  -1.60318571   3.23373694
O    0.21693465   2.66773442  -1.77471669
H    0.57539129   2.84379559  -2.64462654
H   -0.22918879   3.47859778  -1.53036792
O    1.79106415   0.44530244   0.21364529
H    1.88846582   1.16337492  -0.41174793
H    2.63800432   0.39663991   0.65699183
