16
Energy:   -378.42701819
Na  -0.55172867  -0.64615588  -0.18599966
O   -2.41858364  -0.16991633   1.08327201
H   -2.75391702   0.70982191   1.25602618
H   -3.07976037  -0.75551575   1.45225777
O    2.32103733   1.98001144   0.07276645
H    3.14915132   2.17296495  -0.36681062
H    2.25212959   2.64526100   0.75754860
O   -0.01563011   1.33409575  -1.26479583
H   -0.42697321   2.06157307  -1.73149214
H    0.80516114   1.69641538  -0.93124216
O   -1.26857080  -2.60615432  -1.24402043
H   -0.76473885  -3.41164306  -1.36052410
H   -1.99177902  -2.68332540  -1.86631164
O    1.26496528  -0.79121679   1.23254459
H    2.02375033  -0.22581400   1.08833367
H    1.45664408  -1.24547881   2.05299391
