16
Energy:   -378.48141354
Na  -0.49680033   0.60630180   0.43309407
O    0.58031464   2.00513395   2.01535360
H    0.88381594   1.63910372   2.84610066
H    0.95173401   2.88701845   1.99170545
O    1.50878534  -1.82760950  -2.21100795
H    2.43816825  -1.80055052  -2.43848775
H    1.15820705  -2.55825775  -2.72039960
O    0.09835659   0.54870437  -1.76522881
H    0.58005564  -0.24118103  -2.01074649
H   -0.06614583   0.99705345  -2.59477923
O    0.26159794  -1.61348279   0.78510194
H    0.08029693  -2.28555333   1.44212779
H    0.96954363  -1.98036909   0.25553684
O   -2.62691698   1.10767630   1.17185461
H   -2.79578549   1.73375112   1.87594664
H   -3.48448272   0.73070267   0.97512194
