
                                 *****************
                                 * O   R   C   A *
                                 *****************

           --- An Ab Initio, DFT and Semiempirical electronic structure package ---

                  #######################################################
                  #                        -***-                        #
                  #          Department of theory and spectroscopy      #
                  #               Directorship: Frank Neese             #
                  #        Max Planck Institute fuer Kohlenforschung    #
                  #                Kaiser Wilhelm Platz 1               #
                  #                 D-45470 Muelheim/Ruhr               #
                  #                      Germany                        #
                  #                                                     #
                  #                  All rights reserved                #
                  #                        -***-                        #
                  #######################################################


                         Program Version 4.2.0 -  RELEASE  -


 With contributions from (in alphabetic order):
   Daniel Aravena         : Magnetic Suceptibility
   Michael Atanasov       : Ab Initio Ligand Field Theory (pilot matlab implementation)
   Alexander A. Auer      : GIAO ZORA, VPT2
   Ute Becker             : Parallelization
   Giovanni Bistoni       : ED, misc. LED, open-shell LED, HFLED
   Martin Brehm           : Molecular dynamics
   Dmytro Bykov           : SCF Hessian
   Vijay G. Chilkuri      : MRCI spin determinant printing, contributions to CSF-ICE
   Dipayan Datta          : RHF DLPNO-CCSD density
   Achintya Kumar Dutta   : EOM-CC, STEOM-CC
   Dmitry Ganyushin       : Spin-Orbit,Spin-Spin,Magnetic field MRCI
   Miquel Garcia          : C-PCM Hessian, Gaussian charge scheme
   Yang Guo               : DLPNO-NEVPT2, CIM, IAO-localization
   Andreas Hansen         : Spin unrestricted coupled pair/coupled cluster methods
   Benjamin Helmich-Paris : CASSCF linear response (MC-RPA)
   Lee Huntington         : MR-EOM, pCC
   Robert Izsak           : Overlap fitted RIJCOSX, COSX-SCS-MP3, EOM
   Christian Kollmar      : KDIIS, OOCD, Brueckner-CCSD(T), CCSD density
   Simone Kossmann        : Meta GGA functionals, TD-DFT gradient, OOMP2, MP2 Hessian
   Martin Krupicka        : AUTO-CI
   Lucas Lang             : DCDCAS
   Dagmar Lenk            : GEPOL surface, SMD
   Dimitrios Liakos       : Extrapolation schemes; Compound Job, initial MDCI parallelization
   Dimitrios Manganas     : Further ROCIS development; embedding schemes
   Dimitrios Pantazis     : SARC Basis sets
   Taras Petrenko         : DFT Hessian,TD-DFT gradient, ASA, ECA, R-Raman, ABS, FL, XAS/XES, NRVS
   Peter Pinski           : DLPNO-MP2, DLPNO-MP2 Gradient
   Christoph Reimann      : Effective Core Potentials
   Marius Retegan         : Local ZFS, SOC
   Christoph Riplinger    : Optimizer, TS searches, QM/MM, DLPNO-CCSD(T), (RO)-DLPNO pert. Triples
   Tobias Risthaus        : Range-separated hybrids, TD-DFT gradient, RPA, STAB
   Michael Roemelt        : Original ROCIS implementation
   Masaaki Saitow         : Open-shell DLPNO-CCSD energy and density
   Barbara Sandhoefer     : DKH picture change effects
   Avijit Sen             : IP-ROCIS
   Kantharuban Sivalingam : CASSCF convergence, NEVPT2, FIC-MRCI
   Bernardo de Souza      : ESD, SOC TD-DFT
   Georgi Stoychev        : AutoAux, RI-MP2 NMR
   Willem Van den Heuvel  : Paramagnetic NMR
   Boris Wezisla          : Elementary symmetry handling
   Frank Wennmohs         : Technical directorship


 We gratefully acknowledge several colleagues who have allowed us to
 interface, adapt or use parts of their codes:
   Stefan Grimme, W. Hujo, H. Kruse,             : VdW corrections, initial TS optimization,
                  C. Bannwarth                     DFT functionals, gCP, sTDA/sTD-DF
   Ed Valeev, F. Pavosevic, A. Kumar             : LibInt (2-el integral package), F12 methods
   Garnet Chan, S. Sharma, J. Yang, R. Olivares  : DMRG
   Ulf Ekstrom                                   : XCFun DFT Library
   Mihaly Kallay                                 : mrcc  (arbitrary order and MRCC methods)
   Andreas Klamt, Michael Diedenhofen            : otool_cosmo (COSMO solvation model)
   Jiri Pittner, Ondrej Demel                    : Mk-CCSD
   Frank Weinhold                                : gennbo (NPA and NBO analysis)
   Christopher J. Cramer and Donald G. Truhlar   : smd solvation model
   Lars Goerigk                                  : TD-DFT with DH, B97 family of functionals
   V. Asgeirsson, H. Jonsson                     : NEB implementation
   FAccTs GmbH                                   : IRC, NEB, NEB-TS, Multilevel, MM, QM/MM, CI optimization
   S Lehtola, MJT Oliveira, MAL Marques          : LibXC Library


 Your calculation uses the libint2 library for the computation of 2-el integrals
 For citations please refer to: http://libint.valeyev.net

 Your ORCA version has been built with support for libXC version: 4.2.3
 For citations please refer to: https://tddft.org/programs/libxc/

 This ORCA versions uses:
   CBLAS   interface :  Fast vector & matrix operations
   LAPACKE interface :  Fast linear algebra routines
   SCALAPACK package :  Parallel linear algebra routines


----- Orbital basis set information -----
Your calculation utilizes the basis: def2-TZVP
   F. Weigend and R. Ahlrichs, Phys. Chem. Chem. Phys. 7, 3297 (2005).

================================================================================
                                        WARNINGS
                       Please study these warnings very carefully!
================================================================================


WARNING: The frozen-core approximation for MP2-gradient calculations is turned on by default.

INFO   : the flag for use of LIBINT has been found!

================================================================================
                                       INPUT FILE
================================================================================
NAME = 12h2o.su.etal.mol0,2,3,4,6,8,10,11-orca.engrad-mp2.def2tzvp.frozencore.inp
|  1> # 12h2o.su.etal.mol0,2,3,4,6,8,10,11
|  2> ! MP2 def2-TZVP EnGrad TightSCF
|  3> 
|  4> %pal
|  5>     nprocs 6
|  6> end
|  7> 
|  8> %maxcore 8000
|  9> 
| 10> %scf
| 11>     ConvForced true
| 12> end
| 13> 
| 14> *xyz 0 1
| 15> O   1.794470000   0.923410000   2.768350000
| 16> H   2.338250000   1.359750000   3.430940000
| 17> H   0.879480000   1.303000000   2.865760000
| 18> O   0.923410000  -1.794470000  -2.768350000
| 19> H   1.359750000  -2.338250000  -3.430940000
| 20> H   1.303000000  -0.879480000  -2.865760000
| 21> O  -1.752130000  -0.741530000  -2.896280000
| 22> H  -2.036450000  -0.920500000  -1.984040000
| 23> H  -0.921210000  -1.242140000  -2.984230000
| 24> O  -0.885520000   1.737840000   0.052730000
| 25> H  -1.032320000   2.090180000  -0.841890000
| 26> H  -1.284090000   0.839590000   0.017130000
| 27> O   1.737840000   0.885520000  -0.052730000
| 28> H   2.090180000   1.032320000   0.841890000
| 29> H   0.839590000   1.284090000  -0.017130000
| 30> O   1.752130000   0.741530000  -2.896280000
| 31> H   2.036450000   0.920500000  -1.984040000
| 32> H   0.921210000   1.242140000  -2.984230000
| 33> O  -0.923410000   1.794470000  -2.768350000
| 34> H  -1.359750000   2.338250000  -3.430940000
| 35> H  -1.303000000   0.879480000  -2.865760000
| 36> O  -0.741530000   1.752130000   2.896280000
| 37> H  -0.920500000   2.036450000   1.984040000
| 38> H  -1.242140000   0.921210000   2.984230000
| 39> *
| 40> 
| 41>                          ****END OF INPUT****
================================================================================

                     *******************************
                     * Energy+Gradient Calculation *
                     *******************************

---------------------------------
CARTESIAN COORDINATES (ANGSTROEM)
---------------------------------
  O      1.794470    0.923410    2.768350
  H      2.338250    1.359750    3.430940
  H      0.879480    1.303000    2.865760
  O      0.923410   -1.794470   -2.768350
  H      1.359750   -2.338250   -3.430940
  H      1.303000   -0.879480   -2.865760
  O     -1.752130   -0.741530   -2.896280
  H     -2.036450   -0.920500   -1.984040
  H     -0.921210   -1.242140   -2.984230
  O     -0.885520    1.737840    0.052730
  H     -1.032320    2.090180   -0.841890
  H     -1.284090    0.839590    0.017130
  O      1.737840    0.885520   -0.052730
  H      2.090180    1.032320    0.841890
  H      0.839590    1.284090   -0.017130
  O      1.752130    0.741530   -2.896280
  H      2.036450    0.920500   -1.984040
  H      0.921210    1.242140   -2.984230
  O     -0.923410    1.794470   -2.768350
  H     -1.359750    2.338250   -3.430940
  H     -1.303000    0.879480   -2.865760
  O     -0.741530    1.752130    2.896280
  H     -0.920500    2.036450    1.984040
  H     -1.242140    0.921210    2.984230

----------------------------
CARTESIAN COORDINATES (A.U.)
----------------------------
  NO LB      ZA    FRAG     MASS         X           Y           Z
   0 O     8.0000    0    15.999    3.391057    1.744992    5.231423
   1 H     1.0000    0     1.008    4.418652    2.569555    6.483537
   2 H     1.0000    0     1.008    1.661976    2.462313    5.415502
   3 O     8.0000    0    15.999    1.744992   -3.391057   -5.231423
   4 H     1.0000    0     1.008    2.569555   -4.418652   -6.483537
   5 H     1.0000    0     1.008    2.462313   -1.661976   -5.415502
   6 O     8.0000    0    15.999   -3.311046   -1.401289   -5.473176
   7 H     1.0000    0     1.008   -3.848333   -1.739493   -3.749292
   8 H     1.0000    0     1.008   -1.740835   -2.347304   -5.639377
   9 O     8.0000    0    15.999   -1.673390    3.284042    0.099645
  10 H     1.0000    0     1.008   -1.950802    3.949868   -1.590942
  11 H     1.0000    0     1.008   -2.426578    1.586595    0.032371
  12 O     8.0000    0    15.999    3.284042    1.673390   -0.099645
  13 H     1.0000    0     1.008    3.949868    1.950802    1.590942
  14 H     1.0000    0     1.008    1.586595    2.426578   -0.032371
  15 O     8.0000    0    15.999    3.311046    1.401289   -5.473176
  16 H     1.0000    0     1.008    3.848333    1.739493   -3.749292
  17 H     1.0000    0     1.008    1.740835    2.347304   -5.639377
  18 O     8.0000    0    15.999   -1.744992    3.391057   -5.231423
  19 H     1.0000    0     1.008   -2.569555    4.418652   -6.483537
  20 H     1.0000    0     1.008   -2.462313    1.661976   -5.415502
  21 O     8.0000    0    15.999   -1.401289    3.311046    5.473176
  22 H     1.0000    0     1.008   -1.739493    3.848333    3.749292
  23 H     1.0000    0     1.008   -2.347304    1.740835    5.639377

--------------------------------
INTERNAL COORDINATES (ANGSTROEM)
--------------------------------
 O      0   0   0     0.000000000000     0.00000000     0.00000000
 H      1   0   0     0.961828878803     0.00000000     0.00000000
 H      1   2   0     0.995381322057   106.21731035     0.00000000
 O      1   2   3     6.229017908788   152.78811022   148.20682389
 H      4   1   2     0.961828878803   142.70840549    32.77530239
 H      4   1   2     0.995381322057    68.44287781   304.10042923
 O      4   1   2     2.878117964938    90.56600904   213.46992033
 H      7   4   1     0.972136791249    99.37069922   316.39996436
 H      7   4   1     0.974050112161    12.30570018   203.88443535
 O      3   1   2     3.349245975813   116.85538783   143.82107740
 H     10   3   1     0.972645187106   154.03893681   304.15813038
 H     10   3   1     0.983350632989    97.20424340    87.67157074
 O     10   3   1     2.760360281485    59.41411630   355.12427997
 H     13  10   3     0.972645187106   105.22009255   347.26752702
 H     13  10   3     0.983350632989     5.92595386   271.62167973
 O      6   4   1     1.682356278379   171.61043709   305.15113011
 H     16   6   4     0.972136791249   103.79460456    70.64587838
 H     16   6   4     0.974050112161   105.61118924   321.69395179
 O     18  16   6     1.937600461318   161.54375213    39.05245435
 H     19  18  16     0.961828878803   121.08403650   202.75419110
 H     19  18  16     0.995381322057    95.17003195   315.21089530
 O      3   1   2     1.682356278379   171.61043709   195.73896161
 H     22   3   1     0.972136791249   103.79460456   289.35412162
 H     22   3   1     0.974050112161   105.61118924    38.30604821

---------------------------
INTERNAL COORDINATES (A.U.)
---------------------------
 O      0   0   0     0.000000000000     0.00000000     0.00000000
 H      1   0   0     1.817593168635     0.00000000     0.00000000
 H      1   2   0     1.880998097508   106.21731035     0.00000000
 O      1   2   3    11.771137930900   152.78811022   148.20682389
 H      4   1   2     1.817593168635   142.70840549    32.77530239
 H      4   1   2     1.880998097508    68.44287781   304.10042923
 O      4   1   2     5.438854734852    90.56600904   213.46992033
 H      7   4   1     1.837072300170    99.37069922   316.39996436
 H      7   4   1     1.840687952699    12.30570018   203.88443535
 O      3   1   2     6.329157649425   116.85538783   143.82107740
 H     10   3   1     1.838033029106   154.03893681   304.15813038
 H     10   3   1     1.858263389967    97.20424340    87.67157074
 O     10   3   1     5.216324962960    59.41411630   355.12427997
 H     13  10   3     1.838033029106   105.22009255   347.26752702
 H     13  10   3     1.858263389967     5.92595386   271.62167973
 O      6   4   1     3.179192625819   171.61043709   305.15113011
 H     16   6   4     1.837072300170   103.79460456    70.64587838
 H     16   6   4     1.840687952699   105.61118924   321.69395179
 O     18  16   6     3.661534228851   161.54375213    39.05245435
 H     19  18  16     1.817593168635   121.08403650   202.75419110
 H     19  18  16     1.880998097508    95.17003195   315.21089530
 O      3   1   2     3.179192625819   171.61043709   195.73896161
 H     22   3   1     1.837072300170   103.79460456   289.35412162
 H     22   3   1     1.840687952699   105.61118924    38.30604821

---------------------
BASIS SET INFORMATION
---------------------
There are 2 groups of distinct atoms

 Group   1 Type O   : 11s6p2d1f contracted to 5s3p2d1f pattern {62111/411/11/1}
 Group   2 Type H   : 5s1p contracted to 3s1p pattern {311/1}

Atom   0O    basis set group =>   1
Atom   1H    basis set group =>   2
Atom   2H    basis set group =>   2
Atom   3O    basis set group =>   1
Atom   4H    basis set group =>   2
Atom   5H    basis set group =>   2
Atom   6O    basis set group =>   1
Atom   7H    basis set group =>   2
Atom   8H    basis set group =>   2
Atom   9O    basis set group =>   1
Atom  10H    basis set group =>   2
Atom  11H    basis set group =>   2
Atom  12O    basis set group =>   1
Atom  13H    basis set group =>   2
Atom  14H    basis set group =>   2
Atom  15O    basis set group =>   1
Atom  16H    basis set group =>   2
Atom  17H    basis set group =>   2
Atom  18O    basis set group =>   1
Atom  19H    basis set group =>   2
Atom  20H    basis set group =>   2
Atom  21O    basis set group =>   1
Atom  22H    basis set group =>   2
Atom  23H    basis set group =>   2


           ************************************************************
           *        Program running with 6 parallel MPI-processes     *
           *              working on a common directory               *
           ************************************************************
------------------------------------------------------------------------------
                           ORCA GTO INTEGRAL CALCULATION
------------------------------------------------------------------------------

                         BASIS SET STATISTICS AND STARTUP INFO

 # of primitive gaussian shells          ...  256
 # of primitive gaussian functions       ...  496
 # of contracted shells                  ...  152
 # of contracted basis functions         ...  344
 Highest angular momentum                ...    3
 Maximum contraction depth               ...    6
 Integral package used                   ... LIBINT
 Integral threshhold            Thresh   ...  2.500e-11
 Primitive cut-off              TCut     ...  2.500e-12


------------------------------ INTEGRAL EVALUATION ----------------------------


 * One electron integrals 
 Pre-screening matrix                    ... done
 Shell pair data                         ... done (   0.002 sec)



           ************************************************************
           *        Program running with 6 parallel MPI-processes     *
           *              working on a common directory               *
           ************************************************************
-------------------------------------------------------------------------------
                                 ORCA SCF
-------------------------------------------------------------------------------

------------
SCF SETTINGS
------------
Hamiltonian:
 Ab initio Hamiltonian  Method          .... Hartree-Fock(GTOs)


General Settings:
 Integral files         IntName         .... 12h2o.su.etal.mol0,2,3,4,6,8,10,11-orca.engrad-mp2.def2tzvp.frozencore
 Hartree-Fock type      HFTyp           .... RHF
 Total Charge           Charge          ....    0
 Multiplicity           Mult            ....    1
 Number of Electrons    NEL             ....   80
 Basis Dimension        Dim             ....  344
 Nuclear Repulsion      ENuc            ....    461.9360608422 Eh

Convergence Acceleration:
 DIIS                   CNVDIIS         .... on
   Start iteration      DIISMaxIt       ....    12
   Startup error        DIISStart       ....  0.200000
   # of expansion vecs  DIISMaxEq       ....     5
   Bias factor          DIISBfac        ....   1.050
   Max. coefficient     DIISMaxC        ....  10.000
 Newton-Raphson         CNVNR           .... off
 SOSCF                  CNVSOSCF        .... on
   Start iteration      SOSCFMaxIt      ....   150
   Startup grad/error   SOSCFStart      ....  0.003300
 Level Shifting         CNVShift        .... on
   Level shift para.    LevelShift      ....    0.2500
   Turn off err/grad.   ShiftErr        ....    0.0010
 Zerner damping         CNVZerner       .... off
 Static damping         CNVDamp         .... on
   Fraction old density DampFac         ....    0.7000
   Max. Damping (<1)    DampMax         ....    0.9800
   Min. Damping (>=0)   DampMin         ....    0.0000
   Turn off err/grad.   DampErr         ....    0.1000
 Fernandez-Rico         CNVRico         .... off

SCF Procedure:
 Maximum # iterations   MaxIter         ....   125
 SCF integral mode      SCFMode         .... Direct
   Integral package                     .... LIBINT
 Reset frequency        DirectResetFreq ....    20
 Integral Threshold     Thresh          ....  2.500e-11 Eh
 Primitive CutOff       TCut            ....  2.500e-12 Eh

Convergence Tolerance:
 Convergence Check Mode ConvCheckMode   .... Total+1el-Energy
 Convergence forced     ConvForced      .... 1
 Energy Change          TolE            ....  1.000e-08 Eh
 1-El. energy change                    ....  1.000e-05 Eh
 Orbital Gradient       TolG            ....  1.000e-05
 Orbital Rotation angle TolX            ....  1.000e-05
 DIIS Error             TolErr          ....  5.000e-07


Diagonalization of the overlap matrix:
Smallest eigenvalue                        ... 3.675e-03
Time for diagonalization                   ...    0.016 sec
Threshold for overlap eigenvalues          ... 1.000e-08
Number of eigenvalues below threshold      ... 0
Time for construction of square roots      ...    0.009 sec
Total time needed                          ...    0.025 sec

-------------------
DFT GRID GENERATION
-------------------

General Integration Accuracy     IntAcc      ...  4.340
Radial Grid Type                 RadialGrid  ... Gauss-Chebyshev
Angular Grid (max. acc.)         AngularGrid ... Lebedev-110
Angular grid pruning method      GridPruning ... 3 (G Style)
Weight generation scheme         WeightScheme... Becke
Basis function cutoff            BFCut       ...    1.0000e-11
Integration weight cutoff        WCut        ...    1.0000e-14
Grids for H and He will be reduced by one unit

# of grid points (after initial pruning)     ...  26432 (   0.0 sec)
# of grid points (after weights+screening)   ...  24612 (   0.0 sec)
nearest neighbour list constructed           ...    0.0 sec
Grid point re-assignment to atoms done       ...    0.0 sec
Grid point division into batches done        ...    0.0 sec
Reduced shell lists constructed in    0.1 sec

Total number of grid points                  ...    24612
Total number of batches                      ...      396
Average number of points per batch           ...       62
Average number of grid points per atom       ...     1026
Average number of shells per batch           ...    65.33 (42.98%)
Average number of basis functions per batch  ...   131.00 (38.08%)
Average number of large shells per batch     ...    42.39 (64.88%)
Average number of large basis fcns per batch ...    84.75 (64.69%)
Maximum spatial batch extension              ...  12.83, 20.10, 12.41 au
Average spatial batch extension              ...   0.55,  0.62,  0.54 au

Time for grid setup =    0.094 sec

------------------------------
INITIAL GUESS: MODEL POTENTIAL
------------------------------
Loading Hartree-Fock densities                     ... done
Calculating cut-offs                               ... done
Setting up the integral package                    ... done
Initializing the effective Hamiltonian             ... done
Starting the Coulomb interaction                   ... done (   0.0 sec)
Reading the grid                                   ... done
Mapping shells                                     ... done
Starting the XC term evaluation                    ... done (   0.0 sec)
Transforming the Hamiltonian                       ... done (   0.0 sec)
Diagonalizing the Hamiltonian                      ... done (   0.0 sec)
Back transforming the eigenvectors                 ... done (   0.0 sec)
Now organizing SCF variables                       ... done
                      ------------------
                      INITIAL GUESS DONE (   0.3 sec)
                      ------------------
--------------
SCF ITERATIONS
--------------
ITER       Energy         Delta-E        Max-DP      RMS-DP      [F,P]     Damp
               ***  Starting incremental Fock matrix formation  ***
  0   -607.8500747419   0.000000000000 0.04251738  0.00082547  0.3254875 0.7000
  1   -608.1111944776  -0.261119735744 0.02823446  0.00057415  0.2165430 0.7000
                               ***Turning on DIIS***
  2   -608.2506764016  -0.139481923997 0.01598107  0.00032444  0.1631525 0.7000
  3   -609.5607815252  -1.310105123603 0.00778694  0.00015208  0.1213298 0.7000
  4   -609.2976135681   0.263167957122 0.01760605  0.00035238  0.0858823 0.0000
  5   -608.5684509199   0.729162648176 0.00220716  0.00005477  0.0058224 0.0000
                      *** Initiating the SOSCF procedure ***
                           *** Shutting down DIIS ***
                      *** Re-Reading the Fockian *** 
                      *** Removing any level shift *** 
ITER      Energy       Delta-E        Grad      Rot      Max-DP    RMS-DP
  6   -608.53238237   0.0360685525  0.000760  0.000760  0.001324  0.000034
               *** Restarting incremental Fock matrix formation ***
  7   -608.52135943   0.0110229378  0.000241  0.000357  0.000616  0.000015
  8   -608.52137061  -0.0000111814  0.000104  0.000307  0.000507  0.000012
  9   -608.52137334  -0.0000027294  0.000065  0.000030  0.000081  0.000002
 10   -608.52137353  -0.0000001928  0.000018  0.000009  0.000019  0.000000
                  ***Gradient check signals convergence***
              ***Rediagonalizing the Fockian in SOSCF/NRSCF***

               *****************************************************
               *                     SUCCESS                       *
               *           SCF CONVERGED AFTER  11 CYCLES          *
               *****************************************************


----------------
TOTAL SCF ENERGY
----------------

Total Energy       :         -608.52137354 Eh          -16558.70840 eV

Components:
Nuclear Repulsion  :          461.93606084 Eh           12569.91926 eV
Electronic Energy  :        -1070.45743438 Eh          -29128.62766 eV
One Electron Energy:        -1761.34974245 Eh          -47928.76314 eV
Two Electron Energy:          690.89230807 Eh           18800.13548 eV

Virial components:
Potential Energy   :        -1216.33430639 Eh          -33098.13915 eV
Kinetic Energy     :          607.81293285 Eh           16539.43075 eV
Virial Ratio       :            2.00116556


---------------
SCF CONVERGENCE
---------------

  Last Energy change         ...   -8.3878e-09  Tolerance :   1.0000e-08
  Last MAX-Density change    ...    5.4598e-06  Tolerance :   1.0000e-07
  Last RMS-Density change    ...    1.1015e-07  Tolerance :   5.0000e-09
  Last Orbital Gradient      ...    2.0410e-06  Tolerance :   1.0000e-05
  Last Orbital Rotation      ...    2.5409e-06  Tolerance :   1.0000e-05

             **** THE GBW FILE WAS UPDATED (12h2o.su.etal.mol0,2,3,4,6,8,10,11-orca.engrad-mp2.def2tzvp.frozencore.gbw) ****
             **** DENSITY FILE WAS UPDATED (12h2o.su.etal.mol0,2,3,4,6,8,10,11-orca.engrad-mp2.def2tzvp.frozencore.scfp) ****
             **** ENERGY FILE WAS UPDATED (12h2o.su.etal.mol0,2,3,4,6,8,10,11-orca.engrad-mp2.def2tzvp.frozencore.en.tmp) ****
             **** THE GBW FILE WAS UPDATED (12h2o.su.etal.mol0,2,3,4,6,8,10,11-orca.engrad-mp2.def2tzvp.frozencore.gbw) ****
             **** DENSITY FILE WAS UPDATED (12h2o.su.etal.mol0,2,3,4,6,8,10,11-orca.engrad-mp2.def2tzvp.frozencore.scfp) ****
----------------
ORBITAL ENERGIES
----------------

  NO   OCC          E(Eh)            E(eV) 
   0   2.0000     -20.602340      -560.6182 
   1   2.0000     -20.586602      -560.1899 
   2   2.0000     -20.584073      -560.1211 
   3   2.0000     -20.582061      -560.0663 
   4   2.0000     -20.536982      -558.8397 
   5   2.0000     -20.536701      -558.8320 
   6   2.0000     -20.535577      -558.8015 
   7   2.0000     -20.516379      -558.2791 
   8   2.0000      -1.392084       -37.8805 
   9   2.0000      -1.381174       -37.5836 
  10   2.0000      -1.371494       -37.3203 
  11   2.0000      -1.361182       -37.0396 
  12   2.0000      -1.334929       -36.3253 
  13   2.0000      -1.320985       -35.9458 
  14   2.0000      -1.314293       -35.7637 
  15   2.0000      -1.299959       -35.3737 
  16   2.0000      -0.755256       -20.5516 
  17   2.0000      -0.746194       -20.3050 
  18   2.0000      -0.736740       -20.0477 
  19   2.0000      -0.731559       -19.9067 
  20   2.0000      -0.705019       -19.1846 
  21   2.0000      -0.699660       -19.0387 
  22   2.0000      -0.696923       -18.9642 
  23   2.0000      -0.683606       -18.6019 
  24   2.0000      -0.649856       -17.6835 
  25   2.0000      -0.629126       -17.1194 
  26   2.0000      -0.605631       -16.4801 
  27   2.0000      -0.595746       -16.2111 
  28   2.0000      -0.592044       -16.1103 
  29   2.0000      -0.577669       -15.7192 
  30   2.0000      -0.558971       -15.2104 
  31   2.0000      -0.546262       -14.8646 
  32   2.0000      -0.529369       -14.4049 
  33   2.0000      -0.525955       -14.3120 
  34   2.0000      -0.522663       -14.2224 
  35   2.0000      -0.515720       -14.0335 
  36   2.0000      -0.488217       -13.2850 
  37   2.0000      -0.485180       -13.2024 
  38   2.0000      -0.480932       -13.0868 
  39   2.0000      -0.467593       -12.7239 
  40   0.0000       0.082694         2.2502 
  41   0.0000       0.126938         3.4542 
  42   0.0000       0.139715         3.8018 
  43   0.0000       0.158804         4.3213 
  44   0.0000       0.168547         4.5864 
  45   0.0000       0.196213         5.3392 
  46   0.0000       0.229476         6.2444 
  47   0.0000       0.234546         6.3823 
  48   0.0000       0.265801         7.2328 
  49   0.0000       0.278427         7.5764 
  50   0.0000       0.285960         7.7814 
  51   0.0000       0.320833         8.7303 
  52   0.0000       0.325097         8.8463 
  53   0.0000       0.333834         9.0841 
  54   0.0000       0.347144         9.4463 
  55   0.0000       0.355784         9.6814 
  56   0.0000       0.425785        11.5862 
  57   0.0000       0.437746        11.9117 
  58   0.0000       0.479687        13.0529 
  59   0.0000       0.496074        13.4989 
  60   0.0000       0.505849        13.7649 
  61   0.0000       0.509837        13.8734 
  62   0.0000       0.525033        14.2869 
  63   0.0000       0.533618        14.5205 
  64   0.0000       0.542538        14.7632 
  65   0.0000       0.551305        15.0018 
  66   0.0000       0.555967        15.1286 
  67   0.0000       0.564419        15.3586 
  68   0.0000       0.575322        15.6553 
  69   0.0000       0.595790        16.2123 
  70   0.0000       0.596206        16.2236 
  71   0.0000       0.612491        16.6667 
  72   0.0000       0.626434        17.0461 
  73   0.0000       0.634907        17.2767 
  74   0.0000       0.655131        17.8270 
  75   0.0000       0.655968        17.8498 
  76   0.0000       0.678082        18.4515 
  77   0.0000       0.703281        19.1373 
  78   0.0000       0.706884        19.2353 
  79   0.0000       0.719473        19.5779 
  80   0.0000       0.736013        20.0279 
  81   0.0000       0.739870        20.1329 
  82   0.0000       0.752369        20.4730 
  83   0.0000       0.766985        20.8707 
  84   0.0000       0.775900        21.1133 
  85   0.0000       0.780763        21.2456 
  86   0.0000       0.791398        21.5350 
  87   0.0000       0.797374        21.6976 
  88   0.0000       0.811025        22.0691 
  89   0.0000       0.827917        22.5288 
  90   0.0000       0.851838        23.1797 
  91   0.0000       0.861730        23.4489 
  92   0.0000       0.874939        23.8083 
  93   0.0000       0.894082        24.3292 
  94   0.0000       0.918750        25.0005 
  95   0.0000       0.927158        25.2293 
  96   0.0000       0.977942        26.6112 
  97   0.0000       1.021341        27.7921 
  98   0.0000       1.030108        28.0307 
  99   0.0000       1.044559        28.4239 
 100   0.0000       1.057854        28.7857 
 101   0.0000       1.080635        29.4056 
 102   0.0000       1.106972        30.1222 
 103   0.0000       1.186980        32.2994 
 104   0.0000       1.339463        36.4486 
 105   0.0000       1.360545        37.0223 
 106   0.0000       1.374195        37.3938 
 107   0.0000       1.386341        37.7243 
 108   0.0000       1.398109        38.0445 
 109   0.0000       1.418036        38.5867 
 110   0.0000       1.428727        38.8776 
 111   0.0000       1.438609        39.1465 
 112   0.0000       1.444304        39.3015 
 113   0.0000       1.456336        39.6289 
 114   0.0000       1.469372        39.9836 
 115   0.0000       1.490495        40.5584 
 116   0.0000       1.503814        40.9209 
 117   0.0000       1.516141        41.2563 
 118   0.0000       1.526536        41.5391 
 119   0.0000       1.555629        42.3308 
 120   0.0000       1.560289        42.4576 
 121   0.0000       1.580804        43.0159 
 122   0.0000       1.586795        43.1789 
 123   0.0000       1.601237        43.5719 
 124   0.0000       1.617856        44.0241 
 125   0.0000       1.623567        44.1795 
 126   0.0000       1.647437        44.8290 
 127   0.0000       1.683617        45.8135 
 128   0.0000       1.804887        49.1135 
 129   0.0000       1.807472        49.1838 
 130   0.0000       1.831392        49.8347 
 131   0.0000       1.869396        50.8689 
 132   0.0000       1.879188        51.1353 
 133   0.0000       1.886161        51.3251 
 134   0.0000       1.913783        52.0767 
 135   0.0000       1.930296        52.5260 
 136   0.0000       1.946613        52.9700 
 137   0.0000       1.967024        53.5254 
 138   0.0000       1.981730        53.9256 
 139   0.0000       1.996738        54.3340 
 140   0.0000       2.018218        54.9185 
 141   0.0000       2.031449        55.2785 
 142   0.0000       2.034783        55.3693 
 143   0.0000       2.044580        55.6359 
 144   0.0000       2.064357        56.1740 
 145   0.0000       2.083389        56.6919 
 146   0.0000       2.110911        57.4408 
 147   0.0000       2.143550        58.3290 
 148   0.0000       2.149194        58.4825 
 149   0.0000       2.163892        58.8825 
 150   0.0000       2.181322        59.3568 
 151   0.0000       2.209915        60.1349 
 152   0.0000       2.238070        60.9010 
 153   0.0000       2.244543        61.0771 
 154   0.0000       2.261182        61.5299 
 155   0.0000       2.291421        62.3527 
 156   0.0000       2.313157        62.9442 
 157   0.0000       2.320038        63.1315 
 158   0.0000       2.334559        63.5266 
 159   0.0000       2.348819        63.9146 
 160   0.0000       2.354801        64.0774 
 161   0.0000       2.363712        64.3199 
 162   0.0000       2.376358        64.6640 
 163   0.0000       2.394940        65.1696 
 164   0.0000       2.417162        65.7743 
 165   0.0000       2.427444        66.0541 
 166   0.0000       2.462810        67.0165 
 167   0.0000       2.478868        67.4534 
 168   0.0000       2.494159        67.8695 
 169   0.0000       2.496722        67.9393 
 170   0.0000       2.535984        69.0076 
 171   0.0000       2.541148        69.1481 
 172   0.0000       2.553268        69.4779 
 173   0.0000       2.563545        69.7576 
 174   0.0000       2.572055        69.9892 
 175   0.0000       2.592696        70.5509 
 176   0.0000       2.594948        70.6121 
 177   0.0000       2.602258        70.8110 
 178   0.0000       2.628889        71.5357 
 179   0.0000       2.635050        71.7033 
 180   0.0000       2.641196        71.8706 
 181   0.0000       2.653327        72.2007 
 182   0.0000       2.665304        72.5266 
 183   0.0000       2.675443        72.8025 
 184   0.0000       2.696778        73.3831 
 185   0.0000       2.704073        73.5816 
 186   0.0000       2.732413        74.3527 
 187   0.0000       2.756842        75.0175 
 188   0.0000       2.772633        75.4472 
 189   0.0000       2.792272        75.9816 
 190   0.0000       2.800910        76.2166 
 191   0.0000       2.847506        77.4846 
 192   0.0000       2.888457        78.5989 
 193   0.0000       2.907692        79.1223 
 194   0.0000       2.934084        79.8405 
 195   0.0000       2.947945        80.2177 
 196   0.0000       2.958393        80.5020 
 197   0.0000       2.982847        81.1674 
 198   0.0000       2.994710        81.4902 
 199   0.0000       3.005070        81.7721 
 200   0.0000       3.014307        82.0235 
 201   0.0000       3.030556        82.4656 
 202   0.0000       3.047252        82.9199 
 203   0.0000       3.049447        82.9797 
 204   0.0000       3.071506        83.5799 
 205   0.0000       3.088027        84.0295 
 206   0.0000       3.106185        84.5236 
 207   0.0000       3.135148        85.3117 
 208   0.0000       3.152994        85.7973 
 209   0.0000       3.167200        86.1839 
 210   0.0000       3.187248        86.7294 
 211   0.0000       3.202978        87.1575 
 212   0.0000       3.229469        87.8783 
 213   0.0000       3.245268        88.3082 
 214   0.0000       3.297274        89.7234 
 215   0.0000       3.311333        90.1060 
 216   0.0000       3.329320        90.5954 
 217   0.0000       3.352354        91.2222 
 218   0.0000       3.355496        91.3077 
 219   0.0000       3.410594        92.8070 
 220   0.0000       3.474691        94.5511 
 221   0.0000       3.500370        95.2499 
 222   0.0000       3.530643        96.0737 
 223   0.0000       3.552512        96.6688 
 224   0.0000       4.025013       109.5262 
 225   0.0000       4.036082       109.8274 
 226   0.0000       4.048776       110.1728 
 227   0.0000       4.095545       111.4455 
 228   0.0000       4.115003       111.9749 
 229   0.0000       4.121827       112.1606 
 230   0.0000       4.144136       112.7677 
 231   0.0000       4.176950       113.6606 
 232   0.0000       4.276549       116.3708 
 233   0.0000       4.295882       116.8969 
 234   0.0000       4.302305       117.0717 
 235   0.0000       4.341082       118.1268 
 236   0.0000       4.357277       118.5675 
 237   0.0000       4.389274       119.4382 
 238   0.0000       4.400152       119.7342 
 239   0.0000       4.424482       120.3963 
 240   0.0000       5.503188       149.7494 
 241   0.0000       5.516302       150.1062 
 242   0.0000       5.521547       150.2489 
 243   0.0000       5.523168       150.2931 
 244   0.0000       5.562800       151.3715 
 245   0.0000       5.565626       151.4484 
 246   0.0000       5.572965       151.6481 
 247   0.0000       5.587953       152.0559 
 248   0.0000       5.614899       152.7892 
 249   0.0000       5.640866       153.4958 
 250   0.0000       5.655898       153.9048 
 251   0.0000       5.658620       153.9789 
 252   0.0000       5.671242       154.3223 
 253   0.0000       5.672463       154.3556 
 254   0.0000       5.700061       155.1065 
 255   0.0000       5.712934       155.4568 
 256   0.0000       5.778630       157.2445 
 257   0.0000       5.786899       157.4695 
 258   0.0000       5.801894       157.8776 
 259   0.0000       5.805662       157.9801 
 260   0.0000       5.808258       158.0507 
 261   0.0000       5.826019       158.5341 
 262   0.0000       5.835204       158.7840 
 263   0.0000       5.837611       158.8495 
 264   0.0000       5.842660       158.9869 
 265   0.0000       5.852718       159.2606 
 266   0.0000       5.859909       159.4562 
 267   0.0000       5.865222       159.6008 
 268   0.0000       5.867651       159.6669 
 269   0.0000       5.870226       159.7370 
 270   0.0000       5.877389       159.9319 
 271   0.0000       5.884335       160.1209 
 272   0.0000       5.886294       160.1742 
 273   0.0000       5.900837       160.5699 
 274   0.0000       5.903687       160.6475 
 275   0.0000       5.914011       160.9284 
 276   0.0000       5.937601       161.5703 
 277   0.0000       5.944475       161.7574 
 278   0.0000       5.953280       161.9970 
 279   0.0000       5.954909       162.0413 
 280   0.0000       6.428099       174.9175 
 281   0.0000       6.454110       175.6253 
 282   0.0000       6.464543       175.9092 
 283   0.0000       6.466211       175.9545 
 284   0.0000       6.489937       176.6002 
 285   0.0000       6.498925       176.8447 
 286   0.0000       6.501359       176.9110 
 287   0.0000       6.525322       177.5630 
 288   0.0000       6.650651       180.9734 
 289   0.0000       6.669338       181.4819 
 290   0.0000       6.698991       182.2888 
 291   0.0000       6.720043       182.8617 
 292   0.0000       6.730348       183.1421 
 293   0.0000       6.733856       183.2375 
 294   0.0000       6.764278       184.0654 
 295   0.0000       6.784257       184.6090 
 296   0.0000       6.825225       185.7238 
 297   0.0000       6.842780       186.2015 
 298   0.0000       6.846891       186.3134 
 299   0.0000       6.860510       186.6840 
 300   0.0000       6.866675       186.8517 
 301   0.0000       6.886893       187.4019 
 302   0.0000       6.905696       187.9135 
 303   0.0000       6.915241       188.1733 
 304   0.0000       6.920306       188.3111 
 305   0.0000       6.924784       188.4329 
 306   0.0000       6.928303       188.5287 
 307   0.0000       6.934003       188.6838 
 308   0.0000       6.941099       188.8769 
 309   0.0000       6.950482       189.1322 
 310   0.0000       6.960517       189.4053 
 311   0.0000       6.974978       189.7988 
 312   0.0000       6.984579       190.0601 
 313   0.0000       6.991788       190.2562 
 314   0.0000       7.004506       190.6023 
 315   0.0000       7.032198       191.3558 
 316   0.0000       7.051536       191.8820 
 317   0.0000       7.078164       192.6066 
 318   0.0000       7.086673       192.8382 
 319   0.0000       7.137568       194.2231 
 320   0.0000       7.353270       200.0927 
 321   0.0000       7.387843       201.0334 
 322   0.0000       7.412804       201.7126 
 323   0.0000       7.452245       202.7859 
 324   0.0000       7.470279       203.2766 
 325   0.0000       7.473973       203.3771 
 326   0.0000       7.498408       204.0420 
 327   0.0000       7.504047       204.1955 
 328   0.0000       7.519846       204.6254 
 329   0.0000       7.528928       204.8725 
 330   0.0000       7.552418       205.5117 
 331   0.0000       7.564915       205.8518 
 332   0.0000       7.578701       206.2269 
 333   0.0000       7.592670       206.6071 
 334   0.0000       7.607901       207.0215 
 335   0.0000       7.664565       208.5634 
 336   0.0000      44.951815      1223.2011 
 337   0.0000      44.975924      1223.8571 
 338   0.0000      44.988978      1224.2123 
 339   0.0000      44.998126      1224.4613 
 340   0.0000      45.009974      1224.7837 
 341   0.0000      45.043678      1225.7008 
 342   0.0000      45.060600      1226.1613 
 343   0.0000      45.137560      1228.2554 

                    ********************************
                    * MULLIKEN POPULATION ANALYSIS *
                    ********************************

-----------------------
MULLIKEN ATOMIC CHARGES
-----------------------
   0 O :   -0.764553
   1 H :    0.342004
   2 H :    0.397907
   3 O :   -0.780859
   4 H :    0.346431
   5 H :    0.416779
   6 O :   -0.739718
   7 H :    0.348868
   8 H :    0.411227
   9 O :   -0.757807
  10 H :    0.416432
  11 H :    0.350057
  12 O :   -0.781194
  13 H :    0.393144
  14 H :    0.365515
  15 O :   -0.769055
  16 H :    0.410202
  17 H :    0.379920
  18 O :   -0.797140
  19 H :    0.365777
  20 H :    0.412295
  21 O :   -0.725248
  22 H :    0.404595
  23 H :    0.354421
Sum of atomic charges:   -0.0000000

--------------------------------
MULLIKEN REDUCED ORBITAL CHARGES
--------------------------------
  0 O s       :     3.808868  s :     3.808868
      pz      :     1.707007  p :     4.931138
      px      :     1.413312
      py      :     1.810819
      dz2     :     0.003666  d :     0.023116
      dxz     :     0.004250
      dyz     :     0.005493
      dx2y2   :     0.002265
      dxy     :     0.007441
      f0      :     0.000079  f :     0.001431
      f+1     :     0.000311
      f-1     :     0.000178
      f+2     :     0.000070
      f-2     :     0.000348
      f+3     :     0.000089
      f-3     :     0.000356
  1 H s       :     0.612111  s :     0.612111
      pz      :     0.016852  p :     0.045885
      px      :     0.013947
      py      :     0.015087
  2 H s       :     0.545520  s :     0.545520
      pz      :     0.010340  p :     0.056573
      px      :     0.032138
      py      :     0.014095
  3 O s       :     3.806524  s :     3.806524
      pz      :     1.732968  p :     4.950370
      px      :     1.775268
      py      :     1.442134
      dz2     :     0.004098  d :     0.022553
      dxz     :     0.005116
      dyz     :     0.004999
      dx2y2   :     0.002239
      dxy     :     0.006102
      f0      :     0.000089  f :     0.001411
      f+1     :     0.000175
      f-1     :     0.000333
      f+2     :     0.000059
      f-2     :     0.000354
      f+3     :     0.000321
      f-3     :     0.000080
  4 H s       :     0.607859  s :     0.607859
      pz      :     0.017274  p :     0.045710
      px      :     0.014831
      py      :     0.013606
  5 H s       :     0.526836  s :     0.526836
      pz      :     0.010259  p :     0.056385
      px      :     0.013037
      py      :     0.033090
  6 O s       :     3.794494  s :     3.794494
      pz      :     1.510344  p :     4.919340
      px      :     1.616071
      py      :     1.792925
      dz2     :     0.012331  d :     0.024505
      dxz     :     0.001299
      dyz     :     0.002266
      dx2y2   :     0.002215
      dxy     :     0.006394
      f0      :     0.000252  f :     0.001379
      f+1     :     0.000388
      f-1     :     0.000154
      f+2     :     0.000051
      f-2     :     0.000056
      f+3     :     0.000044
      f-3     :     0.000436
  7 H s       :     0.607091  s :     0.607091
      pz      :     0.019024  p :     0.044040
      px      :     0.011960
      py      :     0.013056
  8 H s       :     0.539696  s :     0.539696
      pz      :     0.009015  p :     0.049077
      px      :     0.025047
      py      :     0.015014
  9 O s       :     3.800376  s :     3.800376
      pz      :     1.621459  p :     4.932697
      px      :     1.852731
      py      :     1.458508
      dz2     :     0.010205  d :     0.023340
      dxz     :     0.002049
      dyz     :     0.002404
      dx2y2   :     0.003479
      dxy     :     0.005203
      f0      :     0.000167  f :     0.001395
      f+1     :     0.000113
      f-1     :     0.000437
      f+2     :     0.000070
      f-2     :     0.000036
      f+3     :     0.000460
      f-3     :     0.000112
 10 H s       :     0.535049  s :     0.535049
      pz      :     0.025582  p :     0.048518
      px      :     0.012125
      py      :     0.010812
 11 H s       :     0.607846  s :     0.607846
      pz      :     0.009487  p :     0.042097
      px      :     0.014162
      py      :     0.018447
 12 O s       :     3.803969  s :     3.803969
      pz      :     1.592645  p :     4.953661
      px      :     1.482151
      py      :     1.878866
      dz2     :     0.009514  d :     0.022155
      dxz     :     0.002338
      dyz     :     0.002237
      dx2y2   :     0.002895
      dxy     :     0.005172
      f0      :     0.000183  f :     0.001410
      f+1     :     0.000420
      f-1     :     0.000119
      f+2     :     0.000079
      f-2     :     0.000036
      f+3     :     0.000120
      f-3     :     0.000453
 13 H s       :     0.557410  s :     0.557410
      pz      :     0.024863  p :     0.049447
      px      :     0.011508
      py      :     0.013076
 14 H s       :     0.580736  s :     0.580736
      pz      :     0.009596  p :     0.053749
      px      :     0.027929
      py      :     0.016224
 15 O s       :     3.792616  s :     3.792616
      pz      :     1.585522  p :     4.951332
      px      :     1.582886
      py      :     1.782923
      dz2     :     0.011509  d :     0.023770
      dxz     :     0.001144
      dyz     :     0.002177
      dx2y2   :     0.002327
      dxy     :     0.006612
      f0      :     0.000224  f :     0.001338
      f+1     :     0.000377
      f-1     :     0.000148
      f+2     :     0.000051
      f-2     :     0.000054
      f+3     :     0.000046
      f-3     :     0.000438
 16 H s       :     0.542094  s :     0.542094
      pz      :     0.025330  p :     0.047704
      px      :     0.010790
      py      :     0.011584
 17 H s       :     0.570347  s :     0.570347
      pz      :     0.010037  p :     0.049733
      px      :     0.023855
      py      :     0.015842
 18 O s       :     3.807397  s :     3.807397
      pz      :     1.723145  p :     4.966558
      px      :     1.800373
      py      :     1.443041
      dz2     :     0.003452  d :     0.021806
      dxz     :     0.005033
      dyz     :     0.004241
      dx2y2   :     0.002198
      dxy     :     0.006882
      f0      :     0.000079  f :     0.001379
      f+1     :     0.000168
      f-1     :     0.000312
      f+2     :     0.000061
      f-2     :     0.000345
      f+3     :     0.000331
      f-3     :     0.000082
 19 H s       :     0.589010  s :     0.589010
      pz      :     0.016815  p :     0.045213
      px      :     0.014671
      py      :     0.013727
 20 H s       :     0.531957  s :     0.531957
      pz      :     0.009862  p :     0.055748
      px      :     0.013040
      py      :     0.032847
 21 O s       :     3.797802  s :     3.797802
      pz      :     1.574745  p :     4.900821
      px      :     1.784784
      py      :     1.541292
      dz2     :     0.011965  d :     0.025220
      dxz     :     0.002422
      dyz     :     0.001200
      dx2y2   :     0.002506
      dxy     :     0.007127
      f0      :     0.000228  f :     0.001405
      f+1     :     0.000157
      f-1     :     0.000383
      f+2     :     0.000050
      f-2     :     0.000055
      f+3     :     0.000479
      f-3     :     0.000053
 22 H s       :     0.547536  s :     0.547536
      pz      :     0.024901  p :     0.047869
      px      :     0.011918
      py      :     0.011050
 23 H s       :     0.601673  s :     0.601673
      pz      :     0.010635  p :     0.043906
      px      :     0.014967
      py      :     0.018304


                     *******************************
                     * LOEWDIN POPULATION ANALYSIS *
                     *******************************

----------------------
LOEWDIN ATOMIC CHARGES
----------------------
   0 O :   -0.345935
   1 H :    0.151554
   2 H :    0.153551
   3 O :   -0.349526
   4 H :    0.153533
   5 H :    0.157253
   6 O :   -0.290844
   7 H :    0.163825
   8 H :    0.166472
   9 O :   -0.296736
  10 H :    0.166155
  11 H :    0.170966
  12 O :   -0.355367
  13 H :    0.157282
  14 H :    0.144235
  15 O :   -0.303046
  16 H :    0.164956
  17 H :    0.152072
  18 O :   -0.326699
  19 H :    0.161341
  20 H :    0.156493
  21 O :   -0.285015
  22 H :    0.163491
  23 H :    0.169989

-------------------------------
LOEWDIN REDUCED ORBITAL CHARGES
-------------------------------
  0 O s       :     3.461666  s :     3.461666
      pz      :     1.676476  p :     4.852629
      px      :     1.394260
      py      :     1.781893
      dz2     :     0.004669  d :     0.029645
      dxz     :     0.006843
      dyz     :     0.005744
      dx2y2   :     0.003247
      dxy     :     0.009142
      f0      :     0.000084  f :     0.001995
      f+1     :     0.000429
      f-1     :     0.000263
      f+2     :     0.000034
      f-2     :     0.000620
      f+3     :     0.000084
      f-3     :     0.000480
  1 H s       :     0.683638  s :     0.683638
      pz      :     0.065791  p :     0.164809
      px      :     0.045667
      py      :     0.053351
  2 H s       :     0.651162  s :     0.651162
      pz      :     0.033533  p :     0.195287
      px      :     0.114142
      py      :     0.047612
  3 O s       :     3.460163  s :     3.460163
      pz      :     1.709654  p :     4.858932
      px      :     1.742275
      py      :     1.407003
      dz2     :     0.004306  d :     0.028484
      dxz     :     0.005302
      dyz     :     0.007216
      dx2y2   :     0.003670
      dxy     :     0.007991
      f0      :     0.000075  f :     0.001946
      f+1     :     0.000258
      f-1     :     0.000433
      f+2     :     0.000032
      f-2     :     0.000623
      f+3     :     0.000442
      f-3     :     0.000083
  4 H s       :     0.681675  s :     0.681675
      pz      :     0.065895  p :     0.164792
      px      :     0.052734
      py      :     0.046163
  5 H s       :     0.644136  s :     0.644136
      pz      :     0.033141  p :     0.198610
      px      :     0.047451
      py      :     0.118019
  6 O s       :     3.451558  s :     3.451558
      pz      :     1.509783  p :     4.806223
      px      :     1.565125
      py      :     1.731315
      dz2     :     0.016369  d :     0.030990
      dxz     :     0.002203
      dyz     :     0.001836
      dx2y2   :     0.003170
      dxy     :     0.007412
      f0      :     0.000482  f :     0.002074
      f+1     :     0.000572
      f-1     :     0.000326
      f+2     :     0.000020
      f-2     :     0.000052
      f+3     :     0.000025
      f-3     :     0.000595
  7 H s       :     0.677090  s :     0.677090
      pz      :     0.079776  p :     0.159085
      px      :     0.037040
      py      :     0.042270
  8 H s       :     0.655924  s :     0.655924
      pz      :     0.028856  p :     0.177604
      px      :     0.090580
      py      :     0.058168
  9 O s       :     3.456124  s :     3.456124
      pz      :     1.568217  p :     4.807891
      px      :     1.789207
      py      :     1.450467
      dz2     :     0.013825  d :     0.030701
      dxz     :     0.001237
      dyz     :     0.003340
      dx2y2   :     0.005425
      dxy     :     0.006875
      f0      :     0.000325  f :     0.002020
      f+1     :     0.000199
      f-1     :     0.000699
      f+2     :     0.000036
      f-2     :     0.000040
      f+3     :     0.000645
      f-3     :     0.000075
 10 H s       :     0.659327  s :     0.659327
      pz      :     0.096892  p :     0.174518
      px      :     0.042114
      py      :     0.035512
 11 H s       :     0.674688  s :     0.674688
      pz      :     0.030851  p :     0.154345
      px      :     0.049404
      py      :     0.074090
 12 O s       :     3.455582  s :     3.455582
      pz      :     1.556423  p :     4.869635
      px      :     1.474266
      py      :     1.838947
      dz2     :     0.012996  d :     0.028215
      dxz     :     0.003511
      dyz     :     0.001469
      dx2y2   :     0.003896
      dxy     :     0.006342
      f0      :     0.000350  f :     0.001936
      f+1     :     0.000679
      f-1     :     0.000182
      f+2     :     0.000041
      f-2     :     0.000042
      f+3     :     0.000069
      f-3     :     0.000572
 13 H s       :     0.668936  s :     0.668936
      pz      :     0.094449  p :     0.173782
      px      :     0.036699
      py      :     0.042635
 14 H s       :     0.671898  s :     0.671898
      pz      :     0.030967  p :     0.183867
      px      :     0.100184
      py      :     0.052716
 15 O s       :     3.445784  s :     3.445784
      pz      :     1.550605  p :     4.825890
      px      :     1.549083
      py      :     1.726202
      dz2     :     0.014318  d :     0.029383
      dxz     :     0.001669
      dyz     :     0.001639
      dx2y2   :     0.003445
      dxy     :     0.008312
      f0      :     0.000396  f :     0.001990
      f+1     :     0.000535
      f-1     :     0.000319
      f+2     :     0.000019
      f-2     :     0.000048
      f+3     :     0.000025
      f-3     :     0.000648
 16 H s       :     0.661109  s :     0.661109
      pz      :     0.096212  p :     0.173935
      px      :     0.036661
      py      :     0.041062
 17 H s       :     0.673068  s :     0.673068
      pz      :     0.031504  p :     0.174860
      px      :     0.085419
      py      :     0.057937
 18 O s       :     3.454306  s :     3.454306
      pz      :     1.681422  p :     4.842279
      px      :     1.753086
      py      :     1.407772
      dz2     :     0.004527  d :     0.028177
      dxz     :     0.005091
      dyz     :     0.006458
      dx2y2   :     0.003567
      dxy     :     0.008535
      f0      :     0.000081  f :     0.001936
      f+1     :     0.000257
      f-1     :     0.000424
      f+2     :     0.000031
      f-2     :     0.000601
      f+3     :     0.000458
      f-3     :     0.000083
 19 H s       :     0.673129  s :     0.673129
      pz      :     0.066018  p :     0.165530
      px      :     0.053203
      py      :     0.046309
 20 H s       :     0.644549  s :     0.644549
      pz      :     0.033136  p :     0.198959
      px      :     0.047773
      py      :     0.118050
 21 O s       :     3.453987  s :     3.453987
      pz      :     1.544018  p :     4.796624
      px      :     1.725810
      py      :     1.526796
      dz2     :     0.015501  d :     0.032278
      dxz     :     0.001840
      dyz     :     0.001735
      dx2y2   :     0.003772
      dxy     :     0.009429
      f0      :     0.000408  f :     0.002126
      f+1     :     0.000334
      f-1     :     0.000562
      f+2     :     0.000021
      f-2     :     0.000046
      f+3     :     0.000729
      f-3     :     0.000027
 22 H s       :     0.664566  s :     0.664566
      pz      :     0.094631  p :     0.171943
      px      :     0.041441
      py      :     0.035871
 23 H s       :     0.671977  s :     0.671977
      pz      :     0.031269  p :     0.158033
      px      :     0.054833
      py      :     0.071931


                      *****************************
                      * MAYER POPULATION ANALYSIS *
                      *****************************

  NA   - Mulliken gross atomic population
  ZA   - Total nuclear charge
  QA   - Mulliken gross atomic charge
  VA   - Mayer's total valence
  BVA  - Mayer's bonded valence
  FA   - Mayer's free valence

  ATOM       NA         ZA         QA         VA         BVA        FA
  0 O      8.7646     8.0000    -0.7646     1.6963     1.6963    -0.0000
  1 H      0.6580     1.0000     0.3420     0.8992     0.8992    -0.0000
  2 H      0.6021     1.0000     0.3979     0.8770     0.8770     0.0000
  3 O      8.7809     8.0000    -0.7809     1.6877     1.6877    -0.0000
  4 H      0.6536     1.0000     0.3464     0.8964     0.8964    -0.0000
  5 H      0.5832     1.0000     0.4168     0.8657     0.8657    -0.0000
  6 O      8.7397     8.0000    -0.7397     1.7354     1.7354    -0.0000
  7 H      0.6511     1.0000     0.3489     0.8922     0.8922    -0.0000
  8 H      0.5888     1.0000     0.4112     0.8745     0.8745    -0.0000
  9 O      8.7578     8.0000    -0.7578     1.7226     1.7226    -0.0000
 10 H      0.5836     1.0000     0.4164     0.8619     0.8619     0.0000
 11 H      0.6499     1.0000     0.3501     0.8973     0.8973    -0.0000
 12 O      8.7812     8.0000    -0.7812     1.6867     1.6867    -0.0000
 13 H      0.6069     1.0000     0.3931     0.8812     0.8812    -0.0000
 14 H      0.6345     1.0000     0.3655     0.8976     0.8976    -0.0000
 15 O      8.7691     8.0000    -0.7691     1.7209     1.7209    -0.0000
 16 H      0.5898     1.0000     0.4102     0.8627     0.8627    -0.0000
 17 H      0.6201     1.0000     0.3799     0.8875     0.8875     0.0000
 18 O      8.7971     8.0000    -0.7971     1.6700     1.6700    -0.0000
 19 H      0.6342     1.0000     0.3658     0.8836     0.8836    -0.0000
 20 H      0.5877     1.0000     0.4123     0.8692     0.8692    -0.0000
 21 O      8.7252     8.0000    -0.7252     1.7571     1.7571     0.0000
 22 H      0.5954     1.0000     0.4046     0.8605     0.8605    -0.0000
 23 H      0.6456     1.0000     0.3544     0.8886     0.8886     0.0000

  Mayer bond orders larger than 0.100000
B(  0-O ,  1-H ) :   0.8907 B(  0-O ,  2-H ) :   0.8024 B(  3-O ,  4-H ) :   0.8878 
B(  3-O ,  5-H ) :   0.7722 B(  6-O ,  7-H ) :   0.8863 B(  6-O ,  8-H ) :   0.7990 
B(  9-O , 10-H ) :   0.8118 B(  9-O , 11-H ) :   0.8793 B( 12-O , 13-H ) :   0.8370 
B( 12-O , 14-H ) :   0.8443 B( 15-O , 16-H ) :   0.8206 B( 15-O , 17-H ) :   0.8478 
B( 18-O , 19-H ) :   0.8741 B( 18-O , 20-H ) :   0.7704 B( 21-O , 22-H ) :   0.8329 
B( 21-O , 23-H ) :   0.8820 

-------
TIMINGS
-------

Total SCF time: 0 days 0 hours 0 min 27 sec 

Total time                  ....      27.615 sec
Sum of individual times     ....      27.320 sec  ( 98.9%)

Fock matrix formation       ....      26.745 sec  ( 96.9%)
Diagonalization             ....       0.138 sec  (  0.5%)
Density matrix formation    ....       0.016 sec  (  0.1%)
Population analysis         ....       0.015 sec  (  0.1%)
Initial guess               ....       0.196 sec  (  0.7%)
Orbital Transformation      ....       0.000 sec  (  0.0%)
Orbital Orthonormalization  ....       0.000 sec  (  0.0%)
DIIS solution               ....       0.055 sec  (  0.2%)
SOSCF solution              ....       0.061 sec  (  0.2%)


           ************************************************************
           *        Program running with 6 parallel MPI-processes     *
           *              working on a common directory               *
           ************************************************************

------------------------------------------------------------------------------
                                ORCA  MP2 
------------------------------------------------------------------------------

Freezing NCore=16 chemical core electrons
MP2 will be done in the AO integral direct mode
The Q1-step will be done using symmetric double matrices
Dimension of the basis                    ...  344
Memory devoted for MP2                    ... 8000 MB   
Memory needed for all in one shot         ...  935 MB
Number of MOs that can be treated together...   50      
MP2 density construction                  ... relaxed
The MP2 gradient is requested => amplitudes will be stored on disk
Total number of MOs              ...   32
Number of MOs treated per batch  ...    6 
Number of batches necessary      ...    1 
OPERATORS   0/  0 PASS   0
-----------------------------------------------
 MP2 CORRELATION ENERGY   :     -2.076245241 Eh
-----------------------------------------------


---------------------
MP2 DENSITY FORMATION
---------------------

Completing the external part of the density      ... done
Storing the unrelaxed density                    ... done

Calculating G(D)                                 ... done
Completing the Lagrangian                        ... done
Solving the Z-vector equations                   ... 

------------------------------------------------------------------------------
                           ORCA CP-SCF CALCULATION
------------------------------------------------------------------------------

Input orbitals are from        ... 12h2o.su.etal.mol0,2,3,4,6,8,10,11-orca.engrad-mp2.def2tzvp.frozencore.gbw
Input Perturbation             ... 12h2o.su.etal.mol0,2,3,4,6,8,10,11-orca.engrad-mp2.def2tzvp.frozencore.pin.tmp
Wavefunction output            ... 12h2o.su.etal.mol0,2,3,4,6,8,10,11-orca.engrad-mp2.def2tzvp.frozencore.pout.tmp
Perturbation mode              ... Real perturbation (singlet)
Solver                         ... POPLE
Max. number of iterations      ... 128
Convergence tolerance          ... 1.000e-08
Integral handling              ... Direct
Number of perturbations        ... 1
Number of operators            ... 1
Orbital ranges used for CP-SCF:
 Operator 0:  Orbitals   0... 39  to  40...343
Variables per vector in CP-SCF ... 12160
Number of vectors sought       ... 1
     CP-SCF ITERATION   0: 
     CP-SCF ITERATION   1:      0.001043797769
     CP-SCF ITERATION   2:      0.000029502677
     CP-SCF ITERATION   3:      0.000000843604
     CP-SCF ITERATION   4:      0.000000128357
     CP-SCF ITERATION   5:      0.000000012266
     CP-SCF ITERATION   6:      0.000000000634
                                                 ... done
Finalizing the relaxed density                   ... done
Transforming P to the AO basis                   ... done
Storing the relaxed density                      ... done

------------------------------------
ENERGY WEIGHTED DENSITY FINALIZATION
------------------------------------

Gathering the parts of the W-matrix              ...                                                      done
Forming the Z-density                            ... done
Transforming Z to the AO basis                   ... done
Calculating G(Z)                                 ... done
Finalizing the W-matrix                          ...                                                      done
Transforming W to the AO basis and storing       ... done

                *********************************************
                * UNRELAXED MP2 DENSITY POPULATION ANALYSIS *
                *********************************************

------------------------------------------------------------------------------
                           ORCA POPULATION ANALYSIS
------------------------------------------------------------------------------
Input electron density              ... 12h2o.su.etal.mol0,2,3,4,6,8,10,11-orca.engrad-mp2.def2tzvp.frozencore.pmp2ur
BaseName (.gbw .S,...)              ... 12h2o.su.etal.mol0,2,3,4,6,8,10,11-orca.engrad-mp2.def2tzvp.frozencore

                    ********************************
                    * MULLIKEN POPULATION ANALYSIS *
                    ********************************

-----------------------
MULLIKEN ATOMIC CHARGES
-----------------------
   0 O :   -0.758580
   1 H :    0.339711
   2 H :    0.393314
   3 O :   -0.774335
   4 H :    0.344139
   5 H :    0.411916
   6 O :   -0.732707
   7 H :    0.346437
   8 H :    0.407424
   9 O :   -0.751232
  10 H :    0.413258
  11 H :    0.347110
  12 O :   -0.774769
  13 H :    0.390018
  14 H :    0.361237
  15 O :   -0.761743
  16 H :    0.407006
  17 H :    0.376464
  18 O :   -0.790366
  19 H :    0.363464
  20 H :    0.407295
  21 O :   -0.718654
  22 H :    0.401617
  23 H :    0.351977
Sum of atomic charges:   -0.0000000

--------------------------------
MULLIKEN REDUCED ORBITAL CHARGES
--------------------------------
  0 O s       :     3.803943  s :     3.803943
      pz      :     1.696058  p :     4.900070
      px      :     1.404617
      py      :     1.799394
      dz2     :     0.009307  d :     0.050555
      dxz     :     0.009737
      dyz     :     0.010919
      dx2y2   :     0.007797
      dxy     :     0.012796
      f0      :     0.000451  f :     0.004013
      f+1     :     0.000678
      f-1     :     0.000543
      f+2     :     0.000439
      f-2     :     0.000715
      f+3     :     0.000463
      f-3     :     0.000723
  1 H s       :     0.612727  s :     0.612727
      pz      :     0.017347  p :     0.047562
      px      :     0.014398
      py      :     0.015816
  2 H s       :     0.548457  s :     0.548457
      pz      :     0.011162  p :     0.058229
      px      :     0.032240
      py      :     0.014827
  3 O s       :     3.801500  s :     3.801500
      pz      :     1.722328  p :     4.918750
      px      :     1.763110
      py      :     1.433312
      dz2     :     0.009615  d :     0.050090
      dxz     :     0.010564
      dyz     :     0.010415
      dx2y2   :     0.007883
      dxy     :     0.011613
      f0      :     0.000459  f :     0.003995
      f+1     :     0.000540
      f-1     :     0.000699
      f+2     :     0.000430
      f-2     :     0.000720
      f+3     :     0.000690
      f-3     :     0.000456
  4 H s       :     0.608495  s :     0.608495
      pz      :     0.017772  p :     0.047366
      px      :     0.015528
      py      :     0.014066
  5 H s       :     0.530092  s :     0.530092
      pz      :     0.011067  p :     0.057991
      px      :     0.013719
      py      :     0.033206
  6 O s       :     3.789198  s :     3.789198
      pz      :     1.501267  p :     4.887591
      px      :     1.606197
      py      :     1.780126
      dz2     :     0.017449  d :     0.051939
      dxz     :     0.006755
      dyz     :     0.007871
      dx2y2   :     0.007946
      dxy     :     0.011918
      f0      :     0.000631  f :     0.003979
      f+1     :     0.000755
      f-1     :     0.000529
      f+2     :     0.000414
      f-2     :     0.000423
      f+3     :     0.000423
      f-3     :     0.000803
  7 H s       :     0.607875  s :     0.607875
      pz      :     0.019129  p :     0.045688
      px      :     0.012669
      py      :     0.013890
  8 H s       :     0.542105  s :     0.542105
      pz      :     0.009727  p :     0.050472
      px      :     0.025213
      py      :     0.015532
  9 O s       :     3.795285  s :     3.795285
      pz      :     1.611170  p :     4.900835
      px      :     1.840008
      py      :     1.449656
      dz2     :     0.015693  d :     0.051122
      dxz     :     0.007808
      dyz     :     0.007873
      dx2y2   :     0.009060
      dxy     :     0.010688
      f0      :     0.000557  f :     0.003990
      f+1     :     0.000492
      f-1     :     0.000807
      f+2     :     0.000436
      f-2     :     0.000404
      f+3     :     0.000814
      f-3     :     0.000480
 10 H s       :     0.536834  s :     0.536834
      pz      :     0.025666  p :     0.049908
      px      :     0.012906
      py      :     0.011336
 11 H s       :     0.609170  s :     0.609170
      pz      :     0.010314  p :     0.043720
      px      :     0.014917
      py      :     0.018488
 12 O s       :     3.798988  s :     3.798988
      pz      :     1.582448  p :     4.921910
      px      :     1.472708
      py      :     1.866755
      dz2     :     0.015014  d :     0.049871
      dxz     :     0.007869
      dyz     :     0.007922
      dx2y2   :     0.008455
      dxy     :     0.010610
      f0      :     0.000571  f :     0.004000
      f+1     :     0.000793
      f-1     :     0.000494
      f+2     :     0.000444
      f-2     :     0.000405
      f+3     :     0.000486
      f-3     :     0.000808
 13 H s       :     0.559058  s :     0.559058
      pz      :     0.024941  p :     0.050924
      px      :     0.012087
      py      :     0.013897
 14 H s       :     0.583260  s :     0.583260
      pz      :     0.010441  p :     0.055503
      px      :     0.028087
      py      :     0.016975
 15 O s       :     3.787446  s :     3.787446
      pz      :     1.575632  p :     4.918821
      px      :     1.573042
      py      :     1.770146
      dz2     :     0.016819  d :     0.051524
      dxz     :     0.006685
      dyz     :     0.007848
      dx2y2   :     0.008072
      dxy     :     0.012100
      f0      :     0.000610  f :     0.003951
      f+1     :     0.000749
      f-1     :     0.000527
      f+2     :     0.000416
      f-2     :     0.000424
      f+3     :     0.000424
      f-3     :     0.000802
 16 H s       :     0.543871  s :     0.543871
      pz      :     0.025352  p :     0.049123
      px      :     0.011421
      py      :     0.012350
 17 H s       :     0.572230  s :     0.572230
      pz      :     0.010830  p :     0.051305
      px      :     0.024063
      py      :     0.016413
 18 O s       :     3.802459  s :     3.802459
      pz      :     1.711893  p :     4.934125
      px      :     1.788263
      py      :     1.433969
      dz2     :     0.009153  d :     0.049805
      dxz     :     0.010598
      dyz     :     0.009784
      dx2y2   :     0.007879
      dxy     :     0.012391
      f0      :     0.000453  f :     0.003977
      f+1     :     0.000536
      f-1     :     0.000680
      f+2     :     0.000434
      f-2     :     0.000713
      f+3     :     0.000701
      f-3     :     0.000460
 19 H s       :     0.589743  s :     0.589743
      pz      :     0.017267  p :     0.046794
      px      :     0.015365
      py      :     0.014161
 20 H s       :     0.535349  s :     0.535349
      pz      :     0.010658  p :     0.057356
      px      :     0.013743
      py      :     0.032956
 21 O s       :     3.792650  s :     3.792650
      pz      :     1.565066  p :     4.869488
      px      :     1.772448
      py      :     1.531974
      dz2     :     0.017181  d :     0.052514
      dxz     :     0.008039
      dyz     :     0.006641
      dx2y2   :     0.008143
      dxy     :     0.012510
      f0      :     0.000613  f :     0.004002
      f+1     :     0.000536
      f-1     :     0.000751
      f+2     :     0.000414
      f-2     :     0.000423
      f+3     :     0.000837
      f-3     :     0.000428
 22 H s       :     0.549054  s :     0.549054
      pz      :     0.024951  p :     0.049330
      px      :     0.012707
      py      :     0.011672
 23 H s       :     0.602514  s :     0.602514
      pz      :     0.011428  p :     0.045509
      px      :     0.015597
      py      :     0.018484


                     *******************************
                     * LOEWDIN POPULATION ANALYSIS *
                     *******************************

----------------------
LOEWDIN ATOMIC CHARGES
----------------------
   0 O :   -0.342675
   1 H :    0.150221
   2 H :    0.150978
   3 O :   -0.345975
   4 H :    0.152238
   5 H :    0.154606
   6 O :   -0.286570
   7 H :    0.162281
   8 H :    0.164218
   9 O :   -0.291973
  10 H :    0.164073
  11 H :    0.169018
  12 O :   -0.351891
  13 H :    0.155230
  14 H :    0.141614
  15 O :   -0.298789
  16 H :    0.162958
  17 H :    0.149790
  18 O :   -0.322484
  19 H :    0.160051
  20 H :    0.153742
  21 O :   -0.280745
  22 H :    0.161560
  23 H :    0.168523

-------------------------------
LOEWDIN REDUCED ORBITAL CHARGES
-------------------------------
  0 O s       :     3.458010  s :     3.458010
      pz      :     1.665054  p :     4.821685
      px      :     1.385796
      py      :     1.770834
      dz2     :     0.010399  d :     0.058207
      dxz     :     0.012540
      dyz     :     0.011510
      dx2y2   :     0.008886
      dxy     :     0.014871
      f0      :     0.000468  f :     0.004774
      f+1     :     0.000844
      f-1     :     0.000648
      f+2     :     0.000411
      f-2     :     0.001031
      f+3     :     0.000472
      f-3     :     0.000900
  1 H s       :     0.681710  s :     0.681710
      pz      :     0.067071  p :     0.168069
      px      :     0.046622
      py      :     0.054375
  2 H s       :     0.651279  s :     0.651279
      pz      :     0.034377  p :     0.197742
      px      :     0.114876
      py      :     0.048490
  3 O s       :     3.456508  s :     3.456508
      pz      :     1.699066  p :     4.827647
      px      :     1.730017
      py      :     1.398564
      dz2     :     0.009938  d :     0.057094
      dxz     :     0.011073
      dyz     :     0.012853
      dx2y2   :     0.009399
      dxy     :     0.013830
      f0      :     0.000454  f :     0.004725
      f+1     :     0.000643
      f-1     :     0.000848
      f+2     :     0.000410
      f-2     :     0.001033
      f+3     :     0.000863
      f-3     :     0.000473
  4 H s       :     0.679761  s :     0.679761
      pz      :     0.067176  p :     0.168001
      px      :     0.053701
      py      :     0.047123
  5 H s       :     0.644502  s :     0.644502
      pz      :     0.033959  p :     0.200892
      px      :     0.048256
      py      :     0.118677
  6 O s       :     3.447777  s :     3.447777
      pz      :     1.500323  p :     4.774477
      px      :     1.555495
      py      :     1.718658
      dz2     :     0.022205  d :     0.059447
      dxz     :     0.007604
      dyz     :     0.007368
      dx2y2   :     0.008855
      dxy     :     0.013415
      f0      :     0.000904  f :     0.004870
      f+1     :     0.000995
      f-1     :     0.000725
      f+2     :     0.000389
      f-2     :     0.000427
      f+3     :     0.000408
      f-3     :     0.001021
  7 H s       :     0.675368  s :     0.675368
      pz      :     0.081424  p :     0.162351
      px      :     0.037844
      py      :     0.043083
  8 H s       :     0.655667  s :     0.655667
      pz      :     0.029556  p :     0.180115
      px      :     0.091582
      py      :     0.058977
  9 O s       :     3.452336  s :     3.452336
      pz      :     1.557573  p :     4.775276
      px      :     1.776451
      py      :     1.441251
      dz2     :     0.019887  d :     0.059545
      dxz     :     0.006914
      dyz     :     0.008859
      dx2y2   :     0.011201
      dxy     :     0.012686
      f0      :     0.000746  f :     0.004816
      f+1     :     0.000595
      f-1     :     0.001138
      f+2     :     0.000410
      f-2     :     0.000414
      f+3     :     0.001058
      f-3     :     0.000455
 10 H s       :     0.658820  s :     0.658820
      pz      :     0.098038  p :     0.177106
      px      :     0.042863
      py      :     0.036205
 11 H s       :     0.673334  s :     0.673334
      pz      :     0.031710  p :     0.157648
      px      :     0.050399
      py      :     0.075539
 12 O s       :     3.451924  s :     3.451924
      pz      :     1.545824  p :     4.838165
      px      :     1.464932
      py      :     1.827409
      dz2     :     0.019074  d :     0.057077
      dxz     :     0.009086
      dyz     :     0.007089
      dx2y2   :     0.009665
      dxy     :     0.012163
      f0      :     0.000770  f :     0.004725
      f+1     :     0.001121
      f-1     :     0.000574
      f+2     :     0.000414
      f-2     :     0.000416
      f+3     :     0.000446
      f-3     :     0.000984
 13 H s       :     0.668216  s :     0.668216
      pz      :     0.095692  p :     0.176554
      px      :     0.037464
      py      :     0.043399
 14 H s       :     0.671500  s :     0.671500
      pz      :     0.031853  p :     0.186886
      px      :     0.101389
      py      :     0.053644
 15 O s       :     3.442088  s :     3.442088
      pz      :     1.540886  p :     4.793713
      px      :     1.539286
      py      :     1.713541
      dz2     :     0.020294  d :     0.058186
      dxz     :     0.007161
      dyz     :     0.007238
      dx2y2   :     0.009156
      dxy     :     0.014337
      f0      :     0.000824  f :     0.004802
      f+1     :     0.000962
      f-1     :     0.000721
      f+2     :     0.000389
      f-2     :     0.000425
      f+3     :     0.000407
      f-3     :     0.001073
 16 H s       :     0.660450  s :     0.660450
      pz      :     0.097382  p :     0.176592
      px      :     0.037391
      py      :     0.041819
 17 H s       :     0.672399  s :     0.672399
      pz      :     0.032296  p :     0.177811
      px      :     0.086638
      py      :     0.058876
 18 O s       :     3.450675  s :     3.450675
      pz      :     1.669735  p :     4.809776
      px      :     1.740897
      py      :     1.399144
      dz2     :     0.010351  d :     0.057300
      dxz     :     0.010989
      dyz     :     0.012214
      dx2y2   :     0.009345
      dxy     :     0.014401
      f0      :     0.000467  f :     0.004732
      f+1     :     0.000645
      f-1     :     0.000841
      f+2     :     0.000411
      f-2     :     0.001013
      f+3     :     0.000881
      f-3     :     0.000474
 19 H s       :     0.671357  s :     0.671357
      pz      :     0.067195  p :     0.168592
      px      :     0.054176
      py      :     0.047221
 20 H s       :     0.644969  s :     0.644969
      pz      :     0.033951  p :     0.201290
      px      :     0.048626
      py      :     0.118712
 21 O s       :     3.450177  s :     3.450177
      pz      :     1.534355  p :     4.765034
      px      :     1.713400
      py      :     1.517278
      dz2     :     0.021386  d :     0.060614
      dxz     :     0.007388
      dyz     :     0.007133
      dx2y2   :     0.009386
      dxy     :     0.015322
      f0      :     0.000833  f :     0.004921
      f+1     :     0.000737
      f-1     :     0.000986
      f+2     :     0.000389
      f-2     :     0.000421
      f+3     :     0.001149
      f-3     :     0.000406
 22 H s       :     0.663747  s :     0.663747
      pz      :     0.095876  p :     0.174693
      px      :     0.042232
      py      :     0.036585
 23 H s       :     0.670268  s :     0.670268
      pz      :     0.032037  p :     0.161209
      px      :     0.055878
      py      :     0.073294


                      *****************************
                      * MAYER POPULATION ANALYSIS *
                      *****************************

  NA   - Mulliken gross atomic population
[...]
      f-1     :     0.000662
      f+2     :     0.000433
      f-2     :     0.000693
      f+3     :     0.000683
      f-3     :     0.000458
 19 H s       :     0.596178  s :     0.596178
      pz      :     0.017338  p :     0.047532
      px      :     0.015994
      py      :     0.014199
 20 H s       :     0.560249  s :     0.560249
      pz      :     0.011313  p :     0.057485
      px      :     0.014215
      py      :     0.031957
 21 O s       :     3.792832  s :     3.792832
      pz      :     1.562749  p :     4.844432
      px      :     1.756479
      py      :     1.525204
      dz2     :     0.016001  d :     0.050563
      dxz     :     0.008034
      dyz     :     0.006614
      dx2y2   :     0.008093
      dxy     :     0.011821
      f0      :     0.000597  f :     0.003928
      f+1     :     0.000526
      f-1     :     0.000730
      f+2     :     0.000414
      f-2     :     0.000421
      f+3     :     0.000812
      f-3     :     0.000427
 22 H s       :     0.562248  s :     0.562248
      pz      :     0.024149  p :     0.049701
      px      :     0.013474
      py      :     0.012079
 23 H s       :     0.607257  s :     0.607257
      pz      :     0.012149  p :     0.046205
      px      :     0.016129
      py      :     0.017927


                     *******************************
                     * LOEWDIN POPULATION ANALYSIS *
                     *******************************

----------------------
LOEWDIN ATOMIC CHARGES
----------------------
   0 O :   -0.340380
   1 H :    0.152143
   2 H :    0.143732
   3 O :   -0.341571
   4 H :    0.154290
   5 H :    0.146459
   6 O :   -0.279690
   7 H :    0.164120
   8 H :    0.157841
   9 O :   -0.283880
  10 H :    0.158821
  11 H :    0.169737
  12 O :   -0.348636
  13 H :    0.150768
  14 H :    0.135878
  15 O :   -0.290558
  16 H :    0.158852
  17 H :    0.145371
  18 O :   -0.314977
  19 H :    0.161946
  20 H :    0.145601
  21 O :   -0.274356
  22 H :    0.157923
  23 H :    0.170567

-------------------------------
LOEWDIN REDUCED ORBITAL CHARGES
-------------------------------
  0 O s       :     3.459602  s :     3.459602
      pz      :     1.659716  p :     4.818419
      px      :     1.389202
      py      :     1.769501
      dz2     :     0.010444  d :     0.057549
      dxz     :     0.012184
      dyz     :     0.011443
      dx2y2   :     0.008887
      dxy     :     0.014591
      f0      :     0.000471  f :     0.004812
      f+1     :     0.000856
      f-1     :     0.000649
      f+2     :     0.000412
      f-2     :     0.001032
      f+3     :     0.000476
      f-3     :     0.000915
  1 H s       :     0.679600  s :     0.679600
      pz      :     0.067093  p :     0.168257
      px      :     0.046172
      py      :     0.054992
  2 H s       :     0.658331  s :     0.658331
      pz      :     0.034988  p :     0.197937
      px      :     0.113892
      py      :     0.049056
  3 O s       :     3.457789  s :     3.457789
      pz      :     1.698691  p :     4.822493
      px      :     1.721214
      py      :     1.402588
      dz2     :     0.009928  d :     0.056526
      dxz     :     0.011007
      dyz     :     0.012495
      dx2y2   :     0.009434
      dxy     :     0.013661
      f0      :     0.000457  f :     0.004763
      f+1     :     0.000644
      f-1     :     0.000859
      f+2     :     0.000410
      f-2     :     0.001035
      f+3     :     0.000879
      f-3     :     0.000478
  4 H s       :     0.677697  s :     0.677697
      pz      :     0.067278  p :     0.168012
      px      :     0.053925
      py      :     0.046809
  5 H s       :     0.652552  s :     0.652552
      pz      :     0.034595  p :     0.200989
      px      :     0.048535
      py      :     0.117858
  6 O s       :     3.448573  s :     3.448573
      pz      :     1.502554  p :     4.767541
      px      :     1.557580
      py      :     1.707407
      dz2     :     0.021539  d :     0.058685
      dxz     :     0.007471
      dyz     :     0.007400
      dx2y2   :     0.008956
      dxy     :     0.013319
      f0      :     0.000902  f :     0.004891
      f+1     :     0.001003
      f-1     :     0.000726
      f+2     :     0.000390
      f-2     :     0.000428
      f+3     :     0.000410
      f-3     :     0.001032
  7 H s       :     0.673263  s :     0.673263
      pz      :     0.080704  p :     0.162617
      px      :     0.038209
      py      :     0.043704
  8 H s       :     0.661683  s :     0.661683
      pz      :     0.029843  p :     0.180476
      px      :     0.091390
      py      :     0.059243
  9 O s       :     3.453350  s :     3.453350
      pz      :     1.555946  p :     4.766907
      px      :     1.766985
      py      :     1.443976
      dz2     :     0.019592  d :     0.058785
      dxz     :     0.006993
      dyz     :     0.008683
      dx2y2   :     0.011072
      dxy     :     0.012445
      f0      :     0.000750  f :     0.004838
      f+1     :     0.000596
      f-1     :     0.001146
      f+2     :     0.000412
      f-2     :     0.000413
      f+3     :     0.001064
      f-3     :     0.000457
 10 H s       :     0.663911  s :     0.663911
      pz      :     0.097507  p :     0.177267
      px      :     0.043603
      py      :     0.036157
 11 H s       :     0.672319  s :     0.672319
      pz      :     0.032286  p :     0.157944
      px      :     0.051086
      py      :     0.074572
 12 O s       :     3.452417  s :     3.452417
      pz      :     1.543519  p :     4.835029
      px      :     1.466647
      py      :     1.824863
      dz2     :     0.018784  d :     0.056430
      dxz     :     0.008907
      dyz     :     0.007141
      dx2y2   :     0.009594
      dxy     :     0.012005
      f0      :     0.000775  f :     0.004760
      f+1     :     0.001133
      f-1     :     0.000575
      f+2     :     0.000416
      f-2     :     0.000415
      f+3     :     0.000449
      f-3     :     0.000997
 13 H s       :     0.672330  s :     0.672330
      pz      :     0.095115  p :     0.176901
      px      :     0.037551
      py      :     0.044235
 14 H s       :     0.676352  s :     0.676352
      pz      :     0.032393  p :     0.187770
      px      :     0.100953
      py      :     0.054424
 15 O s       :     3.442220  s :     3.442220
      pz      :     1.542784  p :     4.785908
      px      :     1.540534
      py      :     1.702590
      dz2     :     0.019872  d :     0.057604
      dxz     :     0.007070
      dyz     :     0.007274
      dx2y2   :     0.009237
      dxy     :     0.014151
      f0      :     0.000827  f :     0.004827
      f+1     :     0.000970
      f-1     :     0.000723
      f+2     :     0.000391
      f-2     :     0.000425
      f+3     :     0.000409
      f-3     :     0.001083
 16 H s       :     0.664434  s :     0.664434
      pz      :     0.096667  p :     0.176713
      px      :     0.037770
      py      :     0.042276
 17 H s       :     0.676195  s :     0.676195
      pz      :     0.032865  p :     0.178434
      px      :     0.086312
      py      :     0.059257
 18 O s       :     3.452068  s :     3.452068
      pz      :     1.664039  p :     4.801241
      px      :     1.734099
      py      :     1.403103
      dz2     :     0.010431  d :     0.056897
      dxz     :     0.010946
      dyz     :     0.011888
      dx2y2   :     0.009417
      dxy     :     0.014215
      f0      :     0.000470  f :     0.004772
      f+1     :     0.000647
      f-1     :     0.000852
      f+2     :     0.000412
      f-2     :     0.001016
      f+3     :     0.000897
      f-3     :     0.000479
 19 H s       :     0.669616  s :     0.669616
      pz      :     0.067004  p :     0.168438
      px      :     0.054603
      py      :     0.046831
 20 H s       :     0.652787  s :     0.652787
      pz      :     0.034435  p :     0.201611
      px      :     0.049074
      py      :     0.118103
 21 O s       :     3.451124  s :     3.451124
      pz      :     1.536046  p :     4.758521
      px      :     1.703754
      py      :     1.518721
      dz2     :     0.020866  d :     0.059771
      dxz     :     0.007438
      dyz     :     0.007028
      dx2y2   :     0.009433
      dxy     :     0.015006
      f0      :     0.000836  f :     0.004940
      f+1     :     0.000738
      f-1     :     0.000992
      f+2     :     0.000391
      f-2     :     0.000421
      f+3     :     0.001156
      f-3     :     0.000408
 22 H s       :     0.667212  s :     0.667212
      pz      :     0.095086  p :     0.174865
      px      :     0.042892
      py      :     0.036887
 23 H s       :     0.668099  s :     0.668099
      pz      :     0.032492  p :     0.161335
      px      :     0.056270
      py      :     0.072573


                      *****************************
                      * MAYER POPULATION ANALYSIS *
                      *****************************

  NA   - Mulliken gross atomic population
  ZA   - Total nuclear charge
  QA   - Mulliken gross atomic charge
  VA   - Mayer's total valence
  BVA  - Mayer's bonded valence
  FA   - Mayer's free valence

  ATOM       NA         ZA         QA         VA         BVA        FA
  0 O      8.7348     8.0000    -0.7348     2.0334     1.6454     0.3879
  1 H      0.6667     1.0000     0.3333     0.9093     0.8617     0.0475
  2 H      0.6296     1.0000     0.3704     0.9123     0.8670     0.0452
  3 O      8.7457     8.0000    -0.7457     2.0342     1.6447     0.3894
  4 H      0.6621     1.0000     0.3379     0.9064     0.8592     0.0472
  5 H      0.6133     1.0000     0.3867     0.9045     0.8606     0.0439
  6 O      8.7028     8.0000    -0.7028     2.0803     1.6971     0.3833
  7 H      0.6586     1.0000     0.3414     0.9015     0.8537     0.0478
  8 H      0.6139     1.0000     0.3861     0.9116     0.8694     0.0422
  9 O      8.7206     8.0000    -0.7206     2.0880     1.7008     0.3872
 10 H      0.6052     1.0000     0.3948     0.8935     0.8519     0.0416
 11 H      0.6609     1.0000     0.3391     0.9133     0.8642     0.0491
 12 O      8.7460     8.0000    -0.7460     2.0310     1.6413     0.3897
 13 H      0.6276     1.0000     0.3724     0.9107     0.8672     0.0435
 14 H      0.6588     1.0000     0.3412     0.9318     0.8841     0.0477
 15 O      8.7276     8.0000    -0.7276     2.0793     1.6940     0.3853
 16 H      0.6082     1.0000     0.3918     0.8894     0.8470     0.0424
 17 H      0.6405     1.0000     0.3595     0.9182     0.8729     0.0453
 18 O      8.7588     8.0000    -0.7588     2.0324     1.6415     0.3908
 19 H      0.6437     1.0000     0.3563     0.8945     0.8488     0.0457
 20 H      0.6177     1.0000     0.3823     0.9071     0.8626     0.0445
 21 O      8.6918     8.0000    -0.6918     2.1019     1.7202     0.3817
 22 H      0.6119     1.0000     0.3881     0.8852     0.8425     0.0427
 23 H      0.6535     1.0000     0.3465     0.8983     0.8511     0.0472

  Mayer bond orders larger than 0.100000
B(  0-O ,  1-H ) :   0.8525 B(  0-O ,  2-H ) :   0.7660 B(  3-O ,  4-H ) :   0.8498 
B(  3-O ,  5-H ) :   0.7369 B(  5-H , 15-O ) :   0.1175 B(  6-O ,  7-H ) :   0.8474 
B(  6-O ,  8-H ) :   0.7658 B(  6-O , 20-H ) :   0.1158 B(  9-O , 10-H ) :   0.7811 
B(  9-O , 11-H ) :   0.8396 B( 12-O , 13-H ) :   0.8049 B( 12-O , 14-H ) :   0.8021 
B( 15-O , 16-H ) :   0.7886 B( 15-O , 17-H ) :   0.8122 B( 18-O , 19-H ) :   0.8377 
B( 18-O , 20-H ) :   0.7323 B( 21-O , 22-H ) :   0.8008 B( 21-O , 23-H ) :   0.8439 



----------------------------------
MP2 DERIVATIVE INTEGRAL GENERATION
----------------------------------


Input Wavefunction Amplitudes       ... 12h2o.su.etal.mol0,2,3,4,6,8,10,11-orca.engrad-mp2.def2tzvp.frozencore.mp2tsaa.tmp
Input Correlated Electron Density   ... 12h2o.su.etal.mol0,2,3,4,6,8,10,11-orca.engrad-mp2.def2tzvp.frozencore.pmp2re
Input Energy Weighted Density       ... 12h2o.su.etal.mol0,2,3,4,6,8,10,11-orca.engrad-mp2.def2tzvp.frozencore.wmp2.tmp
Input SCF Electron Density          ... 12h2o.su.etal.mol0,2,3,4,6,8,10,11-orca.engrad-mp2.def2tzvp.frozencore.scfp

One-Electron Terms    ...
                        ... One-Electron Terms done
Prescreening matrices              ... done

Batch handling in the gradient evaluation:
Memory available                      ... 8000.0 MB
Memory per occupied orbital in Q2     ...   28.9 MB
Memory per occupied orbital in Q3     ...    0.1 MB
Total memory requirement per |i>      ...   29.0 MB
Max. Number of orbitals possible      ...    275
Number of orbitals treated per batch  ...     32
Number of batches to be done          ...      1
Batch   0: i=    8 ...    39

---------------------------------------
MP2 TOTAL ENERGY:     -610.597618783 Eh
---------------------------------------

The final MP2 gradient
  0:   0.00626825  -0.00487879   0.00055063
  1:   0.00118264  -0.00037129  -0.00055514
  2:  -0.01473374   0.00505974  -0.00213570
  3:   0.00784980  -0.00503633   0.00320296
  4:  -0.00070689  -0.00068995  -0.00024123
  5:  -0.00169663   0.00581179  -0.00178661
  6:   0.00627713  -0.00367296  -0.01165413
  7:  -0.00088187   0.00324438   0.00951426
  8:  -0.00962640   0.00534858  -0.00032530
  9:   0.01379286   0.01650991  -0.00380165
 10:  -0.00051302  -0.00018701   0.00568922
 11:  -0.00789572  -0.01635928   0.00054462
 12:   0.00680530  -0.00793055   0.00417532
 13:   0.00175346   0.00425691  -0.00001159
 14:  -0.01374088   0.00517356  -0.00186175
 15:   0.00316431  -0.00227067   0.00290819
 16:  -0.00081329   0.00145027  -0.00507256
 17:  -0.00350049  -0.00059065  -0.00039298
 18:   0.00246338   0.00229220  -0.00387094
 19:   0.00058848  -0.00061114   0.00147268
 20:  -0.00157205  -0.00415550   0.00349459
 21:   0.01033545   0.00800848   0.00114070
 22:  -0.00031242  -0.00142824   0.00056780
 23:  -0.00448766  -0.00897346  -0.00155141

-----------------------------------
NORM OF THE MP2 GRADIENT:  0.049734
-----------------------------------

-------------------------   --------------------
FINAL SINGLE POINT ENERGY      -610.597618782742
-------------------------   --------------------


                            ***************************************
                            *     ORCA property calculations      *
                            ***************************************

                                    ---------------------
                                    Active property flags
                                    ---------------------
   (+) Dipole Moment


------------------------------------------------------------------------------
                       ORCA ELECTRIC PROPERTIES CALCULATION
------------------------------------------------------------------------------

Dipole Moment Calculation                       ... on
Quadrupole Moment Calculation                   ... off
Polarizability Calculation                      ... off
GBWName                                         ... 12h2o.su.etal.mol0,2,3,4,6,8,10,11-orca.engrad-mp2.def2tzvp.frozencore.gbw
Electron density file                           ... 12h2o.su.etal.mol0,2,3,4,6,8,10,11-orca.engrad-mp2.def2tzvp.frozencore.scfp
The origin for moment calculation is the CENTER OF MASS  = ( 0.421741,  1.255236 -1.337225)

-------------
DIPOLE MOMENT
-------------
                                X             Y             Z
Electronic contribution:     -0.09204       0.13493      -0.03039
Nuclear contribution   :     -1.78297       0.22373       0.05351
                        -----------------------------------------
Total Dipole Moment    :     -1.87501       0.35866       0.02313
                        -----------------------------------------
Magnitude (a.u.)       :      1.90915
Magnitude (Debye)      :      4.85267



--------------------
Rotational spectrum 
--------------------
 
Rotational constants in cm-1:     0.040448     0.016821     0.014598 
Rotational constants in MHz :  1212.603902   504.275823   437.623341 

 Dipole components along the rotational axes: 
x,y,z [a.u.] :    -0.065895     1.880030     0.325558 
x,y,z [Debye]:    -0.167492     4.778657     0.827502 

 

                         *** MP2 UNRELAXED DENSITY ***

------------------------------------------------------------------------------
                       ORCA ELECTRIC PROPERTIES CALCULATION
------------------------------------------------------------------------------

Dipole Moment Calculation                       ... on
Quadrupole Moment Calculation                   ... off
Polarizability Calculation                      ... off
GBWName                                         ... 12h2o.su.etal.mol0,2,3,4,6,8,10,11-orca.engrad-mp2.def2tzvp.frozencore.gbw
Electron density file                           ... 12h2o.su.etal.mol0,2,3,4,6,8,10,11-orca.engrad-mp2.def2tzvp.frozencore.pmp2ur
The origin for moment calculation is the CENTER OF MASS  = ( 0.421741,  1.255236 -1.337225)

-------------
DIPOLE MOMENT
-------------
                                X             Y             Z
Electronic contribution:     -0.07567       0.13304      -0.03041
Nuclear contribution   :     -1.78297       0.22373       0.05351
                        -----------------------------------------
Total Dipole Moment    :     -1.85865       0.35677       0.02311
                        -----------------------------------------
Magnitude (a.u.)       :      1.89272
Magnitude (Debye)      :      4.81092



--------------------
Rotational spectrum 
--------------------
 
Rotational constants in cm-1:     0.040448     0.016821     0.014598 
Rotational constants in MHz :  1212.603902   504.275823   437.623341 

 Dipole components along the rotational axes: 
x,y,z [a.u.] :    -0.064786     1.864062     0.321672 
x,y,z [Debye]:    -0.164672     4.738069     0.817625 

 

                           *** MP2 RELAXED DENSITY ***

------------------------------------------------------------------------------
                       ORCA ELECTRIC PROPERTIES CALCULATION
------------------------------------------------------------------------------

Dipole Moment Calculation                       ... on
Quadrupole Moment Calculation                   ... off
Polarizability Calculation                      ... off
GBWName                                         ... 12h2o.su.etal.mol0,2,3,4,6,8,10,11-orca.engrad-mp2.def2tzvp.frozencore.gbw
Electron density file                           ... 12h2o.su.etal.mol0,2,3,4,6,8,10,11-orca.engrad-mp2.def2tzvp.frozencore.pmp2re
The origin for moment calculation is the CENTER OF MASS  = ( 0.421741,  1.255236 -1.337225)

-------------
DIPOLE MOMENT
-------------
                                X             Y             Z
Electronic contribution:     -0.07020       0.11536      -0.01979
Nuclear contribution   :     -1.78297       0.22373       0.05351
                        -----------------------------------------
Total Dipole Moment    :     -1.85318       0.33909       0.03373
                        -----------------------------------------
Magnitude (a.u.)       :      1.88425
Magnitude (Debye)      :      4.78938



--------------------
Rotational spectrum 
--------------------
 
Rotational constants in cm-1:     0.040448     0.016821     0.014598 
Rotational constants in MHz :  1212.603902   504.275823   437.623341 

 Dipole components along the rotational axes: 
x,y,z [a.u.] :    -0.059302     1.852588     0.338808 
x,y,z [Debye]:    -0.150734     4.708904     0.861182 

 

Timings for individual modules:

Sum of individual times         ...      194.392 sec (=   3.240 min)
GTO integral calculation        ...        1.005 sec (=   0.017 min)   0.5 %
SCF iterations                  ...       28.310 sec (=   0.472 min)  14.6 %
MP2 module                      ...      165.077 sec (=   2.751 min)  84.9 %
                             ****ORCA TERMINATED NORMALLY****
TOTAL RUN TIME: 0 days 0 hours 3 minutes 15 seconds 453 msec
