
                                 *****************
                                 * O   R   C   A *
                                 *****************

           --- An Ab Initio, DFT and Semiempirical electronic structure package ---

                  #######################################################
                  #                        -***-                        #
                  #          Department of theory and spectroscopy      #
                  #               Directorship: Frank Neese             #
                  #        Max Planck Institute fuer Kohlenforschung    #
                  #                Kaiser Wilhelm Platz 1               #
                  #                 D-45470 Muelheim/Ruhr               #
                  #                      Germany                        #
                  #                                                     #
                  #                  All rights reserved                #
                  #                        -***-                        #
                  #######################################################


                         Program Version 4.2.0 -  RELEASE  -


 With contributions from (in alphabetic order):
   Daniel Aravena         : Magnetic Suceptibility
   Michael Atanasov       : Ab Initio Ligand Field Theory (pilot matlab implementation)
   Alexander A. Auer      : GIAO ZORA, VPT2
   Ute Becker             : Parallelization
   Giovanni Bistoni       : ED, misc. LED, open-shell LED, HFLED
   Martin Brehm           : Molecular dynamics
   Dmytro Bykov           : SCF Hessian
   Vijay G. Chilkuri      : MRCI spin determinant printing, contributions to CSF-ICE
   Dipayan Datta          : RHF DLPNO-CCSD density
   Achintya Kumar Dutta   : EOM-CC, STEOM-CC
   Dmitry Ganyushin       : Spin-Orbit,Spin-Spin,Magnetic field MRCI
   Miquel Garcia          : C-PCM Hessian, Gaussian charge scheme
   Yang Guo               : DLPNO-NEVPT2, CIM, IAO-localization
   Andreas Hansen         : Spin unrestricted coupled pair/coupled cluster methods
   Benjamin Helmich-Paris : CASSCF linear response (MC-RPA)
   Lee Huntington         : MR-EOM, pCC
   Robert Izsak           : Overlap fitted RIJCOSX, COSX-SCS-MP3, EOM
   Christian Kollmar      : KDIIS, OOCD, Brueckner-CCSD(T), CCSD density
   Simone Kossmann        : Meta GGA functionals, TD-DFT gradient, OOMP2, MP2 Hessian
   Martin Krupicka        : AUTO-CI
   Lucas Lang             : DCDCAS
   Dagmar Lenk            : GEPOL surface, SMD
   Dimitrios Liakos       : Extrapolation schemes; Compound Job, initial MDCI parallelization
   Dimitrios Manganas     : Further ROCIS development; embedding schemes
   Dimitrios Pantazis     : SARC Basis sets
   Taras Petrenko         : DFT Hessian,TD-DFT gradient, ASA, ECA, R-Raman, ABS, FL, XAS/XES, NRVS
   Peter Pinski           : DLPNO-MP2, DLPNO-MP2 Gradient
   Christoph Reimann      : Effective Core Potentials
   Marius Retegan         : Local ZFS, SOC
   Christoph Riplinger    : Optimizer, TS searches, QM/MM, DLPNO-CCSD(T), (RO)-DLPNO pert. Triples
   Tobias Risthaus        : Range-separated hybrids, TD-DFT gradient, RPA, STAB
   Michael Roemelt        : Original ROCIS implementation
   Masaaki Saitow         : Open-shell DLPNO-CCSD energy and density
   Barbara Sandhoefer     : DKH picture change effects
   Avijit Sen             : IP-ROCIS
   Kantharuban Sivalingam : CASSCF convergence, NEVPT2, FIC-MRCI
   Bernardo de Souza      : ESD, SOC TD-DFT
   Georgi Stoychev        : AutoAux, RI-MP2 NMR
   Willem Van den Heuvel  : Paramagnetic NMR
   Boris Wezisla          : Elementary symmetry handling
   Frank Wennmohs         : Technical directorship


 We gratefully acknowledge several colleagues who have allowed us to
 interface, adapt or use parts of their codes:
   Stefan Grimme, W. Hujo, H. Kruse,             : VdW corrections, initial TS optimization,
                  C. Bannwarth                     DFT functionals, gCP, sTDA/sTD-DF
   Ed Valeev, F. Pavosevic, A. Kumar             : LibInt (2-el integral package), F12 methods
   Garnet Chan, S. Sharma, J. Yang, R. Olivares  : DMRG
   Ulf Ekstrom                                   : XCFun DFT Library
   Mihaly Kallay                                 : mrcc  (arbitrary order and MRCC methods)
   Andreas Klamt, Michael Diedenhofen            : otool_cosmo (COSMO solvation model)
   Jiri Pittner, Ondrej Demel                    : Mk-CCSD
   Frank Weinhold                                : gennbo (NPA and NBO analysis)
   Christopher J. Cramer and Donald G. Truhlar   : smd solvation model
   Lars Goerigk                                  : TD-DFT with DH, B97 family of functionals
   V. Asgeirsson, H. Jonsson                     : NEB implementation
   FAccTs GmbH                                   : IRC, NEB, NEB-TS, Multilevel, MM, QM/MM, CI optimization
   S Lehtola, MJT Oliveira, MAL Marques          : LibXC Library


 Your calculation uses the libint2 library for the computation of 2-el integrals
 For citations please refer to: http://libint.valeyev.net

 Your ORCA version has been built with support for libXC version: 4.2.3
 For citations please refer to: https://tddft.org/programs/libxc/

 This ORCA versions uses:
   CBLAS   interface :  Fast vector & matrix operations
   LAPACKE interface :  Fast linear algebra routines
   SCALAPACK package :  Parallel linear algebra routines


----- Orbital basis set information -----
Your calculation utilizes the basis: def2-TZVP
   F. Weigend and R. Ahlrichs, Phys. Chem. Chem. Phys. 7, 3297 (2005).

================================================================================
                                        WARNINGS
                       Please study these warnings very carefully!
================================================================================


WARNING: The frozen-core approximation for MP2-gradient calculations is turned on by default.

INFO   : the flag for use of LIBINT has been found!

================================================================================
                                       INPUT FILE
================================================================================
NAME = 12h2o.su.etal.mol0,1,4,5,10-orca.engrad-mp2.def2tzvp.frozencore.inp
|  1> # 12h2o.su.etal.mol0,1,4,5,10
|  2> ! MP2 def2-TZVP EnGrad TightSCF
|  3> 
|  4> %pal
|  5>     nprocs 6
|  6> end
|  7> 
|  8> %maxcore 8000
|  9> 
| 10> %scf
| 11>     ConvForced true
| 12> end
| 13> 
| 14> *xyz 0 1
| 15> O   1.794470000   0.923410000   2.768350000
| 16> H   2.338250000   1.359750000   3.430940000
| 17> H   0.879480000   1.303000000   2.865760000
| 18> O  -1.794470000  -0.923410000   2.768350000
| 19> H  -2.338250000  -1.359750000   3.430940000
| 20> H  -0.879480000  -1.303000000   2.865760000
| 21> O  -0.885520000   1.737840000   0.052730000
| 22> H  -1.032320000   2.090180000  -0.841890000
| 23> H  -1.284090000   0.839590000   0.017130000
| 24> O   0.885520000  -1.737840000   0.052730000
| 25> H   1.284090000  -0.839590000   0.017130000
| 26> H   1.032320000  -2.090180000  -0.841890000
| 27> O  -0.923410000   1.794470000  -2.768350000
| 28> H  -1.359750000   2.338250000  -3.430940000
| 29> H  -1.303000000   0.879480000  -2.865760000
| 30> *
| 31> 
| 32>                          ****END OF INPUT****
================================================================================

                     *******************************
                     * Energy+Gradient Calculation *
                     *******************************

---------------------------------
CARTESIAN COORDINATES (ANGSTROEM)
---------------------------------
  O      1.794470    0.923410    2.768350
  H      2.338250    1.359750    3.430940
  H      0.879480    1.303000    2.865760
  O     -1.794470   -0.923410    2.768350
  H     -2.338250   -1.359750    3.430940
  H     -0.879480   -1.303000    2.865760
  O     -0.885520    1.737840    0.052730
  H     -1.032320    2.090180   -0.841890
  H     -1.284090    0.839590    0.017130
  O      0.885520   -1.737840    0.052730
  H      1.284090   -0.839590    0.017130
  H      1.032320   -2.090180   -0.841890
  O     -0.923410    1.794470   -2.768350
  H     -1.359750    2.338250   -3.430940
  H     -1.303000    0.879480   -2.865760

----------------------------
CARTESIAN COORDINATES (A.U.)
----------------------------
  NO LB      ZA    FRAG     MASS         X           Y           Z
   0 O     8.0000    0    15.999    3.391057    1.744992    5.231423
   1 H     1.0000    0     1.008    4.418652    2.569555    6.483537
   2 H     1.0000    0     1.008    1.661976    2.462313    5.415502
   3 O     8.0000    0    15.999   -3.391057   -1.744992    5.231423
   4 H     1.0000    0     1.008   -4.418652   -2.569555    6.483537
   5 H     1.0000    0     1.008   -1.661976   -2.462313    5.415502
   6 O     8.0000    0    15.999   -1.673390    3.284042    0.099645
   7 H     1.0000    0     1.008   -1.950802    3.949868   -1.590942
   8 H     1.0000    0     1.008   -2.426578    1.586595    0.032371
   9 O     8.0000    0    15.999    1.673390   -3.284042    0.099645
  10 H     1.0000    0     1.008    2.426578   -1.586595    0.032371
  11 H     1.0000    0     1.008    1.950802   -3.949868   -1.590942
  12 O     8.0000    0    15.999   -1.744992    3.391057   -5.231423
  13 H     1.0000    0     1.008   -2.569555    4.418652   -6.483537
  14 H     1.0000    0     1.008   -2.462313    1.661976   -5.415502

--------------------------------
INTERNAL COORDINATES (ANGSTROEM)
--------------------------------
 O      0   0   0     0.000000000000     0.00000000     0.00000000
 H      1   0   0     0.961828878803     0.00000000     0.00000000
 H      1   2   0     0.995381322057   106.21731035     0.00000000
 O      3   1   2     3.480861789658   117.35405144   223.81249033
 H      4   3   1     0.961828878803   134.84484566    98.22461471
 H      4   3   1     0.995381322057    62.29205096    12.66575463
 O      3   1   2     3.349245975813   116.85538783   143.82107740
 H      7   3   1     0.972645187106   154.03893681   304.15813038
 H      7   3   1     0.983350632989    97.20424340    87.67157074
 O      6   4   3     3.349245975813   116.85538783   276.41377787
 H     10   6   4     0.983350632989    97.20424340    87.67157074
 H     10   6   4     0.972645187106   154.03893681   304.15813038
 O      8   7   3     1.952064016317   147.60984291    95.04037974
 H     13   8   7     0.961828878803   124.67322417   165.49513251
 H     13   8   7     0.995381322057   102.38931089    45.51897547

---------------------------
INTERNAL COORDINATES (A.U.)
---------------------------
 O      0   0   0     0.000000000000     0.00000000     0.00000000
 H      1   0   0     1.817593168635     0.00000000     0.00000000
 H      1   2   0     1.880998097508   106.21731035     0.00000000
 O      3   1   2     6.577875492484   117.35405144   223.81249033
 H      4   3   1     1.817593168635   134.84484566    98.22461471
 H      4   3   1     1.880998097508    62.29205096    12.66575463
 O      3   1   2     6.329157649425   116.85538783   143.82107740
 H      7   3   1     1.838033029106   154.03893681   304.15813038
 H      7   3   1     1.858263389967    97.20424340    87.67157074
 O      6   4   3     6.329157649425   116.85538783   276.41377787
 H     10   6   4     1.858263389967    97.20424340    87.67157074
 H     10   6   4     1.838033029106   154.03893681   304.15813038
 O      8   7   3     3.688866386722   147.60984291    95.04037974
 H     13   8   7     1.817593168635   124.67322417   165.49513251
 H     13   8   7     1.880998097508   102.38931089    45.51897547

---------------------
BASIS SET INFORMATION
---------------------
There are 2 groups of distinct atoms

 Group   1 Type O   : 11s6p2d1f contracted to 5s3p2d1f pattern {62111/411/11/1}
 Group   2 Type H   : 5s1p contracted to 3s1p pattern {311/1}

Atom   0O    basis set group =>   1
Atom   1H    basis set group =>   2
Atom   2H    basis set group =>   2
Atom   3O    basis set group =>   1
Atom   4H    basis set group =>   2
Atom   5H    basis set group =>   2
Atom   6O    basis set group =>   1
Atom   7H    basis set group =>   2
Atom   8H    basis set group =>   2
Atom   9O    basis set group =>   1
Atom  10H    basis set group =>   2
Atom  11H    basis set group =>   2
Atom  12O    basis set group =>   1
Atom  13H    basis set group =>   2
Atom  14H    basis set group =>   2


           ************************************************************
           *        Program running with 6 parallel MPI-processes     *
           *              working on a common directory               *
           ************************************************************
------------------------------------------------------------------------------
                           ORCA GTO INTEGRAL CALCULATION
------------------------------------------------------------------------------

                         BASIS SET STATISTICS AND STARTUP INFO

 # of primitive gaussian shells          ...  160
 # of primitive gaussian functions       ...  310
 # of contracted shells                  ...   95
 # of contracted basis functions         ...  215
 Highest angular momentum                ...    3
 Maximum contraction depth               ...    6
 Integral package used                   ... LIBINT
 Integral threshhold            Thresh   ...  2.500e-11
 Primitive cut-off              TCut     ...  2.500e-12


------------------------------ INTEGRAL EVALUATION ----------------------------


 * One electron integrals 
 Pre-screening matrix                    ... done
 Shell pair data                         ... done (   0.001 sec)



           ************************************************************
           *        Program running with 6 parallel MPI-processes     *
           *              working on a common directory               *
           ************************************************************
-------------------------------------------------------------------------------
                                 ORCA SCF
-------------------------------------------------------------------------------

------------
SCF SETTINGS
------------
Hamiltonian:
 Ab initio Hamiltonian  Method          .... Hartree-Fock(GTOs)


General Settings:
 Integral files         IntName         .... 12h2o.su.etal.mol0,1,4,5,10-orca.engrad-mp2.def2tzvp.frozencore
 Hartree-Fock type      HFTyp           .... RHF
 Total Charge           Charge          ....    0
 Multiplicity           Mult            ....    1
 Number of Electrons    NEL             ....   50
 Basis Dimension        Dim             ....  215
 Nuclear Repulsion      ENuc            ....    171.1385907502 Eh

Convergence Acceleration:
 DIIS                   CNVDIIS         .... on
   Start iteration      DIISMaxIt       ....    12
   Startup error        DIISStart       ....  0.200000
   # of expansion vecs  DIISMaxEq       ....     5
   Bias factor          DIISBfac        ....   1.050
   Max. coefficient     DIISMaxC        ....  10.000
 Newton-Raphson         CNVNR           .... off
 SOSCF                  CNVSOSCF        .... on
   Start iteration      SOSCFMaxIt      ....   150
   Startup grad/error   SOSCFStart      ....  0.003300
 Level Shifting         CNVShift        .... on
   Level shift para.    LevelShift      ....    0.2500
   Turn off err/grad.   ShiftErr        ....    0.0010
 Zerner damping         CNVZerner       .... off
 Static damping         CNVDamp         .... on
   Fraction old density DampFac         ....    0.7000
   Max. Damping (<1)    DampMax         ....    0.9800
   Min. Damping (>=0)   DampMin         ....    0.0000
   Turn off err/grad.   DampErr         ....    0.1000
 Fernandez-Rico         CNVRico         .... off

SCF Procedure:
 Maximum # iterations   MaxIter         ....   125
 SCF integral mode      SCFMode         .... Direct
   Integral package                     .... LIBINT
 Reset frequency        DirectResetFreq ....    20
 Integral Threshold     Thresh          ....  2.500e-11 Eh
 Primitive CutOff       TCut            ....  2.500e-12 Eh

Convergence Tolerance:
 Convergence Check Mode ConvCheckMode   .... Total+1el-Energy
 Convergence forced     ConvForced      .... 1
 Energy Change          TolE            ....  1.000e-08 Eh
 1-El. energy change                    ....  1.000e-05 Eh
 Orbital Gradient       TolG            ....  1.000e-05
 Orbital Rotation angle TolX            ....  1.000e-05
 DIIS Error             TolErr          ....  5.000e-07


Diagonalization of the overlap matrix:
Smallest eigenvalue                        ... 8.137e-03
Time for diagonalization                   ...    0.009 sec
Threshold for overlap eigenvalues          ... 1.000e-08
Number of eigenvalues below threshold      ... 0
Time for construction of square roots      ...    0.006 sec
Total time needed                          ...    0.015 sec

-------------------
DFT GRID GENERATION
-------------------

General Integration Accuracy     IntAcc      ...  4.340
Radial Grid Type                 RadialGrid  ... Gauss-Chebyshev
Angular Grid (max. acc.)         AngularGrid ... Lebedev-110
Angular grid pruning method      GridPruning ... 3 (G Style)
Weight generation scheme         WeightScheme... Becke
Basis function cutoff            BFCut       ...    1.0000e-11
Integration weight cutoff        WCut        ...    1.0000e-14
Grids for H and He will be reduced by one unit

# of grid points (after initial pruning)     ...  16520 (   0.0 sec)
# of grid points (after weights+screening)   ...  15925 (   0.0 sec)
nearest neighbour list constructed           ...    0.0 sec
Grid point re-assignment to atoms done       ...    0.0 sec
Grid point division into batches done        ...    0.0 sec
Reduced shell lists constructed in    0.0 sec

Total number of grid points                  ...    15925
Total number of batches                      ...      257
Average number of points per batch           ...       61
Average number of grid points per atom       ...     1062
Average number of shells per batch           ...    42.23 (44.45%)
Average number of basis functions per batch  ...    83.82 (38.99%)
Average number of large shells per batch     ...    29.55 (69.97%)
Average number of large basis fcns per batch ...    59.45 (70.93%)
Maximum spatial batch extension              ...  14.53, 18.30, 17.80 au
Average spatial batch extension              ...   0.69,  0.81,  0.72 au

Time for grid setup =    0.042 sec

------------------------------
INITIAL GUESS: MODEL POTENTIAL
------------------------------
Loading Hartree-Fock densities                     ... done
Calculating cut-offs                               ... done
Setting up the integral package                    ... done
Initializing the effective Hamiltonian             ... done
Starting the Coulomb interaction                   ... done (   0.0 sec)
Reading the grid                                   ... done
Mapping shells                                     ... done
Starting the XC term evaluation                    ... done (   0.0 sec)
Transforming the Hamiltonian                       ... done (   0.0 sec)
Diagonalizing the Hamiltonian                      ... done (   0.0 sec)
Back transforming the eigenvectors                 ... done (   0.0 sec)
Now organizing SCF variables                       ... done
                      ------------------
                      INITIAL GUESS DONE (   0.1 sec)
                      ------------------
--------------
SCF ITERATIONS
--------------
ITER       Energy         Delta-E        Max-DP      RMS-DP      [F,P]     Damp
               ***  Starting incremental Fock matrix formation  ***
  0   -379.8047725235   0.000000000000 0.04344308  0.00109329  0.3451053 0.7000
  1   -379.9991877305  -0.194415207045 0.02851853  0.00075080  0.2162531 0.7000
                               ***Turning on DIIS***
  2   -380.1003979136  -0.101210183089 0.01642979  0.00040888  0.1638032 0.7000
  3   -380.9891546401  -0.888756726508 0.00768821  0.00017539  0.1218543 0.7000
  4   -380.8056029120   0.183551728135 0.01721522  0.00040098  0.0861967 0.0000
  5   -380.3353452355   0.470257676494 0.00190951  0.00006542  0.0054681 0.0000
                      *** Initiating the SOSCF procedure ***
                           *** Shutting down DIIS ***
                      *** Re-Reading the Fockian *** 
                      *** Removing any level shift *** 
ITER      Energy       Delta-E        Grad      Rot      Max-DP    RMS-DP
  6   -380.30422152   0.0311237195  0.000895  0.000895  0.001002  0.000039
               *** Restarting incremental Fock matrix formation ***
  7   -380.29370938   0.0105121346  0.000333  0.000473  0.000452  0.000017
  8   -380.29371645  -0.0000070668  0.000136  0.000376  0.000427  0.000014
  9   -380.29371810  -0.0000016494  0.000049  0.000045  0.000076  0.000002
 10   -380.29371824  -0.0000001404  0.000009  0.000007  0.000014  0.000000
                  ***Gradient check signals convergence***
              ***Rediagonalizing the Fockian in SOSCF/NRSCF***

               *****************************************************
               *                     SUCCESS                       *
               *           SCF CONVERGED AFTER  11 CYCLES          *
               *****************************************************


----------------
TOTAL SCF ENERGY
----------------

Total Energy       :         -380.29371824 Eh          -10348.31817 eV

Components:
Nuclear Repulsion  :          171.13859075 Eh            4656.91781 eV
Electronic Energy  :         -551.43230899 Eh          -15005.23598 eV
One Electron Energy:         -866.51302641 Eh          -23579.01818 eV
Two Electron Energy:          315.08071742 Eh            8573.78220 eV

Virial components:
Potential Energy   :         -759.91973024 Eh          -20678.46713 eV
Kinetic Energy     :          379.62601200 Eh           10330.14896 eV
Virial Ratio       :            2.00175885


---------------
SCF CONVERGENCE
---------------

  Last Energy change         ...   -3.1274e-09  Tolerance :   1.0000e-08
  Last MAX-Density change    ...    4.1225e-06  Tolerance :   1.0000e-07
  Last RMS-Density change    ...    1.3289e-07  Tolerance :   5.0000e-09
  Last Orbital Gradient      ...    1.8718e-06  Tolerance :   1.0000e-05
  Last Orbital Rotation      ...    2.3647e-06  Tolerance :   1.0000e-05

             **** THE GBW FILE WAS UPDATED (12h2o.su.etal.mol0,1,4,5,10-orca.engrad-mp2.def2tzvp.frozencore.gbw) ****
             **** DENSITY FILE WAS UPDATED (12h2o.su.etal.mol0,1,4,5,10-orca.engrad-mp2.def2tzvp.frozencore.scfp) ****
             **** ENERGY FILE WAS UPDATED (12h2o.su.etal.mol0,1,4,5,10-orca.engrad-mp2.def2tzvp.frozencore.en.tmp) ****
             **** THE GBW FILE WAS UPDATED (12h2o.su.etal.mol0,1,4,5,10-orca.engrad-mp2.def2tzvp.frozencore.gbw) ****
             **** DENSITY FILE WAS UPDATED (12h2o.su.etal.mol0,1,4,5,10-orca.engrad-mp2.def2tzvp.frozencore.scfp) ****
----------------
ORBITAL ENERGIES
----------------

  NO   OCC          E(Eh)            E(eV) 
   0   2.0000     -20.589297      -560.2632 
   1   2.0000     -20.550214      -559.1998 
   2   2.0000     -20.548614      -559.1562 
   3   2.0000     -20.546227      -559.0912 
   4   2.0000     -20.522323      -558.4408 
   5   2.0000      -1.367099       -37.2006 
   6   2.0000      -1.326245       -36.0890 
   7   2.0000      -1.323971       -36.0271 
   8   2.0000      -1.321569       -35.9617 
   9   2.0000      -1.301318       -35.4107 
  10   2.0000      -0.734048       -19.9744 
  11   2.0000      -0.692990       -18.8572 
  12   2.0000      -0.688995       -18.7485 
  13   2.0000      -0.687412       -18.7054 
  14   2.0000      -0.671293       -18.2668 
  15   2.0000      -0.602743       -16.4015 
  16   2.0000      -0.566372       -15.4118 
  17   2.0000      -0.560628       -15.2555 
  18   2.0000      -0.558458       -15.1964 
  19   2.0000      -0.553433       -15.0597 
  20   2.0000      -0.519803       -14.1446 
  21   2.0000      -0.494041       -13.4435 
  22   2.0000      -0.491842       -13.3837 
  23   2.0000      -0.489218       -13.3123 
  24   2.0000      -0.467685       -12.7264 
  25   0.0000       0.100807         2.7431 
  26   0.0000       0.126425         3.4402 
  27   0.0000       0.149289         4.0624 
  28   0.0000       0.156559         4.2602 
  29   0.0000       0.182868         4.9761 
  30   0.0000       0.205321         5.5871 
  31   0.0000       0.228206         6.2098 
  32   0.0000       0.237116         6.4522 
  33   0.0000       0.241858         6.5813 
  34   0.0000       0.284277         7.7356 
  35   0.0000       0.475231        12.9317 
  36   0.0000       0.499299        13.5866 
  37   0.0000       0.522173        14.2091 
  38   0.0000       0.537565        14.6279 
  39   0.0000       0.541467        14.7341 
  40   0.0000       0.551234        14.9998 
  41   0.0000       0.570737        15.5306 
  42   0.0000       0.582215        15.8429 
  43   0.0000       0.590460        16.0672 
  44   0.0000       0.604367        16.4456 
  45   0.0000       0.615172        16.7397 
  46   0.0000       0.618135        16.8203 
  47   0.0000       0.635576        17.2949 
  48   0.0000       0.637357        17.3434 
  49   0.0000       0.652535        17.7564 
  50   0.0000       0.661019        17.9872 
  51   0.0000       0.707374        19.2486 
  52   0.0000       0.715018        19.4566 
  53   0.0000       0.723044        19.6750 
  54   0.0000       0.731864        19.9150 
  55   0.0000       0.764972        20.8160 
  56   0.0000       0.772738        21.0273 
  57   0.0000       0.788627        21.4596 
  58   0.0000       0.802884        21.8476 
  59   0.0000       0.818031        22.2598 
  60   0.0000       0.820208        22.3190 
  61   0.0000       0.843773        22.9602 
  62   0.0000       0.889178        24.1958 
  63   0.0000       0.897854        24.4319 
  64   0.0000       0.928655        25.2700 
  65   0.0000       1.388071        37.7713 
  66   0.0000       1.409423        38.3523 
  67   0.0000       1.423881        38.7458 
  68   0.0000       1.439994        39.1842 
  69   0.0000       1.443694        39.2849 
  70   0.0000       1.449588        39.4453 
  71   0.0000       1.450913        39.4813 
  72   0.0000       1.455529        39.6070 
  73   0.0000       1.459068        39.7033 
  74   0.0000       1.490517        40.5590 
  75   0.0000       1.550324        42.1865 
  76   0.0000       1.560068        42.4516 
  77   0.0000       1.569264        42.7018 
  78   0.0000       1.572081        42.7785 
  79   0.0000       1.641270        44.6612 
  80   0.0000       1.804187        49.0944 
  81   0.0000       1.814507        49.3753 
  82   0.0000       1.841845        50.1192 
  83   0.0000       1.850357        50.3508 
  84   0.0000       1.866629        50.7936 
  85   0.0000       1.906010        51.8652 
  86   0.0000       1.916125        52.1404 
  87   0.0000       1.922260        52.3073 
  88   0.0000       1.932150        52.5765 
  89   0.0000       1.975844        53.7655 
  90   0.0000       2.014927        54.8290 
  91   0.0000       2.023820        55.0709 
  92   0.0000       2.031678        55.2848 
  93   0.0000       2.039689        55.5028 
  94   0.0000       2.118100        57.6364 
  95   0.0000       2.277755        61.9809 
  96   0.0000       2.310240        62.8648 
  97   0.0000       2.320367        63.1404 
  98   0.0000       2.323633        63.2293 
  99   0.0000       2.332740        63.4771 
 100   0.0000       2.339655        63.6652 
 101   0.0000       2.345482        63.8238 
 102   0.0000       2.350509        63.9606 
 103   0.0000       2.362923        64.2984 
 104   0.0000       2.380095        64.7657 
 105   0.0000       2.387506        64.9673 
 106   0.0000       2.400254        65.3142 
 107   0.0000       2.404060        65.4178 
 108   0.0000       2.406993        65.4976 
 109   0.0000       2.487687        67.6934 
 110   0.0000       2.562584        69.7315 
 111   0.0000       2.601858        70.8002 
 112   0.0000       2.608374        70.9775 
 113   0.0000       2.616258        71.1920 
 114   0.0000       2.655992        72.2732 
 115   0.0000       2.689403        73.1824 
 116   0.0000       2.696880        73.3858 
 117   0.0000       2.722163        74.0738 
 118   0.0000       2.728264        74.2398 
 119   0.0000       2.747410        74.7608 
 120   0.0000       2.889931        78.6390 
 121   0.0000       2.914344        79.3033 
 122   0.0000       2.941070        80.0306 
 123   0.0000       2.948777        80.2403 
 124   0.0000       2.954216        80.3883 
 125   0.0000       2.963752        80.6478 
 126   0.0000       2.993048        81.4450 
 127   0.0000       2.999466        81.6196 
 128   0.0000       3.012052        81.9621 
 129   0.0000       3.024751        82.3077 
 130   0.0000       3.033535        82.5467 
 131   0.0000       3.058370        83.2225 
 132   0.0000       3.071941        83.5918 
 133   0.0000       3.082960        83.8916 
 134   0.0000       3.144670        85.5708 
 135   0.0000       3.163078        86.0717 
 136   0.0000       3.173109        86.3447 
 137   0.0000       3.199857        87.0725 
 138   0.0000       3.227336        87.8203 
 139   0.0000       3.286001        89.4166 
 140   0.0000       3.971345       108.0658 
 141   0.0000       4.000113       108.8486 
 142   0.0000       4.006372       109.0189 
 143   0.0000       4.034337       109.7799 
 144   0.0000       4.079739       111.0153 
 145   0.0000       4.285404       116.6118 
 146   0.0000       4.309347       117.2633 
 147   0.0000       4.327369       117.7537 
 148   0.0000       4.329459       117.8106 
 149   0.0000       4.344631       118.2234 
 150   0.0000       5.528041       150.4257 
 151   0.0000       5.561201       151.3280 
 152   0.0000       5.565144       151.4353 
 153   0.0000       5.567373       151.4959 
 154   0.0000       5.586077       152.0049 
 155   0.0000       5.613847       152.7605 
 156   0.0000       5.655627       153.8974 
 157   0.0000       5.657880       153.9587 
 158   0.0000       5.665430       154.1642 
 159   0.0000       5.693246       154.9211 
 160   0.0000       5.788262       157.5066 
 161   0.0000       5.826334       158.5426 
 162   0.0000       5.827963       158.5869 
 163   0.0000       5.829665       158.6333 
 164   0.0000       5.830688       158.6611 
 165   0.0000       5.856698       159.3689 
 166   0.0000       5.861991       159.5129 
 167   0.0000       5.864220       159.5735 
 168   0.0000       5.866555       159.6371 
 169   0.0000       5.891338       160.3115 
 170   0.0000       5.900572       160.5627 
 171   0.0000       5.903325       160.6376 
 172   0.0000       5.931996       161.4178 
 173   0.0000       5.932941       161.4435 
 174   0.0000       5.935917       161.5245 
 175   0.0000       6.405239       174.2954 
 176   0.0000       6.445160       175.3817 
 177   0.0000       6.450343       175.5228 
 178   0.0000       6.481631       176.3741 
 179   0.0000       6.505269       177.0174 
 180   0.0000       6.670163       181.5044 
 181   0.0000       6.694585       182.1689 
 182   0.0000       6.713199       182.6754 
 183   0.0000       6.715571       182.7400 
 184   0.0000       6.716010       182.7519 
 185   0.0000       6.836227       186.0232 
 186   0.0000       6.838519       186.0856 
 187   0.0000       6.841512       186.1670 
 188   0.0000       6.860832       186.6927 
 189   0.0000       6.868033       186.8887 
 190   0.0000       6.891117       187.5168 
 191   0.0000       6.896895       187.6741 
 192   0.0000       6.898513       187.7181 
 193   0.0000       6.904826       187.8899 
 194   0.0000       6.907157       187.9533 
 195   0.0000       6.938546       188.8074 
 196   0.0000       6.940822       188.8694 
 197   0.0000       6.947956       189.0635 
 198   0.0000       6.958789       189.3583 
 199   0.0000       6.995744       190.3639 
 200   0.0000       7.352400       200.0690 
 201   0.0000       7.362717       200.3497 
 202   0.0000       7.387259       201.0175 
 203   0.0000       7.394950       201.2268 
 204   0.0000       7.406373       201.5377 
 205   0.0000       7.468209       203.2203 
 206   0.0000       7.505382       204.2318 
 207   0.0000       7.515177       204.4984 
 208   0.0000       7.528853       204.8705 
 209   0.0000       7.596795       206.7193 
 210   0.0000      44.828597      1219.8481 
 211   0.0000      44.834093      1219.9977 
 212   0.0000      44.844332      1220.2763 
 213   0.0000      44.880445      1221.2590 
 214   0.0000      44.959112      1223.3996 

                    ********************************
                    * MULLIKEN POPULATION ANALYSIS *
                    ********************************

-----------------------
MULLIKEN ATOMIC CHARGES
-----------------------
   0 O :   -0.711770
   1 H :    0.340990
   2 H :    0.370979
   3 O :   -0.709640
   4 H :    0.340904
   5 H :    0.368989
   6 O :   -0.726486
   7 H :    0.377416
   8 H :    0.343018
   9 O :   -0.707394
  10 H :    0.370192
  11 H :    0.336339
  12 O :   -0.712495
  13 H :    0.359354
  14 H :    0.359604
Sum of atomic charges:   -0.0000000

--------------------------------
MULLIKEN REDUCED ORBITAL CHARGES
--------------------------------
  0 O s       :     3.814333  s :     3.814333
      pz      :     1.718728  p :     4.870581
      px      :     1.358671
      py      :     1.793182
      dz2     :     0.004410  d :     0.025309
      dxz     :     0.004878
      dyz     :     0.005848
      dx2y2   :     0.002510
      dxy     :     0.007662
      f0      :     0.000091  f :     0.001547
      f+1     :     0.000344
      f-1     :     0.000194
      f+2     :     0.000070
      f-2     :     0.000359
      f+3     :     0.000098
      f-3     :     0.000390
  1 H s       :     0.613032  s :     0.613032
      pz      :     0.017284  p :     0.045978
      px      :     0.013554
      py      :     0.015140
  2 H s       :     0.587086  s :     0.587086
      pz      :     0.011120  p :     0.041934
      px      :     0.017932
      py      :     0.012881
  3 O s       :     3.814620  s :     3.814620
      pz      :     1.718086  p :     4.868086
      px      :     1.357030
      py      :     1.792970
      dz2     :     0.004404  d :     0.025388
      dxz     :     0.004857
      dyz     :     0.005887
      dx2y2   :     0.002511
      dxy     :     0.007730
      f0      :     0.000091  f :     0.001546
      f+1     :     0.000344
      f-1     :     0.000193
      f+2     :     0.000070
      f-2     :     0.000358
      f+3     :     0.000098
      f-3     :     0.000391
  4 H s       :     0.613128  s :     0.613128
      pz      :     0.017250  p :     0.045969
      px      :     0.013577
      py      :     0.015142
  5 H s       :     0.589018  s :     0.589018
      pz      :     0.011158  p :     0.041993
      px      :     0.017909
      py      :     0.012926
  6 O s       :     3.812647  s :     3.812647
      pz      :     1.576476  p :     4.887066
      px      :     1.871997
      py      :     1.438593
      dz2     :     0.011156  d :     0.025306
      dxz     :     0.002638
      dyz     :     0.002877
      dx2y2   :     0.003181
      dxy     :     0.005454
      f0      :     0.000166  f :     0.001467
      f+1     :     0.000125
      f-1     :     0.000444
      f+2     :     0.000078
      f-2     :     0.000040
      f+3     :     0.000486
      f-3     :     0.000128
  7 H s       :     0.573447  s :     0.573447
      pz      :     0.024273  p :     0.049137
      px      :     0.013525
      py      :     0.011339
  8 H s       :     0.613153  s :     0.613153
      pz      :     0.010378  p :     0.043829
      px      :     0.015283
      py      :     0.018168
  9 O s       :     3.818174  s :     3.818174
      pz      :     1.521019  p :     4.861444
      px      :     1.875195
      py      :     1.465231
      dz2     :     0.011839  d :     0.026263
      dxz     :     0.002715
      dyz     :     0.003020
      dx2y2   :     0.003233
      dxy     :     0.005456
      f0      :     0.000185  f :     0.001513
      f+1     :     0.000131
      f-1     :     0.000458
      f+2     :     0.000078
      f-2     :     0.000042
      f+3     :     0.000490
      f-3     :     0.000128
 10 H s       :     0.586656  s :     0.586656
      pz      :     0.009875  p :     0.043152
      px      :     0.014713
      py      :     0.018564
 11 H s       :     0.618688  s :     0.618688
      pz      :     0.018496  p :     0.044973
      px      :     0.014390
      py      :     0.012088
 12 O s       :     3.810763  s :     3.810763
      pz      :     1.718577  p :     4.875286
      px      :     1.802085
      py      :     1.354624
      dz2     :     0.004087  d :     0.024926
      dxz     :     0.005864
      dyz     :     0.004399
      dx2y2   :     0.002514
      dxy     :     0.008062
      f0      :     0.000084  f :     0.001520
      f+1     :     0.000187
      f-1     :     0.000331
      f+2     :     0.000071
      f-2     :     0.000351
      f+3     :     0.000397
      f-3     :     0.000100
 13 H s       :     0.595169  s :     0.595169
      pz      :     0.017004  p :     0.045476
      px      :     0.014945
      py      :     0.013527
 14 H s       :     0.598579  s :     0.598579
      pz      :     0.010896  p :     0.041817
      px      :     0.013171
      py      :     0.017750


                     *******************************
                     * LOEWDIN POPULATION ANALYSIS *
                     *******************************

----------------------
LOEWDIN ATOMIC CHARGES
----------------------
   0 O :   -0.341698
   1 H :    0.154688
   2 H :    0.187077
   3 O :   -0.340799
   4 H :    0.154649
   5 H :    0.186325
   6 O :   -0.349898
   7 H :    0.152336
   8 H :    0.166010
   9 O :   -0.340232
  10 H :    0.179254
  11 H :    0.160450
  12 O :   -0.314241
  13 H :    0.162047
  14 H :    0.184033

-------------------------------
LOEWDIN REDUCED ORBITAL CHARGES
-------------------------------
  0 O s       :     3.474926  s :     3.474926
      pz      :     1.704983  p :     4.832296
      px      :     1.354911
      py      :     1.772402
      dz2     :     0.004922  d :     0.032353
      dxz     :     0.007429
      dyz     :     0.006007
      dx2y2   :     0.003833
      dxy     :     0.010162
      f0      :     0.000078  f :     0.002124
      f+1     :     0.000459
      f-1     :     0.000279
      f+2     :     0.000036
      f-2     :     0.000631
      f+3     :     0.000092
      f-3     :     0.000549
  1 H s       :     0.682562  s :     0.682562
      pz      :     0.066012  p :     0.162751
      px      :     0.043882
      py      :     0.052856
  2 H s       :     0.664920  s :     0.664920
      pz      :     0.033134  p :     0.148003
      px      :     0.071428
      py      :     0.043441
  3 O s       :     3.475143  s :     3.475143
      pz      :     1.704941  p :     4.831054
      px      :     1.354175
      py      :     1.771939
      dz2     :     0.004931  d :     0.032475
      dxz     :     0.007411
      dyz     :     0.006048
      dx2y2   :     0.003839
      dxy     :     0.010246
      f0      :     0.000078  f :     0.002127
      f+1     :     0.000460
      f-1     :     0.000279
      f+2     :     0.000036
      f-2     :     0.000631
      f+3     :     0.000092
      f-3     :     0.000551
  4 H s       :     0.682604  s :     0.682604
      pz      :     0.066008  p :     0.162747
      px      :     0.043864
      py      :     0.052875
  5 H s       :     0.665743  s :     0.665743
      pz      :     0.033162  p :     0.147932
      px      :     0.071306
      py      :     0.043465
  6 O s       :     3.472328  s :     3.472328
      pz      :     1.566985  p :     4.843737
      px      :     1.832010
      py      :     1.444742
      dz2     :     0.014434  d :     0.031749
      dxz     :     0.001703
      dyz     :     0.004032
      dx2y2   :     0.004478
      dxy     :     0.007103
      f0      :     0.000349  f :     0.002085
      f+1     :     0.000202
      f-1     :     0.000723
      f+2     :     0.000045
      f-2     :     0.000042
      f+3     :     0.000647
      f-3     :     0.000075
  7 H s       :     0.676648  s :     0.676648
      pz      :     0.092341  p :     0.171016
      px      :     0.043020
      py      :     0.035655
  8 H s       :     0.680456  s :     0.680456
      pz      :     0.030460  p :     0.153535
      px      :     0.049381
      py      :     0.073693
  9 O s       :     3.479137  s :     3.479137
      pz      :     1.536234  p :     4.825755
      px      :     1.834507
      py      :     1.455014
      dz2     :     0.015795  d :     0.033177
      dxz     :     0.001845
      dyz     :     0.004511
      dx2y2   :     0.004250
      dxy     :     0.006775
      f0      :     0.000395  f :     0.002162
      f+1     :     0.000208
      f-1     :     0.000767
      f+2     :     0.000050
      f-2     :     0.000045
      f+3     :     0.000624
      f-3     :     0.000072
 10 H s       :     0.667389  s :     0.667389
      pz      :     0.028763  p :     0.153357
      px      :     0.049180
      py      :     0.075415
 11 H s       :     0.682174  s :     0.682174
      pz      :     0.078865  p :     0.157376
      px      :     0.043283
      py      :     0.035228
 12 O s       :     3.469603  s :     3.469603
      pz      :     1.682625  p :     4.809902
      px      :     1.774669
      py      :     1.352607
      dz2     :     0.005485  d :     0.032616
      dxz     :     0.005865
      dyz     :     0.006856
      dx2y2   :     0.003932
      dxy     :     0.010478
      f0      :     0.000091  f :     0.002121
      f+1     :     0.000274
      f-1     :     0.000454
      f+2     :     0.000036
      f-2     :     0.000609
      f+3     :     0.000564
      f-3     :     0.000094
 13 H s       :     0.674555  s :     0.674555
      pz      :     0.066487  p :     0.163398
      px      :     0.052811
      py      :     0.044100
 14 H s       :     0.668069  s :     0.668069
      pz      :     0.033506  p :     0.147898
      px      :     0.043628
      py      :     0.070765


                      *****************************
                      * MAYER POPULATION ANALYSIS *
                      *****************************

  NA   - Mulliken gross atomic population
  ZA   - Total nuclear charge
  QA   - Mulliken gross atomic charge
  VA   - Mayer's total valence
  BVA  - Mayer's bonded valence
  FA   - Mayer's free valence

  ATOM       NA         ZA         QA         VA         BVA        FA
  0 O      8.7118     8.0000    -0.7118     1.7642     1.7642     0.0000
  1 H      0.6590     1.0000     0.3410     0.8984     0.8984     0.0000
  2 H      0.6290     1.0000     0.3710     0.8770     0.8770     0.0000
  3 O      8.7096     8.0000    -0.7096     1.7656     1.7656    -0.0000
  4 H      0.6591     1.0000     0.3409     0.8984     0.8984     0.0000
  5 H      0.6310     1.0000     0.3690     0.8783     0.8783    -0.0000
  6 O      8.7265     8.0000    -0.7265     1.7509     1.7509    -0.0000
  7 H      0.6226     1.0000     0.3774     0.8840     0.8840    -0.0000
  8 H      0.6570     1.0000     0.3430     0.8994     0.8994    -0.0000
  9 O      8.7074     8.0000    -0.7074     1.7692     1.7692    -0.0000
 10 H      0.6298     1.0000     0.3702     0.8800     0.8800     0.0000
 11 H      0.6637     1.0000     0.3363     0.9006     0.9006    -0.0000
 12 O      8.7125     8.0000    -0.7125     1.7722     1.7722    -0.0000
 13 H      0.6406     1.0000     0.3594     0.8858     0.8858    -0.0000
 14 H      0.6404     1.0000     0.3596     0.8858     0.8858    -0.0000

  Mayer bond orders larger than 0.100000
B(  0-O ,  1-H ) :   0.8925 B(  0-O ,  2-H ) :   0.8672 B(  3-O ,  4-H ) :   0.8925 
B(  3-O ,  5-H ) :   0.8687 B(  6-O ,  7-H ) :   0.8571 B(  6-O ,  8-H ) :   0.8879 
B(  9-O , 10-H ) :   0.8682 B(  9-O , 11-H ) :   0.8957 B( 12-O , 13-H ) :   0.8782 
B( 12-O , 14-H ) :   0.8751 

-------
TIMINGS
-------

Total SCF time: 0 days 0 hours 0 min 5 sec 

Total time                  ....       5.567 sec
Sum of individual times     ....       5.403 sec  ( 97.1%)

Fock matrix formation       ....       4.965 sec  ( 89.2%)
Diagonalization             ....       0.121 sec  (  2.2%)
Density matrix formation    ....       0.009 sec  (  0.2%)
Population analysis         ....       0.013 sec  (  0.2%)
Initial guess               ....       0.103 sec  (  1.8%)
Orbital Transformation      ....       0.000 sec  (  0.0%)
Orbital Orthonormalization  ....       0.000 sec  (  0.0%)
DIIS solution               ....       0.043 sec  (  0.8%)
SOSCF solution              ....       0.107 sec  (  1.9%)


           ************************************************************
           *        Program running with 6 parallel MPI-processes     *
           *              working on a common directory               *
           ************************************************************

------------------------------------------------------------------------------
                                ORCA  MP2 
------------------------------------------------------------------------------

Freezing NCore=10 chemical core electrons
MP2 will be done in the AO integral direct mode
The Q1-step will be done using symmetric double matrices
Dimension of the basis                    ...  215
Memory devoted for MP2                    ... 8000 MB   
Memory needed for all in one shot         ...  153 MB
Number of MOs that can be treated together...  209      
MP2 density construction                  ... relaxed
The MP2 gradient is requested => amplitudes will be stored on disk
Total number of MOs              ...   20
Number of MOs treated per batch  ...    4 
Number of batches necessary      ...    1 
OPERATORS   0/  0 PASS   0
-----------------------------------------------
 MP2 CORRELATION ENERGY   :     -1.282554733 Eh
-----------------------------------------------


---------------------
MP2 DENSITY FORMATION
---------------------

Completing the external part of the density      ... done
Storing the unrelaxed density                    ... done

Calculating G(D)                                 ... done
Completing the Lagrangian                        ... done
Solving the Z-vector equations                   ... 

------------------------------------------------------------------------------
                           ORCA CP-SCF CALCULATION
------------------------------------------------------------------------------

Input orbitals are from        ... 12h2o.su.etal.mol0,1,4,5,10-orca.engrad-mp2.def2tzvp.frozencore.gbw
Input Perturbation             ... 12h2o.su.etal.mol0,1,4,5,10-orca.engrad-mp2.def2tzvp.frozencore.pin.tmp
Wavefunction output            ... 12h2o.su.etal.mol0,1,4,5,10-orca.engrad-mp2.def2tzvp.frozencore.pout.tmp
Perturbation mode              ... Real perturbation (singlet)
Solver                         ... POPLE
Max. number of iterations      ... 128
Convergence tolerance          ... 1.000e-08
Integral handling              ... Direct
Number of perturbations        ... 1
Number of operators            ... 1
Orbital ranges used for CP-SCF:
 Operator 0:  Orbitals   0... 24  to  25...214
Variables per vector in CP-SCF ... 4750
Number of vectors sought       ... 1
     CP-SCF ITERATION   0: 
     CP-SCF ITERATION   1:      0.000593856124
     CP-SCF ITERATION   2:      0.000012391330
     CP-SCF ITERATION   3:      0.000000356245
     CP-SCF ITERATION   4:      0.000000024789
     CP-SCF ITERATION   5:      0.000000002131
                                                 ... done
Finalizing the relaxed density                   ... done
Transforming P to the AO basis                   ... done
Storing the relaxed density                      ... done

------------------------------------
ENERGY WEIGHTED DENSITY FINALIZATION
------------------------------------

Gathering the parts of the W-matrix              ...                                                      done
Forming the Z-density                            ... done
Transforming Z to the AO basis                   ... done
Calculating G(Z)                                 ... done
Finalizing the W-matrix                          ...                                                      done
Transforming W to the AO basis and storing       ... done

                *********************************************
                * UNRELAXED MP2 DENSITY POPULATION ANALYSIS *
                *********************************************

------------------------------------------------------------------------------
                           ORCA POPULATION ANALYSIS
------------------------------------------------------------------------------
Input electron density              ... 12h2o.su.etal.mol0,1,4,5,10-orca.engrad-mp2.def2tzvp.frozencore.pmp2ur
BaseName (.gbw .S,...)              ... 12h2o.su.etal.mol0,1,4,5,10-orca.engrad-mp2.def2tzvp.frozencore

                    ********************************
                    * MULLIKEN POPULATION ANALYSIS *
                    ********************************

-----------------------
MULLIKEN ATOMIC CHARGES
-----------------------
   0 O :   -0.706896
   1 H :    0.338853
   2 H :    0.368250
   3 O :   -0.704770
   4 H :    0.338766
   5 H :    0.366266
   6 O :   -0.721011
   7 H :    0.374544
   8 H :    0.340275
   9 O :   -0.702375
  10 H :    0.367478
  11 H :    0.333997
  12 O :   -0.707367
  13 H :    0.357153
  14 H :    0.356839
Sum of atomic charges:   -0.0000000

--------------------------------
MULLIKEN REDUCED ORBITAL CHARGES
--------------------------------
  0 O s       :     3.809553  s :     3.809553
      pz      :     1.708300  p :     4.841546
      px      :     1.351229
      py      :     1.782016
      dz2     :     0.009765  d :     0.051713
      dxz     :     0.010120
      dyz     :     0.011130
      dx2y2   :     0.007832
      dxy     :     0.012866
      f0      :     0.000458  f :     0.004085
      f+1     :     0.000703
      f-1     :     0.000556
      f+2     :     0.000435
      f-2     :     0.000721
      f+3     :     0.000465
      f-3     :     0.000747
  1 H s       :     0.613520  s :     0.613520
      pz      :     0.017789  p :     0.047627
      px      :     0.013963
      py      :     0.015875
  2 H s       :     0.588270  s :     0.588270
      pz      :     0.011963  p :     0.043480
      px      :     0.017869
      py      :     0.013648
  3 O s       :     3.809836  s :     3.809836
      pz      :     1.707660  p :     4.839067
      px      :     1.349605
      py      :     1.781802
      dz2     :     0.009757  d :     0.051783
      dxz     :     0.010098
      dyz     :     0.011167
      dx2y2   :     0.007832
      dxy     :     0.012929
      f0      :     0.000458  f :     0.004084
      f+1     :     0.000703
      f-1     :     0.000555
      f+2     :     0.000435
      f-2     :     0.000720
      f+3     :     0.000465
      f-3     :     0.000748
  4 H s       :     0.613617  s :     0.613617
      pz      :     0.017753  p :     0.047617
      px      :     0.013984
      py      :     0.015880
  5 H s       :     0.590188  s :     0.590188
      pz      :     0.012002  p :     0.043546
      px      :     0.017847
      py      :     0.013697
  6 O s       :     3.807821  s :     3.807821
      pz      :     1.566765  p :     4.857189
      px      :     1.860261
      py      :     1.430163
      dz2     :     0.016296  d :     0.051978
      dxz     :     0.008148
      dyz     :     0.008183
      dx2y2   :     0.008562
      dxy     :     0.010789
      f0      :     0.000549  f :     0.004023
      f+1     :     0.000497
      f-1     :     0.000810
      f+2     :     0.000439
      f-2     :     0.000404
      f+3     :     0.000835
      f-3     :     0.000489
  7 H s       :     0.574757  s :     0.574757
      pz      :     0.024380  p :     0.050699
      px      :     0.014383
      py      :     0.011936
  8 H s       :     0.614222  s :     0.614222
      pz      :     0.011237  p :     0.045503
      px      :     0.016069
      py      :     0.018198
  9 O s       :     3.813351  s :     3.813351
      pz      :     1.511929  p :     4.832360
      px      :     1.863572
      py      :     1.456859
      dz2     :     0.016812  d :     0.052610
      dxz     :     0.008152
      dyz     :     0.008253
      dx2y2   :     0.008606
      dxy     :     0.010787
      f0      :     0.000563  f :     0.004054
      f+1     :     0.000499
      f-1     :     0.000820
      f+2     :     0.000437
      f-2     :     0.000404
      f+3     :     0.000841
      f-3     :     0.000491
 10 H s       :     0.587807  s :     0.587807
      pz      :     0.010684  p :     0.044715
      px      :     0.015461
      py      :     0.018570
 11 H s       :     0.619348  s :     0.619348
      pz      :     0.018655  p :     0.046655
      px      :     0.015279
      py      :     0.012722
 12 O s       :     3.805919  s :     3.805919
      pz      :     1.707757  p :     4.845705
      px      :     1.790848
      py      :     1.347099
      dz2     :     0.009591  d :     0.051672
      dxz     :     0.011236
      dyz     :     0.009748
      dx2y2   :     0.007849
      dxy     :     0.013248
      f0      :     0.000454  f :     0.004072
      f+1     :     0.000553
      f-1     :     0.000692
      f+2     :     0.000437
      f-2     :     0.000714
      f+3     :     0.000754
      f-3     :     0.000467
 13 H s       :     0.595794  s :     0.595794
      pz      :     0.017481  p :     0.047053
      px      :     0.015660
      py      :     0.013912
 14 H s       :     0.599771  s :     0.599771
      pz      :     0.011736  p :     0.043390
      px      :     0.013952
      py      :     0.017701


                     *******************************
                     * LOEWDIN POPULATION ANALYSIS *
                     *******************************

----------------------
LOEWDIN ATOMIC CHARGES
----------------------
   0 O :   -0.338850
   1 H :    0.153539
   2 H :    0.185378
   3 O :   -0.337942
   4 H :    0.153499
   5 H :    0.184627
   6 O :   -0.346758
   7 H :    0.150420
   8 H :    0.164216
   9 O :   -0.337248
  10 H :    0.177631
  11 H :    0.159056
  12 O :   -0.310742
  13 H :    0.160898
  14 H :    0.182275

-------------------------------
LOEWDIN REDUCED ORBITAL CHARGES
-------------------------------
  0 O s       :     3.471181  s :     3.471181
      pz      :     1.694558  p :     4.803015
      px      :     1.346999
      py      :     1.761458
      dz2     :     0.010361  d :     0.059801
      dxz     :     0.012890
      dyz     :     0.011576
      dx2y2   :     0.009268
      dxy     :     0.015706
      f0      :     0.000455  f :     0.004854
      f+1     :     0.000864
      f-1     :     0.000660
      f+2     :     0.000408
      f-2     :     0.001036
      f+3     :     0.000472
      f-3     :     0.000958
  1 H s       :     0.680539  s :     0.680539
      pz      :     0.067293  p :     0.165921
      px      :     0.044755
      py      :     0.053874
  2 H s       :     0.663590  s :     0.663590
      pz      :     0.033959  p :     0.151032
      px      :     0.072660
      py      :     0.044412
  3 O s       :     3.471395  s :     3.471395
      pz      :     1.694515  p :     4.801773
      px      :     1.346268
      py      :     1.760991
      dz2     :     0.010369  d :     0.059917
      dxz     :     0.012872
      dyz     :     0.011616
      dx2y2   :     0.009273
      dxy     :     0.015788
      f0      :     0.000455  f :     0.004857
      f+1     :     0.000865
      f-1     :     0.000660
      f+2     :     0.000408
      f-2     :     0.001036
      f+3     :     0.000472
      f-3     :     0.000960
  4 H s       :     0.680582  s :     0.680582
      pz      :     0.067287  p :     0.165919
      px      :     0.044737
      py      :     0.053896
  5 H s       :     0.664393  s :     0.664393
      pz      :     0.033988  p :     0.150980
      px      :     0.072549
      py      :     0.044443
  6 O s       :     3.468574  s :     3.468574
      pz      :     1.557165  p :     4.813802
      px      :     1.820683
      py      :     1.435954
      dz2     :     0.020190  d :     0.059548
      dxz     :     0.007142
      dyz     :     0.009380
      dx2y2   :     0.010080
      dxy     :     0.012757
      f0      :     0.000762  f :     0.004834
      f+1     :     0.000589
      f-1     :     0.001157
      f+2     :     0.000414
      f-2     :     0.000413
      f+3     :     0.001052
      f-3     :     0.000448
  7 H s       :     0.675648  s :     0.675648
      pz      :     0.093711  p :     0.173932
      px      :     0.043813
      py      :     0.036409
  8 H s       :     0.678943  s :     0.678943
      pz      :     0.031295  p :     0.156841
      px      :     0.050362
      py      :     0.075184
  9 O s       :     3.475342  s :     3.475342
      pz      :     1.526756  p :     4.796396
      px      :     1.823291
      py      :     1.446349
      dz2     :     0.021426  d :     0.060616
      dxz     :     0.007212
      dyz     :     0.009762
      dx2y2   :     0.009818
      dxy     :     0.012398
      f0      :     0.000803  f :     0.004894
      f+1     :     0.000592
      f-1     :     0.001195
      f+2     :     0.000417
      f-2     :     0.000414
      f+3     :     0.001029
      f-3     :     0.000445
 10 H s       :     0.665996  s :     0.665996
      pz      :     0.029540  p :     0.156372
      px      :     0.050102
      py      :     0.076730
 11 H s       :     0.680275  s :     0.680275
      pz      :     0.080568  p :     0.160669
      px      :     0.044095
      py      :     0.036005
 12 O s       :     3.465825  s :     3.465825
      pz      :     1.671350  p :     4.779607
      px      :     1.763669
      py      :     1.344588
      dz2     :     0.011084  d :     0.060443
      dxz     :     0.011526
      dyz     :     0.012412
      dx2y2   :     0.009389
      dxy     :     0.016032
      f0      :     0.000473  f :     0.004866
      f+1     :     0.000658
      f-1     :     0.000862
      f+2     :     0.000409
      f-2     :     0.001016
      f+3     :     0.000974
      f-3     :     0.000475
 13 H s       :     0.672682  s :     0.672682
      pz      :     0.067703  p :     0.166420
      px      :     0.053800
      py      :     0.044918
 14 H s       :     0.666681  s :     0.666681
      pz      :     0.034351  p :     0.151044
      px      :     0.044630
      py      :     0.072064


                      *****************************
                      * MAYER POPULATION ANALYSIS *
                      *****************************

  NA   - Mulliken gross atomic population
  ZA   - Total nuclear charge
  QA   - Mulliken gross atomic charge
  VA   - Mayer's total valence
  BVA  - Mayer's bonded valence
  FA   - Mayer's free valence

  ATOM       NA         ZA         QA         VA         BVA        FA
  0 O      8.7069     8.0000    -0.7069     2.0704     1.6827     0.3877
  1 H      0.6611     1.0000     0.3389     0.9042     0.8574     0.0468
  2 H      0.6317     1.0000     0.3683     0.8829     0.8357     0.0473
  3 O      8.7048     8.0000    -0.7048     2.0715     1.6839     0.3876
  4 H      0.6612     1.0000     0.3388     0.9042     0.8574     0.0468
  5 H      0.6337     1.0000     0.3663     0.8843     0.8369     0.0474
  6 O      8.7210     8.0000    -0.7210     2.0598     1.6696     0.3902
  7 H      0.6255     1.0000     0.3745     0.8901     0.8453     0.0448
  8 H      0.6597     1.0000     0.3403     0.9058     0.8565     0.0493
  9 O      8.7024     8.0000    -0.7024     2.0746     1.6869     0.3876
 10 H      0.6325     1.0000     0.3675     0.8861     0.8394     0.0468
 11 H      0.6660     1.0000     0.3340     0.9067     0.8583     0.0484
 12 O      8.7074     8.0000    -0.7074     2.0793     1.6906     0.3887
 13 H      0.6428     1.0000     0.3572     0.8914     0.8458     0.0456
 14 H      0.6432     1.0000     0.3568     0.8919     0.8435     0.0485

  Mayer bond orders larger than 0.100000
B(  0-O ,  1-H ) :   0.8520 B(  0-O ,  2-H ) :   0.8265 B(  3-O ,  4-H ) :   0.8519 
B(  3-O ,  5-H ) :   0.8278 B(  6-O ,  7-H ) :   0.8190 B(  6-O ,  8-H ) :   0.8457 
B(  9-O , 10-H ) :   0.8281 B(  9-O , 11-H ) :   0.8537 B( 12-O , 13-H ) :   0.8388 
B( 12-O , 14-H ) :   0.8334 


                *******************************************
                * RELAXED MP2 DENSITY POPULATION ANALYSIS *
                *******************************************

------------------------------------------------------------------------------
                           ORCA POPULATION ANALYSIS
------------------------------------------------------------------------------
Input electron density              ... 12h2o.su.etal.mol0,1,4,5,10-orca.engrad-mp2.def2tzvp.frozencore.pmp2re
BaseName (.gbw .S,...)              ... 12h2o.su.etal.mol0,1,4,5,10-orca.engrad-mp2.def2tzvp.frozencore

                    ********************************
                    * MULLIKEN POPULATION ANALYSIS *
                    ********************************

-----------------------
MULLIKEN ATOMIC CHARGES
-----------------------
   0 O :   -0.692865
   1 H :    0.332889
   2 H :    0.360283
   3 O :   -0.690699
   4 H :    0.332778
   5 H :    0.358350
   6 O :   -0.702012
   7 H :    0.360817
   8 H :    0.332343
   9 O :   -0.687710
  10 H :    0.358292
  11 H :    0.328114
  12 O :   -0.690917
  13 H :    0.350263
  14 H :    0.350074
Sum of atomic charges:   -0.0000000

--------------------------------
MULLIKEN REDUCED ORBITAL CHARGES
--------------------------------
  0 O s       :     3.814323  s :     3.814323
      pz      :     1.702157  p :     4.825117
      px      :     1.347540
      py      :     1.775420
      dz2     :     0.009477  d :     0.049413
      dxz     :     0.009517
      dyz     :     0.010833
      dx2y2   :     0.007575
      dxy     :     0.012010
      f0      :     0.000456  f :     0.004013
      f+1     :     0.000684
      f-1     :     0.000547
      f+2     :     0.000436
      f-2     :     0.000700
      f+3     :     0.000463
      f-3     :     0.000726
  1 H s       :     0.618751  s :     0.618751
      pz      :     0.017934  p :     0.048360
      px      :     0.013916
      py      :     0.016511
  2 H s       :     0.595620  s :     0.595620
      pz      :     0.012841  p :     0.044097
      px      :     0.016873
      py      :     0.014383
  3 O s       :     3.814724  s :     3.814724
      pz      :     1.701452  p :     4.822484
      px      :     1.345906
      py      :     1.775125
      dz2     :     0.009470  d :     0.049480
      dxz     :     0.009497
      dyz     :     0.010869
      dx2y2   :     0.007577
      dxy     :     0.012068
      f0      :     0.000456  f :     0.004012
      f+1     :     0.000684
      f-1     :     0.000547
      f+2     :     0.000436
      f-2     :     0.000699
      f+3     :     0.000463
      f-3     :     0.000727
  4 H s       :     0.618872  s :     0.618872
      pz      :     0.017889  p :     0.048350
      px      :     0.013939
      py      :     0.016522
  5 H s       :     0.597476  s :     0.597476
      pz      :     0.012885  p :     0.044174
      px      :     0.016845
      py      :     0.014445
  6 O s       :     3.809719  s :     3.809719
      pz      :     1.561382  p :     4.838560
      px      :     1.854463
      py      :     1.422715
      dz2     :     0.015192  d :     0.049781
      dxz     :     0.008177
      dyz     :     0.007925
      dx2y2   :     0.008247
      dxy     :     0.010240
      f0      :     0.000536  f :     0.003951
      f+1     :     0.000490
      f-1     :     0.000781
      f+2     :     0.000439
      f-2     :     0.000403
      f+3     :     0.000814
      f-3     :     0.000488
  7 H s       :     0.587892  s :     0.587892
      pz      :     0.023688  p :     0.051291
      px      :     0.015300
      py      :     0.012303
  8 H s       :     0.621326  s :     0.621326
      pz      :     0.012054  p :     0.046331
      px      :     0.016936
      py      :     0.017341
  9 O s       :     3.818661  s :     3.818661
      pz      :     1.504309  p :     4.814803
      px      :     1.858324
      py      :     1.452170
      dz2     :     0.015532  d :     0.050265
      dxz     :     0.008186
      dyz     :     0.007968
      dx2y2   :     0.008311
      dxy     :     0.010268
      f0      :     0.000548  f :     0.003981
      f+1     :     0.000493
      f-1     :     0.000790
      f+2     :     0.000438
      f-2     :     0.000403
      f+3     :     0.000820
      f-3     :     0.000490
 10 H s       :     0.596320  s :     0.596320
      pz      :     0.011410  p :     0.045388
      px      :     0.016239
      py      :     0.017739
 11 H s       :     0.624461  s :     0.624461
      pz      :     0.017983  p :     0.047425
      px      :     0.016300
      py      :     0.013142
 12 O s       :     3.810329  s :     3.810329
      pz      :     1.698128  p :     4.827174
      px      :     1.785557
      py      :     1.343489
      dz2     :     0.009347  d :     0.049414
      dxz     :     0.010955
      dyz     :     0.009158
      dx2y2   :     0.007601
      dxy     :     0.012353
      f0      :     0.000453  f :     0.004000
      f+1     :     0.000544
      f-1     :     0.000672
      f+2     :     0.000438
      f-2     :     0.000694
      f+3     :     0.000734
      f-3     :     0.000466
 13 H s       :     0.601987  s :     0.601987
      pz      :     0.017629  p :     0.047750
      px      :     0.016293
      py      :     0.013827
 14 H s       :     0.605910  s :     0.605910
      pz      :     0.012603  p :     0.044016
      px      :     0.014687
      py      :     0.016726


                     *******************************
                     * LOEWDIN POPULATION ANALYSIS *
                     *******************************

----------------------
LOEWDIN ATOMIC CHARGES
----------------------
   0 O :   -0.341642
   1 H :    0.155507
   2 H :    0.186199
   3 O :   -0.340731
   4 H :    0.155457
   5 H :    0.185504
   6 O :   -0.347500
   7 H :    0.146928
   8 H :    0.165137
   9 O :   -0.339776
  10 H :    0.177925
  11 H :    0.161099
  12 O :   -0.310054
  13 H :    0.162374
  14 H :    0.183572

-------------------------------
LOEWDIN REDUCED ORBITAL CHARGES
-------------------------------
  0 O s       :     3.473259  s :     3.473259
      pz      :     1.693706  p :     4.805080
      px      :     1.351883
      py      :     1.759490
      dz2     :     0.010181  d :     0.058429
      dxz     :     0.012477
      dyz     :     0.011508
      dx2y2   :     0.009036
      dxy     :     0.015228
      f0      :     0.000457  f :     0.004873
      f+1     :     0.000872
      f-1     :     0.000660
      f+2     :     0.000409
      f-2     :     0.001036
      f+3     :     0.000475
      f-3     :     0.000965
  1 H s       :     0.678494  s :     0.678494
      pz      :     0.067470  p :     0.165999
      px      :     0.044017
      py      :     0.054512
  2 H s       :     0.662812  s :     0.662812
      pz      :     0.034704  p :     0.150989
      px      :     0.071134
      py      :     0.045151
  3 O s       :     3.473521  s :     3.473521
      pz      :     1.693673  p :     4.803790
      px      :     1.351155
      py      :     1.758962
      dz2     :     0.010188  d :     0.058544
      dxz     :     0.012459
      dyz     :     0.011548
      dx2y2   :     0.009043
      dxy     :     0.015305
      f0      :     0.000457  f :     0.004877
      f+1     :     0.000873
      f-1     :     0.000660
      f+2     :     0.000409
      f-2     :     0.001035
      f+3     :     0.000475
      f-3     :     0.000967
  4 H s       :     0.678544  s :     0.678544
      pz      :     0.067456  p :     0.165999
      px      :     0.043996
      py      :     0.054547
  5 H s       :     0.663539  s :     0.663539
      pz      :     0.034733  p :     0.150957
      px      :     0.071025
      py      :     0.045199
  6 O s       :     3.470022  s :     3.470022
      pz      :     1.557741  p :     4.814276
      px      :     1.817718
      py      :     1.438817
      dz2     :     0.019661  d :     0.058348
      dxz     :     0.007202
      dyz     :     0.009157
      dx2y2   :     0.009865
      dxy     :     0.012463
      f0      :     0.000763  f :     0.004853
      f+1     :     0.000589
      f-1     :     0.001167
      f+2     :     0.000416
      f-2     :     0.000411
      f+3     :     0.001058
      f-3     :     0.000450
  7 H s       :     0.678759  s :     0.678759
      pz      :     0.093171  p :     0.174313
      px      :     0.044737
      py      :     0.036405
  8 H s       :     0.677635  s :     0.677635
      pz      :     0.031883  p :     0.157228
      px      :     0.051157
      py      :     0.074188
  9 O s       :     3.477619  s :     3.477619
      pz      :     1.527871  p :     4.797989
      px      :     1.820626
      py      :     1.449492
      dz2     :     0.020714  d :     0.059255
      dxz     :     0.007276
      dyz     :     0.009494
      dx2y2   :     0.009626
      dxy     :     0.012145
      f0      :     0.000800  f :     0.004912
      f+1     :     0.000591
      f-1     :     0.001206
      f+2     :     0.000419
      f-2     :     0.000412
      f+3     :     0.001037
      f-3     :     0.000447
 10 H s       :     0.665772  s :     0.665772
      pz      :     0.029933  p :     0.156304
      px      :     0.050848
      py      :     0.075523
 11 H s       :     0.678005  s :     0.678005
      pz      :     0.080010  p :     0.160895
      px      :     0.045021
      py      :     0.035865
 12 O s       :     3.467924  s :     3.467924
      pz      :     1.666322  p :     4.778024
      px      :     1.762053
      py      :     1.349650
      dz2     :     0.010998  d :     0.059220
      dxz     :     0.011499
      dyz     :     0.012042
      dx2y2   :     0.009154
      dxy     :     0.015526
      f0      :     0.000477  f :     0.004886
      f+1     :     0.000658
      f-1     :     0.000869
      f+2     :     0.000410
      f-2     :     0.001016
      f+3     :     0.000980
      f-3     :     0.000477
 13 H s       :     0.671295  s :     0.671295
      pz      :     0.067792  p :     0.166331
      px      :     0.054449
      py      :     0.044091
 14 H s       :     0.665264  s :     0.665264
      pz      :     0.035070  p :     0.151164
      px      :     0.045410
      py      :     0.070684


                      *****************************
                      * MAYER POPULATION ANALYSIS *
                      *****************************

  NA   - Mulliken gross atomic population
  ZA   - Total nuclear charge
  QA   - Mulliken gross atomic charge
  VA   - Mayer's total valence
  BVA  - Mayer's bonded valence
  FA   - Mayer's free valence

  ATOM       NA         ZA         QA         VA         BVA        FA
  0 O      8.6929     8.0000    -0.6929     2.0766     1.6938     0.3828
  1 H      0.6671     1.0000     0.3329     0.9084     0.8615     0.0469
  2 H      0.6397     1.0000     0.3603     0.8904     0.8431     0.0472
  3 O      8.6907     8.0000    -0.6907     2.0778     1.6951     0.3827
  4 H      0.6672     1.0000     0.3328     0.9083     0.8614     0.0469
  5 H      0.6417     1.0000     0.3583     0.8916     0.8442     0.0474
  6 O      8.7020     8.0000    -0.7020     2.0736     1.6888     0.3848
  7 H      0.6392     1.0000     0.3608     0.9088     0.8643     0.0445
  8 H      0.6677     1.0000     0.3323     0.9136     0.8644     0.0492
  9 O      8.6877     8.0000    -0.6877     2.0813     1.6987     0.3826
 10 H      0.6417     1.0000     0.3583     0.8955     0.8489     0.0466
 11 H      0.6719     1.0000     0.3281     0.9107     0.8622     0.0485
 12 O      8.6909     8.0000    -0.6909     2.0994     1.7162     0.3832
 13 H      0.6497     1.0000     0.3503     0.8965     0.8510     0.0456
 14 H      0.6499     1.0000     0.3501     0.8983     0.8499     0.0484

  Mayer bond orders larger than 0.100000
B(  0-O ,  1-H ) :   0.8558 B(  0-O ,  2-H ) :   0.8309 B(  3-O ,  4-H ) :   0.8557 
B(  3-O ,  5-H ) :   0.8322 B(  6-O ,  7-H ) :   0.8242 B(  6-O ,  8-H ) :   0.8485 
B(  9-O , 10-H ) :   0.8326 B(  9-O , 11-H ) :   0.8574 B( 12-O , 13-H ) :   0.8427 
B( 12-O , 14-H ) :   0.8370 


----------------------------------
MP2 DERIVATIVE INTEGRAL GENERATION
----------------------------------


Input Wavefunction Amplitudes       ... 12h2o.su.etal.mol0,1,4,5,10-orca.engrad-mp2.def2tzvp.frozencore.mp2tsaa.tmp
Input Correlated Electron Density   ... 12h2o.su.etal.mol0,1,4,5,10-orca.engrad-mp2.def2tzvp.frozencore.pmp2re
Input Energy Weighted Density       ... 12h2o.su.etal.mol0,1,4,5,10-orca.engrad-mp2.def2tzvp.frozencore.wmp2.tmp
Input SCF Electron Density          ... 12h2o.su.etal.mol0,1,4,5,10-orca.engrad-mp2.def2tzvp.frozencore.scfp

One-Electron Terms    ...
                        ... One-Electron Terms done
Prescreening matrices              ... done

Batch handling in the gradient evaluation:
Memory available                      ... 8000.0 MB
Memory per occupied orbital in Q2     ...    7.1 MB
Memory per occupied orbital in Q3     ...    0.1 MB
Total memory requirement per |i>      ...    7.1 MB
Max. Number of orbitals possible      ...   1121
Number of orbitals treated per batch  ...     20
Number of batches to be done          ...      1
Batch   0: i=    5 ...    24

---------------------------------------
MP2 TOTAL ENERGY:     -381.576272974 Eh
---------------------------------------

The final MP2 gradient
  0:   0.02597181  -0.00644420  -0.00085666
  1:   0.00267597  -0.00181331  -0.00078420
  2:  -0.02749182   0.00913369   0.00348463
  3:  -0.02589834   0.00711051  -0.00037579
  4:  -0.00272260   0.00176027  -0.00097306
  5:   0.02756624  -0.00952086   0.00295405
  6:   0.00946180   0.01514049   0.00224594
  7:  -0.00386567   0.00398913  -0.00400805
  8:  -0.00790554  -0.01728479  -0.00392221
  9:  -0.00787807  -0.01319741   0.01127228
 10:   0.00758633   0.01477672  -0.00358518
 11:   0.00111540  -0.00304720  -0.00919100
 12:   0.00957678   0.02593857   0.00102237
 13:   0.00197715   0.00162851   0.00244212
 14:  -0.01016942  -0.02817012   0.00027477

-----------------------------------
NORM OF THE MP2 GRADIENT:  0.079630
-----------------------------------

-------------------------   --------------------
FINAL SINGLE POINT ENERGY      -381.576272973975
-------------------------   --------------------


                            ***************************************
                            *     ORCA property calculations      *
                            ***************************************

                                    ---------------------
                                    Active property flags
                                    ---------------------
   (+) Dipole Moment


------------------------------------------------------------------------------
                       ORCA ELECTRIC PROPERTIES CALCULATION
------------------------------------------------------------------------------

Dipole Moment Calculation                       ... on
Quadrupole Moment Calculation                   ... off
Polarizability Calculation                      ... off
GBWName                                         ... 12h2o.su.etal.mol0,1,4,5,10-orca.engrad-mp2.def2tzvp.frozencore.gbw
Electron density file                           ... 12h2o.su.etal.mol0,1,4,5,10-orca.engrad-mp2.def2tzvp.frozencore.scfp
The origin for moment calculation is the CENTER OF MASS  = (-0.366253,  0.670361  1.062871)

-------------
DIPOLE MOMENT
-------------
                                X             Y             Z
Electronic contribution:      0.10787       0.10955      -0.02646
Nuclear contribution   :     -0.67915      -0.30898      -0.91596
                        -----------------------------------------
Total Dipole Moment    :     -0.57128      -0.19943      -0.94242
                        -----------------------------------------
Magnitude (a.u.)       :      1.11995
Magnitude (Debye)      :      2.84669



--------------------
Rotational spectrum 
--------------------
 
Rotational constants in cm-1:     0.058158     0.028179     0.027632 
Rotational constants in MHz :  1743.540502   844.781624   828.393439 

 Dipole components along the rotational axes: 
x,y,z [a.u.] :    -0.893852     0.633011     0.233701 
x,y,z [Debye]:    -2.271990     1.608986     0.594022 

 

                         *** MP2 UNRELAXED DENSITY ***

------------------------------------------------------------------------------
                       ORCA ELECTRIC PROPERTIES CALCULATION
------------------------------------------------------------------------------

Dipole Moment Calculation                       ... on
Quadrupole Moment Calculation                   ... off
Polarizability Calculation                      ... off
GBWName                                         ... 12h2o.su.etal.mol0,1,4,5,10-orca.engrad-mp2.def2tzvp.frozencore.gbw
Electron density file                           ... 12h2o.su.etal.mol0,1,4,5,10-orca.engrad-mp2.def2tzvp.frozencore.pmp2ur
The origin for moment calculation is the CENTER OF MASS  = (-0.366253,  0.670361  1.062871)

-------------
DIPOLE MOMENT
-------------
                                X             Y             Z
Electronic contribution:      0.11534       0.11381      -0.01822
Nuclear contribution   :     -0.67915      -0.30898      -0.91596
                        -----------------------------------------
Total Dipole Moment    :     -0.56381      -0.19517      -0.93419
                        -----------------------------------------
Magnitude (a.u.)       :      1.10846
Magnitude (Debye)      :      2.81747



--------------------
Rotational spectrum 
--------------------
 
Rotational constants in cm-1:     0.058158     0.028179     0.027632 
Rotational constants in MHz :  1743.540502   844.781624   828.393439 

 Dipole components along the rotational axes: 
x,y,z [a.u.] :    -0.886478     0.624014     0.231168 
x,y,z [Debye]:    -2.253248     1.586118     0.587583 

 

                           *** MP2 RELAXED DENSITY ***

------------------------------------------------------------------------------
                       ORCA ELECTRIC PROPERTIES CALCULATION
------------------------------------------------------------------------------

Dipole Moment Calculation                       ... on
Quadrupole Moment Calculation                   ... off
Polarizability Calculation                      ... off
GBWName                                         ... 12h2o.su.etal.mol0,1,4,5,10-orca.engrad-mp2.def2tzvp.frozencore.gbw
Electron density file                           ... 12h2o.su.etal.mol0,1,4,5,10-orca.engrad-mp2.def2tzvp.frozencore.pmp2re
The origin for moment calculation is the CENTER OF MASS  = (-0.366253,  0.670361  1.062871)

-------------
DIPOLE MOMENT
-------------
                                X             Y             Z
Electronic contribution:      0.12555       0.11311      -0.01237
Nuclear contribution   :     -0.67915      -0.30898      -0.91596
                        -----------------------------------------
Total Dipole Moment    :     -0.55359      -0.19587      -0.92833
                        -----------------------------------------
Magnitude (a.u.)       :      1.09847
Magnitude (Debye)      :      2.79208



--------------------
Rotational spectrum 
--------------------
 
Rotational constants in cm-1:     0.058158     0.028179     0.027632 
Rotational constants in MHz :  1743.540502   844.781624   828.393439 

 Dipole components along the rotational axes: 
x,y,z [a.u.] :    -0.878850     0.615755     0.234734 
x,y,z [Debye]:    -2.233859     1.565124     0.596646 

 

Timings for individual modules:

Sum of individual times         ...       23.968 sec (=   0.399 min)
GTO integral calculation        ...        0.784 sec (=   0.013 min)   3.3 %
SCF iterations                  ...        6.214 sec (=   0.104 min)  25.9 %
MP2 module                      ...       16.971 sec (=   0.283 min)  70.8 %
                             ****ORCA TERMINATED NORMALLY****
TOTAL RUN TIME: 0 days 0 hours 0 minutes 24 seconds 958 msec
