
                                 *****************
                                 * O   R   C   A *
                                 *****************

           --- An Ab Initio, DFT and Semiempirical electronic structure package ---

                  #######################################################
                  #                        -***-                        #
                  #          Department of theory and spectroscopy      #
                  #               Directorship: Frank Neese             #
                  #        Max Planck Institute fuer Kohlenforschung    #
                  #                Kaiser Wilhelm Platz 1               #
                  #                 D-45470 Muelheim/Ruhr               #
                  #                      Germany                        #
                  #                                                     #
                  #                  All rights reserved                #
                  #                        -***-                        #
                  #######################################################


                         Program Version 4.2.0 -  RELEASE  -


 With contributions from (in alphabetic order):
   Daniel Aravena         : Magnetic Suceptibility
   Michael Atanasov       : Ab Initio Ligand Field Theory (pilot matlab implementation)
   Alexander A. Auer      : GIAO ZORA, VPT2
   Ute Becker             : Parallelization
   Giovanni Bistoni       : ED, misc. LED, open-shell LED, HFLED
   Martin Brehm           : Molecular dynamics
   Dmytro Bykov           : SCF Hessian
   Vijay G. Chilkuri      : MRCI spin determinant printing, contributions to CSF-ICE
   Dipayan Datta          : RHF DLPNO-CCSD density
   Achintya Kumar Dutta   : EOM-CC, STEOM-CC
   Dmitry Ganyushin       : Spin-Orbit,Spin-Spin,Magnetic field MRCI
   Miquel Garcia          : C-PCM Hessian, Gaussian charge scheme
   Yang Guo               : DLPNO-NEVPT2, CIM, IAO-localization
   Andreas Hansen         : Spin unrestricted coupled pair/coupled cluster methods
   Benjamin Helmich-Paris : CASSCF linear response (MC-RPA)
   Lee Huntington         : MR-EOM, pCC
   Robert Izsak           : Overlap fitted RIJCOSX, COSX-SCS-MP3, EOM
   Christian Kollmar      : KDIIS, OOCD, Brueckner-CCSD(T), CCSD density
   Simone Kossmann        : Meta GGA functionals, TD-DFT gradient, OOMP2, MP2 Hessian
   Martin Krupicka        : AUTO-CI
   Lucas Lang             : DCDCAS
   Dagmar Lenk            : GEPOL surface, SMD
   Dimitrios Liakos       : Extrapolation schemes; Compound Job, initial MDCI parallelization
   Dimitrios Manganas     : Further ROCIS development; embedding schemes
   Dimitrios Pantazis     : SARC Basis sets
   Taras Petrenko         : DFT Hessian,TD-DFT gradient, ASA, ECA, R-Raman, ABS, FL, XAS/XES, NRVS
   Peter Pinski           : DLPNO-MP2, DLPNO-MP2 Gradient
   Christoph Reimann      : Effective Core Potentials
   Marius Retegan         : Local ZFS, SOC
   Christoph Riplinger    : Optimizer, TS searches, QM/MM, DLPNO-CCSD(T), (RO)-DLPNO pert. Triples
   Tobias Risthaus        : Range-separated hybrids, TD-DFT gradient, RPA, STAB
   Michael Roemelt        : Original ROCIS implementation
   Masaaki Saitow         : Open-shell DLPNO-CCSD energy and density
   Barbara Sandhoefer     : DKH picture change effects
   Avijit Sen             : IP-ROCIS
   Kantharuban Sivalingam : CASSCF convergence, NEVPT2, FIC-MRCI
   Bernardo de Souza      : ESD, SOC TD-DFT
   Georgi Stoychev        : AutoAux, RI-MP2 NMR
   Willem Van den Heuvel  : Paramagnetic NMR
   Boris Wezisla          : Elementary symmetry handling
   Frank Wennmohs         : Technical directorship


 We gratefully acknowledge several colleagues who have allowed us to
 interface, adapt or use parts of their codes:
   Stefan Grimme, W. Hujo, H. Kruse,             : VdW corrections, initial TS optimization,
                  C. Bannwarth                     DFT functionals, gCP, sTDA/sTD-DF
   Ed Valeev, F. Pavosevic, A. Kumar             : LibInt (2-el integral package), F12 methods
   Garnet Chan, S. Sharma, J. Yang, R. Olivares  : DMRG
   Ulf Ekstrom                                   : XCFun DFT Library
   Mihaly Kallay                                 : mrcc  (arbitrary order and MRCC methods)
   Andreas Klamt, Michael Diedenhofen            : otool_cosmo (COSMO solvation model)
   Jiri Pittner, Ondrej Demel                    : Mk-CCSD
   Frank Weinhold                                : gennbo (NPA and NBO analysis)
   Christopher J. Cramer and Donald G. Truhlar   : smd solvation model
   Lars Goerigk                                  : TD-DFT with DH, B97 family of functionals
   V. Asgeirsson, H. Jonsson                     : NEB implementation
   FAccTs GmbH                                   : IRC, NEB, NEB-TS, Multilevel, MM, QM/MM, CI optimization
   S Lehtola, MJT Oliveira, MAL Marques          : LibXC Library


 Your calculation uses the libint2 library for the computation of 2-el integrals
 For citations please refer to: http://libint.valeyev.net

 Your ORCA version has been built with support for libXC version: 4.2.3
 For citations please refer to: https://tddft.org/programs/libxc/

 This ORCA versions uses:
   CBLAS   interface :  Fast vector & matrix operations
   LAPACKE interface :  Fast linear algebra routines
   SCALAPACK package :  Parallel linear algebra routines


----- Orbital basis set information -----
Your calculation utilizes the basis: def2-TZVP
   F. Weigend and R. Ahlrichs, Phys. Chem. Chem. Phys. 7, 3297 (2005).

================================================================================
                                        WARNINGS
                       Please study these warnings very carefully!
================================================================================


WARNING: The frozen-core approximation for MP2-gradient calculations is turned on by default.

INFO   : the flag for use of LIBINT has been found!

================================================================================
                                       INPUT FILE
================================================================================
NAME = 12h2o.su.etal.mol3,4,5,7,10-orca.engrad-mp2.def2tzvp.frozencore.inp
|  1> # 12h2o.su.etal.mol3,4,5,7,10
|  2> ! MP2 def2-TZVP EnGrad TightSCF
|  3> 
|  4> %pal
|  5>     nprocs 6
|  6> end
|  7> 
|  8> %maxcore 8000
|  9> 
| 10> %scf
| 11>     ConvForced true
| 12> end
| 13> 
| 14> *xyz 0 1
| 15> O  -1.752130000  -0.741530000  -2.896280000
| 16> H  -2.036450000  -0.920500000  -1.984040000
| 17> H  -0.921210000  -1.242140000  -2.984230000
| 18> O  -0.885520000   1.737840000   0.052730000
| 19> H  -1.032320000   2.090180000  -0.841890000
| 20> H  -1.284090000   0.839590000   0.017130000
| 21> O   0.885520000  -1.737840000   0.052730000
| 22> H   1.284090000  -0.839590000   0.017130000
| 23> H   1.032320000  -2.090180000  -0.841890000
| 24> O  -1.737840000  -0.885520000  -0.052730000
| 25> H  -2.090180000  -1.032320000   0.841890000
| 26> H  -0.839590000  -1.284090000  -0.017130000
| 27> O  -0.923410000   1.794470000  -2.768350000
| 28> H  -1.359750000   2.338250000  -3.430940000
| 29> H  -1.303000000   0.879480000  -2.865760000
| 30> *
| 31> 
| 32>                          ****END OF INPUT****
================================================================================

                     *******************************
                     * Energy+Gradient Calculation *
                     *******************************

---------------------------------
CARTESIAN COORDINATES (ANGSTROEM)
---------------------------------
  O     -1.752130   -0.741530   -2.896280
  H     -2.036450   -0.920500   -1.984040
  H     -0.921210   -1.242140   -2.984230
  O     -0.885520    1.737840    0.052730
  H     -1.032320    2.090180   -0.841890
  H     -1.284090    0.839590    0.017130
  O      0.885520   -1.737840    0.052730
  H      1.284090   -0.839590    0.017130
  H      1.032320   -2.090180   -0.841890
  O     -1.737840   -0.885520   -0.052730
  H     -2.090180   -1.032320    0.841890
  H     -0.839590   -1.284090   -0.017130
  O     -0.923410    1.794470   -2.768350
  H     -1.359750    2.338250   -3.430940
  H     -1.303000    0.879480   -2.865760

----------------------------
CARTESIAN COORDINATES (A.U.)
----------------------------
  NO LB      ZA    FRAG     MASS         X           Y           Z
   0 O     8.0000    0    15.999   -3.311046   -1.401289   -5.473176
   1 H     1.0000    0     1.008   -3.848333   -1.739493   -3.749292
   2 H     1.0000    0     1.008   -1.740835   -2.347304   -5.639377
   3 O     8.0000    0    15.999   -1.673390    3.284042    0.099645
   4 H     1.0000    0     1.008   -1.950802    3.949868   -1.590942
   5 H     1.0000    0     1.008   -2.426578    1.586595    0.032371
   6 O     8.0000    0    15.999    1.673390   -3.284042    0.099645
   7 H     1.0000    0     1.008    2.426578   -1.586595    0.032371
   8 H     1.0000    0     1.008    1.950802   -3.949868   -1.590942
   9 O     8.0000    0    15.999   -3.284042   -1.673390   -0.099645
  10 H     1.0000    0     1.008   -3.949868   -1.950802    1.590942
  11 H     1.0000    0     1.008   -1.586595   -2.426578   -0.032371
  12 O     8.0000    0    15.999   -1.744992    3.391057   -5.231423
  13 H     1.0000    0     1.008   -2.569555    4.418652   -6.483537
  14 H     1.0000    0     1.008   -2.462313    1.661976   -5.415502

--------------------------------
INTERNAL COORDINATES (ANGSTROEM)
--------------------------------
 O      0   0   0     0.000000000000     0.00000000     0.00000000
 H      1   0   0     0.972136791249     0.00000000     0.00000000
 H      1   2   0     0.974050112161   103.86323780     0.00000000
 O      2   1   3     3.541164138161   107.84672602    95.40582707
 H      4   2   1     0.972645187106    72.17296994    29.09453504
 H      4   2   1     0.983350632989    33.04029707   190.88793319
 O      6   4   2     3.369216573181   115.93827062    90.90702654
 H      7   6   4     0.983350632989    64.01297461   355.38487433
 H      7   6   4     0.972645187106   111.38238039   260.12892927
 O      6   4   2     1.785153773264   170.81379649    88.00403199
 H     10   6   4     0.972645187106   101.65007623   109.44492584
 H     10   6   4     0.983350632989    99.09581498     3.33484705
 O      5   4   2     1.952064016317   147.60984291   322.52183969
 H     13   5   4     0.961828878803   124.67322417   165.49513251
 H     13   5   4     0.995381322057   102.38931089    45.51897547

---------------------------
INTERNAL COORDINATES (A.U.)
---------------------------
 O      0   0   0     0.000000000000     0.00000000     0.00000000
 H      1   0   0     1.837072300170     0.00000000     0.00000000
 H      1   2   0     1.840687952699   103.86323780     0.00000000
 O      2   1   3     6.691830416388   107.84672602    95.40582707
 H      4   2   1     1.838033029106    72.17296994    29.09453504
 H      4   2   1     1.858263389967    33.04029707   190.88793319
 O      6   4   2     6.366896609181   115.93827062    90.90702654
 H      7   6   4     1.858263389967    64.01297461   355.38487433
 H      7   6   4     1.838033029106   111.38238039   260.12892927
 O      6   4   2     3.373451738406   170.81379649    88.00403199
 H     10   6   4     1.838033029106   101.65007623   109.44492584
 H     10   6   4     1.858263389967    99.09581498     3.33484705
 O      5   4   2     3.688866386722   147.60984291   322.52183969
 H     13   5   4     1.817593168635   124.67322417   165.49513251
 H     13   5   4     1.880998097508   102.38931089    45.51897547

---------------------
BASIS SET INFORMATION
---------------------
There are 2 groups of distinct atoms

 Group   1 Type O   : 11s6p2d1f contracted to 5s3p2d1f pattern {62111/411/11/1}
 Group   2 Type H   : 5s1p contracted to 3s1p pattern {311/1}

Atom   0O    basis set group =>   1
Atom   1H    basis set group =>   2
Atom   2H    basis set group =>   2
Atom   3O    basis set group =>   1
Atom   4H    basis set group =>   2
Atom   5H    basis set group =>   2
Atom   6O    basis set group =>   1
Atom   7H    basis set group =>   2
Atom   8H    basis set group =>   2
Atom   9O    basis set group =>   1
Atom  10H    basis set group =>   2
Atom  11H    basis set group =>   2
Atom  12O    basis set group =>   1
Atom  13H    basis set group =>   2
Atom  14H    basis set group =>   2


           ************************************************************
           *        Program running with 6 parallel MPI-processes     *
           *              working on a common directory               *
           ************************************************************
------------------------------------------------------------------------------
                           ORCA GTO INTEGRAL CALCULATION
------------------------------------------------------------------------------

                         BASIS SET STATISTICS AND STARTUP INFO

 # of primitive gaussian shells          ...  160
 # of primitive gaussian functions       ...  310
 # of contracted shells                  ...   95
 # of contracted basis functions         ...  215
 Highest angular momentum                ...    3
 Maximum contraction depth               ...    6
 Integral package used                   ... LIBINT
 Integral threshhold            Thresh   ...  2.500e-11
 Primitive cut-off              TCut     ...  2.500e-12


------------------------------ INTEGRAL EVALUATION ----------------------------


 * One electron integrals 
 Pre-screening matrix                    ... done
 Shell pair data                         ... done (   0.001 sec)



           ************************************************************
           *        Program running with 6 parallel MPI-processes     *
           *              working on a common directory               *
           ************************************************************
-------------------------------------------------------------------------------
                                 ORCA SCF
-------------------------------------------------------------------------------

------------
SCF SETTINGS
------------
Hamiltonian:
 Ab initio Hamiltonian  Method          .... Hartree-Fock(GTOs)


General Settings:
 Integral files         IntName         .... 12h2o.su.etal.mol3,4,5,7,10-orca.engrad-mp2.def2tzvp.frozencore
 Hartree-Fock type      HFTyp           .... RHF
 Total Charge           Charge          ....    0
 Multiplicity           Mult            ....    1
 Number of Electrons    NEL             ....   50
 Basis Dimension        Dim             ....  215
 Nuclear Repulsion      ENuc            ....    206.8561321572 Eh

Convergence Acceleration:
 DIIS                   CNVDIIS         .... on
   Start iteration      DIISMaxIt       ....    12
   Startup error        DIISStart       ....  0.200000
   # of expansion vecs  DIISMaxEq       ....     5
   Bias factor          DIISBfac        ....   1.050
   Max. coefficient     DIISMaxC        ....  10.000
 Newton-Raphson         CNVNR           .... off
 SOSCF                  CNVSOSCF        .... on
   Start iteration      SOSCFMaxIt      ....   150
   Startup grad/error   SOSCFStart      ....  0.003300
 Level Shifting         CNVShift        .... on
   Level shift para.    LevelShift      ....    0.2500
   Turn off err/grad.   ShiftErr        ....    0.0010
 Zerner damping         CNVZerner       .... off
 Static damping         CNVDamp         .... on
   Fraction old density DampFac         ....    0.7000
   Max. Damping (<1)    DampMax         ....    0.9800
   Min. Damping (>=0)   DampMin         ....    0.0000
   Turn off err/grad.   DampErr         ....    0.1000
 Fernandez-Rico         CNVRico         .... off

SCF Procedure:
 Maximum # iterations   MaxIter         ....   125
 SCF integral mode      SCFMode         .... Direct
   Integral package                     .... LIBINT
 Reset frequency        DirectResetFreq ....    20
 Integral Threshold     Thresh          ....  2.500e-11 Eh
 Primitive CutOff       TCut            ....  2.500e-12 Eh

Convergence Tolerance:
 Convergence Check Mode ConvCheckMode   .... Total+1el-Energy
 Convergence forced     ConvForced      .... 1
 Energy Change          TolE            ....  1.000e-08 Eh
 1-El. energy change                    ....  1.000e-05 Eh
 Orbital Gradient       TolG            ....  1.000e-05
 Orbital Rotation angle TolX            ....  1.000e-05
 DIIS Error             TolErr          ....  5.000e-07


Diagonalization of the overlap matrix:
Smallest eigenvalue                        ... 3.641e-03
Time for diagonalization                   ...    0.005 sec
Threshold for overlap eigenvalues          ... 1.000e-08
Number of eigenvalues below threshold      ... 0
Time for construction of square roots      ...    0.003 sec
Total time needed                          ...    0.008 sec

-------------------
DFT GRID GENERATION
-------------------

General Integration Accuracy     IntAcc      ...  4.340
Radial Grid Type                 RadialGrid  ... Gauss-Chebyshev
Angular Grid (max. acc.)         AngularGrid ... Lebedev-110
Angular grid pruning method      GridPruning ... 3 (G Style)
Weight generation scheme         WeightScheme... Becke
Basis function cutoff            BFCut       ...    1.0000e-11
Integration weight cutoff        WCut        ...    1.0000e-14
Grids for H and He will be reduced by one unit

# of grid points (after initial pruning)     ...  16520 (   0.0 sec)
# of grid points (after weights+screening)   ...  15634 (   0.0 sec)
nearest neighbour list constructed           ...    0.0 sec
Grid point re-assignment to atoms done       ...    0.0 sec
Grid point division into batches done        ...    0.0 sec
Reduced shell lists constructed in    0.0 sec

Total number of grid points                  ...    15634
Total number of batches                      ...      251
Average number of points per batch           ...       62
Average number of grid points per atom       ...     1042
Average number of shells per batch           ...    59.14 (62.25%)
Average number of basis functions per batch  ...   125.65 (58.44%)
Average number of large shells per batch     ...    43.37 (73.34%)
Average number of large basis fcns per batch ...    87.51 (69.65%)
Maximum spatial batch extension              ...  15.87, 15.19, 14.40 au
Average spatial batch extension              ...   0.66,  0.71,  0.56 au

Time for grid setup =    0.039 sec

------------------------------
INITIAL GUESS: MODEL POTENTIAL
------------------------------
Loading Hartree-Fock densities                     ... done
Calculating cut-offs                               ... done
Setting up the integral package                    ... done
Initializing the effective Hamiltonian             ... done
Starting the Coulomb interaction                   ... done (   0.0 sec)
Reading the grid                                   ... done
Mapping shells                                     ... done
Starting the XC term evaluation                    ... done (   0.0 sec)
Transforming the Hamiltonian                       ... done (   0.0 sec)
Diagonalizing the Hamiltonian                      ... done (   0.0 sec)
Back transforming the eigenvectors                 ... done (   0.0 sec)
Now organizing SCF variables                       ... done
                      ------------------
                      INITIAL GUESS DONE (   0.1 sec)
                      ------------------
--------------
SCF ITERATIONS
--------------
ITER       Energy         Delta-E        Max-DP      RMS-DP      [F,P]     Damp
               ***  Starting incremental Fock matrix formation  ***
  0   -379.8746347321   0.000000000000 0.04472633  0.00105873  0.3432852 0.7000
  1   -380.0447131613  -0.170078429227 0.02965285  0.00073637  0.2166745 0.7000
                               ***Turning on DIIS***
  2   -380.1352115461  -0.090498384813 0.01636794  0.00041432  0.1633923 0.7000
  3   -380.9591219512  -0.823910405055 0.00734927  0.00019335  0.1217959 0.7000
  4   -380.7938602793   0.165261671864 0.01605094  0.00045136  0.0861820 0.0000
  5   -380.3427557061   0.451104573169 0.00236593  0.00007375  0.0056050 0.0000
                      *** Initiating the SOSCF procedure ***
                           *** Shutting down DIIS ***
                      *** Re-Reading the Fockian *** 
                      *** Removing any level shift *** 
ITER      Energy       Delta-E        Grad      Rot      Max-DP    RMS-DP
  6   -380.31815691   0.0245987963  0.000901  0.000901  0.001508  0.000046
               *** Restarting incremental Fock matrix formation ***
  7   -380.31064343   0.0075134786  0.000277  0.000371  0.000686  0.000020
  8   -380.31065126  -0.0000078296  0.000151  0.000330  0.000592  0.000017
  9   -380.31065314  -0.0000018778  0.000066  0.000050  0.000112  0.000003
 10   -380.31065330  -0.0000001566  0.000010  0.000009  0.000024  0.000001
                  ***Gradient check signals convergence***
              ***Rediagonalizing the Fockian in SOSCF/NRSCF***

               *****************************************************
               *                     SUCCESS                       *
               *           SCF CONVERGED AFTER  11 CYCLES          *
               *****************************************************


----------------
TOTAL SCF ENERGY
----------------

Total Energy       :         -380.31065330 Eh          -10348.77900 eV

Components:
Nuclear Repulsion  :          206.85613216 Eh            5628.84152 eV
Electronic Energy  :         -587.16678546 Eh          -15977.62052 eV
One Electron Energy:         -937.03914870 Eh          -25498.13154 eV
Two Electron Energy:          349.87236325 Eh            9520.51102 eV

Virial components:
Potential Energy   :         -760.15595816 Eh          -20684.89522 eV
Kinetic Energy     :          379.84530486 Eh           10336.11622 eV
Virial Ratio       :            2.00122510


---------------
SCF CONVERGENCE
---------------

  Last Energy change         ...   -4.4305e-09  Tolerance :   1.0000e-08
  Last MAX-Density change    ...    5.7854e-06  Tolerance :   1.0000e-07
  Last RMS-Density change    ...    1.5778e-07  Tolerance :   5.0000e-09
  Last Orbital Gradient      ...    2.0115e-06  Tolerance :   1.0000e-05
  Last Orbital Rotation      ...    2.1758e-06  Tolerance :   1.0000e-05

             **** THE GBW FILE WAS UPDATED (12h2o.su.etal.mol3,4,5,7,10-orca.engrad-mp2.def2tzvp.frozencore.gbw) ****
             **** DENSITY FILE WAS UPDATED (12h2o.su.etal.mol3,4,5,7,10-orca.engrad-mp2.def2tzvp.frozencore.scfp) ****
             **** ENERGY FILE WAS UPDATED (12h2o.su.etal.mol3,4,5,7,10-orca.engrad-mp2.def2tzvp.frozencore.en.tmp) ****
             **** THE GBW FILE WAS UPDATED (12h2o.su.etal.mol3,4,5,7,10-orca.engrad-mp2.def2tzvp.frozencore.gbw) ****
             **** DENSITY FILE WAS UPDATED (12h2o.su.etal.mol3,4,5,7,10-orca.engrad-mp2.def2tzvp.frozencore.scfp) ****
----------------
ORBITAL ENERGIES
----------------

  NO   OCC          E(Eh)            E(eV) 
   0   2.0000     -20.614584      -560.9513 
   1   2.0000     -20.586626      -560.1906 
   2   2.0000     -20.585838      -560.1691 
   3   2.0000     -20.534331      -558.7675 
   4   2.0000     -20.495446      -557.7094 
   5   2.0000      -1.397062       -38.0160 
   6   2.0000      -1.378510       -37.5112 
   7   2.0000      -1.368214       -37.2310 
   8   2.0000      -1.319047       -35.8931 
   9   2.0000      -1.279627       -34.8204 
  10   2.0000      -0.752221       -20.4690 
  11   2.0000      -0.746283       -20.3074 
  12   2.0000      -0.732761       -19.9394 
  13   2.0000      -0.704146       -19.1608 
  14   2.0000      -0.666191       -18.1280 
  15   2.0000      -0.644927       -17.5493 
  16   2.0000      -0.623023       -16.9533 
  17   2.0000      -0.599158       -16.3039 
  18   2.0000      -0.574112       -15.6224 
  19   2.0000      -0.553023       -15.0485 
  20   2.0000      -0.543346       -14.7852 
  21   2.0000      -0.515914       -14.0387 
  22   2.0000      -0.507484       -13.8094 
  23   2.0000      -0.479052       -13.0357 
  24   2.0000      -0.446413       -12.1475 
  25   0.0000       0.078479         2.1355 
  26   0.0000       0.141881         3.8608 
  27   0.0000       0.151574         4.1245 
  28   0.0000       0.163979         4.4621 
  29   0.0000       0.202795         5.5183 
  30   0.0000       0.249247         6.7824 
  31   0.0000       0.268991         7.3196 
  32   0.0000       0.304738         8.2924 
  33   0.0000       0.336030         9.1438 
  34   0.0000       0.343747         9.3538 
  35   0.0000       0.429265        11.6809 
  36   0.0000       0.465500        12.6669 
  37   0.0000       0.484755        13.1908 
  38   0.0000       0.503114        13.6904 
  39   0.0000       0.536429        14.5970 
  40   0.0000       0.546495        14.8709 
  41   0.0000       0.558308        15.1923 
  42   0.0000       0.569169        15.4879 
  43   0.0000       0.573903        15.6167 
  44   0.0000       0.601296        16.3621 
  45   0.0000       0.616935        16.7877 
  46   0.0000       0.634972        17.2785 
  47   0.0000       0.648573        17.6486 
  48   0.0000       0.671932        18.2842 
  49   0.0000       0.694753        18.9052 
  50   0.0000       0.704948        19.1826 
  51   0.0000       0.711062        19.3490 
  52   0.0000       0.751243        20.4424 
  53   0.0000       0.766786        20.8653 
  54   0.0000       0.784928        21.3590 
  55   0.0000       0.792048        21.5527 
  56   0.0000       0.816305        22.2128 
  57   0.0000       0.832025        22.6406 
  58   0.0000       0.856737        23.3130 
  59   0.0000       0.902431        24.5564 
  60   0.0000       0.959926        26.1209 
  61   0.0000       0.975156        26.5354 
  62   0.0000       1.023349        27.8467 
  63   0.0000       1.070693        29.1350 
  64   0.0000       1.104277        30.0489 
  65   0.0000       1.334497        36.3135 
  66   0.0000       1.361659        37.0526 
  67   0.0000       1.378099        37.5000 
  68   0.0000       1.401092        38.1257 
  69   0.0000       1.424173        38.7537 
  70   0.0000       1.451174        39.4884 
  71   0.0000       1.457644        39.6645 
  72   0.0000       1.469008        39.9737 
  73   0.0000       1.523826        41.4654 
  74   0.0000       1.534409        41.7534 
  75   0.0000       1.549252        42.1573 
  76   0.0000       1.592294        43.3285 
  77   0.0000       1.595879        43.4261 
  78   0.0000       1.623481        44.1772 
  79   0.0000       1.688564        45.9482 
  80   0.0000       1.770358        48.1739 
  81   0.0000       1.791402        48.7465 
  82   0.0000       1.815146        49.3926 
  83   0.0000       1.855754        50.4976 
  84   0.0000       1.882419        51.2232 
  85   0.0000       1.921806        52.2950 
  86   0.0000       1.954635        53.1883 
  87   0.0000       1.969364        53.5891 
  88   0.0000       1.981648        53.9234 
  89   0.0000       2.038496        55.4703 
  90   0.0000       2.051162        55.8150 
  91   0.0000       2.070747        56.3479 
  92   0.0000       2.151751        58.5521 
  93   0.0000       2.172423        59.1146 
  94   0.0000       2.183166        59.4070 
  95   0.0000       2.239303        60.9345 
  96   0.0000       2.263734        61.5993 
  97   0.0000       2.292562        62.3838 
  98   0.0000       2.317997        63.0759 
  99   0.0000       2.331518        63.4438 
 100   0.0000       2.354265        64.0628 
 101   0.0000       2.368375        64.4468 
 102   0.0000       2.394545        65.1589 
 103   0.0000       2.417908        65.7946 
 104   0.0000       2.445017        66.5323 
 105   0.0000       2.453874        66.7733 
 106   0.0000       2.513515        68.3962 
 107   0.0000       2.537730        69.0552 
 108   0.0000       2.552696        69.4624 
 109   0.0000       2.554928        69.5231 
 110   0.0000       2.586283        70.3763 
 111   0.0000       2.602136        70.8077 
 112   0.0000       2.627966        71.5106 
 113   0.0000       2.639061        71.8125 
 114   0.0000       2.648726        72.0755 
 115   0.0000       2.682162        72.9853 
 116   0.0000       2.693218        73.2862 
 117   0.0000       2.746762        74.7432 
 118   0.0000       2.782881        75.7260 
 119   0.0000       2.799227        76.1708 
 120   0.0000       2.880437        78.3807 
 121   0.0000       2.897089        78.8338 
 122   0.0000       2.913384        79.2772 
 123   0.0000       2.943598        80.0994 
 124   0.0000       2.965333        80.6908 
 125   0.0000       2.974145        80.9306 
 126   0.0000       3.000796        81.6558 
 127   0.0000       3.046677        82.9043 
 128   0.0000       3.072790        83.6149 
 129   0.0000       3.084563        83.9352 
 130   0.0000       3.126931        85.0881 
 131   0.0000       3.159244        85.9674 
 132   0.0000       3.188984        86.7767 
 133   0.0000       3.231670        87.9382 
 134   0.0000       3.290629        89.5426 
 135   0.0000       3.328132        90.5631 
 136   0.0000       3.332808        90.6903 
 137   0.0000       3.390793        92.2682 
 138   0.0000       3.473233        94.5115 
 139   0.0000       3.527637        95.9919 
 140   0.0000       3.987485       108.5050 
 141   0.0000       4.046526       110.1116 
 142   0.0000       4.074166       110.8637 
 143   0.0000       4.117244       112.0359 
 144   0.0000       4.156936       113.1160 
 145   0.0000       4.250531       115.6628 
 146   0.0000       4.294579       116.8614 
 147   0.0000       4.318388       117.5093 
 148   0.0000       4.391271       119.4926 
 149   0.0000       4.406874       119.9171 
 150   0.0000       5.493153       149.4763 
 151   0.0000       5.514976       150.0701 
 152   0.0000       5.520488       150.2201 
 153   0.0000       5.574330       151.6852 
 154   0.0000       5.606941       152.5726 
 155   0.0000       5.618572       152.8891 
 156   0.0000       5.644285       153.5888 
 157   0.0000       5.656417       153.9189 
 158   0.0000       5.672289       154.3508 
 159   0.0000       5.716766       155.5611 
 160   0.0000       5.766528       156.9152 
 161   0.0000       5.791024       157.5818 
 162   0.0000       5.802409       157.8916 
 163   0.0000       5.805059       157.9637 
 164   0.0000       5.820436       158.3821 
 165   0.0000       5.834686       158.7699 
 166   0.0000       5.835883       158.8024 
 167   0.0000       5.860226       159.4649 
 168   0.0000       5.864625       159.5846 
 169   0.0000       5.872995       159.8123 
 170   0.0000       5.878090       159.9510 
 171   0.0000       5.895056       160.4126 
 172   0.0000       5.931504       161.4044 
 173   0.0000       5.952569       161.9776 
 174   0.0000       5.965172       162.3206 
 175   0.0000       6.417077       174.6176 
 176   0.0000       6.442463       175.3083 
 177   0.0000       6.466385       175.9593 
 178   0.0000       6.492704       176.6754 
 179   0.0000       6.525850       177.5774 
 180   0.0000       6.646978       180.8735 
 181   0.0000       6.696441       182.2194 
 182   0.0000       6.708036       182.5349 
 183   0.0000       6.732126       183.1905 
 184   0.0000       6.766125       184.1156 
 185   0.0000       6.826986       185.7717 
 186   0.0000       6.841890       186.1773 
 187   0.0000       6.856159       186.5656 
 188   0.0000       6.872107       186.9995 
 189   0.0000       6.885900       187.3749 
 190   0.0000       6.898997       187.7313 
 191   0.0000       6.911639       188.0753 
 192   0.0000       6.937313       188.7739 
 193   0.0000       6.952359       189.1833 
 194   0.0000       6.962917       189.4706 
 195   0.0000       6.974325       189.7810 
 196   0.0000       6.997796       190.4197 
 197   0.0000       7.033611       191.3943 
 198   0.0000       7.036771       191.4803 
 199   0.0000       7.089083       192.9037 
 200   0.0000       7.341894       199.7831 
 201   0.0000       7.410675       201.6547 
 202   0.0000       7.413007       201.7182 
 203   0.0000       7.461607       203.0406 
 204   0.0000       7.490843       203.8362 
 205   0.0000       7.508855       204.3263 
 206   0.0000       7.527781       204.8413 
 207   0.0000       7.555641       205.5994 
 208   0.0000       7.576051       206.1548 
 209   0.0000       7.658936       208.4102 
 210   0.0000      44.889491      1221.5051 
 211   0.0000      44.959360      1223.4064 
 212   0.0000      44.992468      1224.3073 
 213   0.0000      45.035366      1225.4746 
 214   0.0000      45.079478      1226.6750 

                    ********************************
                    * MULLIKEN POPULATION ANALYSIS *
                    ********************************

-----------------------
MULLIKEN ATOMIC CHARGES
-----------------------
   0 O :   -0.720407
   1 H :    0.407525
   2 H :    0.343560
   3 O :   -0.770513
   4 H :    0.383065
   5 H :    0.358579
   6 O :   -0.715866
   7 H :    0.389713
   8 H :    0.358576
   9 O :   -0.771991
  10 H :    0.375251
  11 H :    0.390770
  12 O :   -0.765616
  13 H :    0.342022
  14 H :    0.395332
Sum of atomic charges:   -0.0000000

--------------------------------
MULLIKEN REDUCED ORBITAL CHARGES
--------------------------------
  0 O s       :     3.797833  s :     3.797833
      pz      :     1.578143  p :     4.895941
      px      :     1.535126
      py      :     1.782672
      dz2     :     0.011952  d :     0.025228
      dxz     :     0.001187
      dyz     :     0.002420
      dx2y2   :     0.002533
      dxy     :     0.007137
      f0      :     0.000227  f :     0.001405
      f+1     :     0.000382
      f-1     :     0.000157
      f+2     :     0.000051
      f-2     :     0.000056
      f+3     :     0.000054
      f-3     :     0.000479
  1 H s       :     0.544645  s :     0.544645
      pz      :     0.024979  p :     0.047830
      px      :     0.011034
      py      :     0.011817
  2 H s       :     0.612327  s :     0.612327
      pz      :     0.010808  p :     0.044112
      px      :     0.018192
      py      :     0.015112
  3 O s       :     3.804723  s :     3.804723
      pz      :     1.588381  p :     4.940269
      px      :     1.870885
      py      :     1.481003
      dz2     :     0.010832  d :     0.024124
      dxz     :     0.002452
      dyz     :     0.002750
      dx2y2   :     0.003045
      dxy     :     0.005045
      f0      :     0.000164  f :     0.001398
      f+1     :     0.000117
      f-1     :     0.000440
      f+2     :     0.000077
      f-2     :     0.000040
      f+3     :     0.000444
      f-3     :     0.000117
  4 H s       :     0.567958  s :     0.567958
      pz      :     0.024514  p :     0.048977
      px      :     0.013164
      py      :     0.011299
  5 H s       :     0.587015  s :     0.587015
      pz      :     0.010173  p :     0.054405
      px      :     0.016230
      py      :     0.028002
  6 O s       :     3.807970  s :     3.807970
      pz      :     1.547043  p :     4.880171
      px      :     1.844143
      py      :     1.488985
      dz2     :     0.012292  d :     0.026303
      dxz     :     0.002379
      dyz     :     0.003059
      dx2y2   :     0.003638
      dxy     :     0.004935
      f0      :     0.000168  f :     0.001421
      f+1     :     0.000116
      f-1     :     0.000473
      f+2     :     0.000067
      f-2     :     0.000041
      f+3     :     0.000450
      f-3     :     0.000105
  7 H s       :     0.568258  s :     0.568258
      pz      :     0.009484  p :     0.042028
      px      :     0.013486
      py      :     0.019059
  8 H s       :     0.597392  s :     0.597392
      pz      :     0.018980  p :     0.044032
      px      :     0.013472
      py      :     0.011581
  9 O s       :     3.801395  s :     3.801395
      pz      :     1.565385  p :     4.946336
      px      :     1.522170
      py      :     1.858781
      dz2     :     0.010427  d :     0.022875
      dxz     :     0.002486
      dyz     :     0.002025
      dx2y2   :     0.003146
      dxy     :     0.004792
      f0      :     0.000194  f :     0.001385
      f+1     :     0.000444
      f-1     :     0.000115
      f+2     :     0.000071
      f-2     :     0.000038
      f+3     :     0.000102
      f-3     :     0.000422
 10 H s       :     0.580846  s :     0.580846
      pz      :     0.018943  p :     0.043903
      px      :     0.011793
      py      :     0.013167
 11 H s       :     0.556725  s :     0.556725
      pz      :     0.008784  p :     0.052505
      px      :     0.029165
      py      :     0.014555
 12 O s       :     3.807859  s :     3.807859
      pz      :     1.709859  p :     4.933143
      px      :     1.810332
      py      :     1.412952
      dz2     :     0.003749  d :     0.023180
      dxz     :     0.005481
      dyz     :     0.004314
      dx2y2   :     0.002279
      dxy     :     0.007357
      f0      :     0.000080  f :     0.001435
      f+1     :     0.000179
      f-1     :     0.000313
      f+2     :     0.000070
      f-2     :     0.000350
      f+3     :     0.000355
      f-3     :     0.000089
 13 H s       :     0.612117  s :     0.612117
      pz      :     0.016854  p :     0.045861
      px      :     0.015074
      py      :     0.013932
 14 H s       :     0.548103  s :     0.548103
      pz      :     0.010385  p :     0.056565
      px      :     0.014063
      py      :     0.032117


                     *******************************
                     * LOEWDIN POPULATION ANALYSIS *
                     *******************************

----------------------
LOEWDIN ATOMIC CHARGES
----------------------
   0 O :   -0.283194
   1 H :    0.165267
   2 H :    0.164748
   3 O :   -0.377196
   4 H :    0.151576
   5 H :    0.139280
   6 O :   -0.295910
   7 H :    0.189695
   8 H :    0.169005
   9 O :   -0.309588
  10 H :    0.175089
  11 H :    0.154513
  12 O :   -0.347362
  13 H :    0.151240
  14 H :    0.152837

-------------------------------
LOEWDIN REDUCED ORBITAL CHARGES
-------------------------------
  0 O s       :     3.453939  s :     3.453939
      pz      :     1.545646  p :     4.794675
      px      :     1.523861
      py      :     1.725168
      dz2     :     0.015461  d :     0.032445
      dxz     :     0.001688
      dyz     :     0.001832
      dx2y2   :     0.003849
      dxy     :     0.009615
      f0      :     0.000404  f :     0.002135
      f+1     :     0.000563
      f-1     :     0.000335
      f+2     :     0.000021
      f-2     :     0.000045
      f+3     :     0.000027
      f-3     :     0.000740
  1 H s       :     0.662761  s :     0.662761
      pz      :     0.094896  p :     0.171972
      px      :     0.035797
      py      :     0.041279
  2 H s       :     0.677417  s :     0.677417
      pz      :     0.031480  p :     0.157835
      px      :     0.071480
      py      :     0.054875
  3 O s       :     3.464509  s :     3.464509
      pz      :     1.572425  p :     4.881512
      px      :     1.835686
      py      :     1.473401
      dz2     :     0.013498  d :     0.029217
      dxz     :     0.001546
      dyz     :     0.003742
      dx2y2   :     0.004089
      dxy     :     0.006342
      f0      :     0.000341  f :     0.001958
      f+1     :     0.000188
      f-1     :     0.000702
      f+2     :     0.000043
      f-2     :     0.000042
      f+3     :     0.000574
      f-3     :     0.000069
  4 H s       :     0.675099  s :     0.675099
      pz      :     0.093293  p :     0.173325
      px      :     0.042929
      py      :     0.037103
  5 H s       :     0.677012  s :     0.677012
      pz      :     0.031146  p :     0.183709
      px      :     0.052954
      py      :     0.099609
  6 O s       :     3.469026  s :     3.469026
      pz      :     1.544335  p :     4.791802
      px      :     1.783697
      py      :     1.463771
      dz2     :     0.015819  d :     0.032999
      dxz     :     0.001487
      dyz     :     0.004279
      dx2y2   :     0.005221
      dxy     :     0.006193
      f0      :     0.000371  f :     0.002083
      f+1     :     0.000209
      f-1     :     0.000753
      f+2     :     0.000042
      f-2     :     0.000045
      f+3     :     0.000594
      f-3     :     0.000070
  7 H s       :     0.655974  s :     0.655974
      pz      :     0.028777  p :     0.154332
      px      :     0.048998
      py      :     0.076557
  8 H s       :     0.672368  s :     0.672368
      pz      :     0.079897  p :     0.158626
      px      :     0.043002
      py      :     0.035727
  9 O s       :     3.455806  s :     3.455806
      pz      :     1.535723  p :     4.821888
      px      :     1.489822
      py      :     1.796343
      dz2     :     0.014303  d :     0.029894
      dxz     :     0.003848
      dyz     :     0.001322
      dx2y2   :     0.004609
      dxy     :     0.005812
      f0      :     0.000380  f :     0.002000
      f+1     :     0.000726
      f-1     :     0.000198
      f+2     :     0.000039
      f-2     :     0.000046
      f+3     :     0.000067
      f-3     :     0.000543
 10 H s       :     0.665039  s :     0.665039
      pz      :     0.079946  p :     0.159872
      px      :     0.036851
      py      :     0.043075
 11 H s       :     0.658563  s :     0.658563
      pz      :     0.029173  p :     0.186924
      px      :     0.104970
      py      :     0.052781
 12 O s       :     3.461923  s :     3.461923
      pz      :     1.677852  p :     4.853727
      px      :     1.782073
      py      :     1.393802
      dz2     :     0.004751  d :     0.029711
      dxz     :     0.005725
      dyz     :     0.006882
      dx2y2   :     0.003278
      dxy     :     0.009075
      f0      :     0.000086  f :     0.002001
      f+1     :     0.000263
      f-1     :     0.000432
      f+2     :     0.000034
      f-2     :     0.000621
      f+3     :     0.000480
      f-3     :     0.000085
 13 H s       :     0.683908  s :     0.683908
      pz      :     0.065896  p :     0.164853
      px      :     0.053296
      py      :     0.045660
 14 H s       :     0.652018  s :     0.652018
      pz      :     0.033621  p :     0.195145
      px      :     0.047623
      py      :     0.113901


                      *****************************
                      * MAYER POPULATION ANALYSIS *
                      *****************************

  NA   - Mulliken gross atomic population
  ZA   - Total nuclear charge
  QA   - Mulliken gross atomic charge
  VA   - Mayer's total valence
  BVA  - Mayer's bonded valence
  FA   - Mayer's free valence

  ATOM       NA         ZA         QA         VA         BVA        FA
  0 O      8.7204     8.0000    -0.7204     1.7597     1.7597    -0.0000
  1 H      0.5925     1.0000     0.4075     0.8604     0.8604    -0.0000
  2 H      0.6564     1.0000     0.3436     0.8981     0.8981    -0.0000
  3 O      8.7705     8.0000    -0.7705     1.7013     1.7013     0.0000
  4 H      0.6169     1.0000     0.3831     0.8850     0.8850     0.0000
  5 H      0.6414     1.0000     0.3586     0.9071     0.9071     0.0000
  6 O      8.7159     8.0000    -0.7159     1.7763     1.7763    -0.0000
  7 H      0.6103     1.0000     0.3897     0.8654     0.8654     0.0000
  8 H      0.6414     1.0000     0.3586     0.8854     0.8854    -0.0000
  9 O      8.7720     8.0000    -0.7720     1.6977     1.6977    -0.0000
 10 H      0.6247     1.0000     0.3753     0.8760     0.8760     0.0000
 11 H      0.6092     1.0000     0.3908     0.8866     0.8866     0.0000
 12 O      8.7656     8.0000    -0.7656     1.6948     1.6948    -0.0000
 13 H      0.6580     1.0000     0.3420     0.8991     0.8991     0.0000
 14 H      0.6047     1.0000     0.3953     0.8807     0.8807    -0.0000

  Mayer bond orders larger than 0.100000
B(  0-O ,  1-H ) :   0.8283 B(  0-O ,  2-H ) :   0.8889 B(  3-O ,  4-H ) :   0.8501 
B(  3-O ,  5-H ) :   0.8592 B(  6-O ,  7-H ) :   0.8519 B(  6-O ,  8-H ) :   0.8787 
B(  9-O , 10-H ) :   0.8679 B(  9-O , 11-H ) :   0.8073 B( 12-O , 13-H ) :   0.8907 
B( 12-O , 14-H ) :   0.8042 

-------
TIMINGS
-------

Total SCF time: 0 days 0 hours 0 min 8 sec 

Total time                  ....       8.196 sec
Sum of individual times     ....       8.018 sec  ( 97.8%)

Fock matrix formation       ....       7.791 sec  ( 95.1%)
Diagonalization             ....       0.044 sec  (  0.5%)
Density matrix formation    ....       0.004 sec  (  0.1%)
Population analysis         ....       0.005 sec  (  0.1%)
Initial guess               ....       0.101 sec  (  1.2%)
Orbital Transformation      ....       0.000 sec  (  0.0%)
Orbital Orthonormalization  ....       0.000 sec  (  0.0%)
DIIS solution               ....       0.016 sec  (  0.2%)
SOSCF solution              ....       0.019 sec  (  0.2%)


           ************************************************************
           *        Program running with 6 parallel MPI-processes     *
           *              working on a common directory               *
           ************************************************************

------------------------------------------------------------------------------
                                ORCA  MP2 
------------------------------------------------------------------------------

Freezing NCore=10 chemical core electrons
MP2 will be done in the AO integral direct mode
The Q1-step will be done using symmetric double matrices
Dimension of the basis                    ...  215
Memory devoted for MP2                    ... 8000 MB   
Memory needed for all in one shot         ...  153 MB
Number of MOs that can be treated together...  209      
MP2 density construction                  ... relaxed
The MP2 gradient is requested => amplitudes will be stored on disk
Total number of MOs              ...   20
Number of MOs treated per batch  ...    4 
Number of batches necessary      ...    1 
OPERATORS   0/  0 PASS   0
-----------------------------------------------
 MP2 CORRELATION ENERGY   :     -1.294412794 Eh
-----------------------------------------------


---------------------
MP2 DENSITY FORMATION
---------------------

Completing the external part of the density      ... done
Storing the unrelaxed density                    ... done

Calculating G(D)                                 ... done
Completing the Lagrangian                        ... done
Solving the Z-vector equations                   ... 

------------------------------------------------------------------------------
                           ORCA CP-SCF CALCULATION
------------------------------------------------------------------------------

Input orbitals are from        ... 12h2o.su.etal.mol3,4,5,7,10-orca.engrad-mp2.def2tzvp.frozencore.gbw
Input Perturbation             ... 12h2o.su.etal.mol3,4,5,7,10-orca.engrad-mp2.def2tzvp.frozencore.pin.tmp
Wavefunction output            ... 12h2o.su.etal.mol3,4,5,7,10-orca.engrad-mp2.def2tzvp.frozencore.pout.tmp
Perturbation mode              ... Real perturbation (singlet)
Solver                         ... POPLE
Max. number of iterations      ... 128
Convergence tolerance          ... 1.000e-08
Integral handling              ... Direct
Number of perturbations        ... 1
Number of operators            ... 1
Orbital ranges used for CP-SCF:
 Operator 0:  Orbitals   0... 24  to  25...214
Variables per vector in CP-SCF ... 4750
Number of vectors sought       ... 1
     CP-SCF ITERATION   0: 
     CP-SCF ITERATION   1:      0.000633977599
     CP-SCF ITERATION   2:      0.000016265749
     CP-SCF ITERATION   3:      0.000000690329
     CP-SCF ITERATION   4:      0.000000071725
     CP-SCF ITERATION   5:      0.000000006062
                                                 ... done
Finalizing the relaxed density                   ... done
Transforming P to the AO basis                   ... done
Storing the relaxed density                      ... done

------------------------------------
ENERGY WEIGHTED DENSITY FINALIZATION
------------------------------------

Gathering the parts of the W-matrix              ...                                                      done
Forming the Z-density                            ... done
Transforming Z to the AO basis                   ... done
Calculating G(Z)                                 ... done
Finalizing the W-matrix                          ...                                                      done
Transforming W to the AO basis and storing       ... done

                *********************************************
                * UNRELAXED MP2 DENSITY POPULATION ANALYSIS *
                *********************************************

------------------------------------------------------------------------------
                           ORCA POPULATION ANALYSIS
------------------------------------------------------------------------------
Input electron density              ... 12h2o.su.etal.mol3,4,5,7,10-orca.engrad-mp2.def2tzvp.frozencore.pmp2ur
BaseName (.gbw .S,...)              ... 12h2o.su.etal.mol3,4,5,7,10-orca.engrad-mp2.def2tzvp.frozencore

                    ********************************
                    * MULLIKEN POPULATION ANALYSIS *
                    ********************************

-----------------------
MULLIKEN ATOMIC CHARGES
-----------------------
   0 O :   -0.713793
   1 H :    0.404539
   2 H :    0.341038
   3 O :   -0.764284
   4 H :    0.379909
   5 H :    0.354343
   6 O :   -0.709459
   7 H :    0.386971
   8 H :    0.356158
   9 O :   -0.765231
  10 H :    0.372893
  11 H :    0.386236
  12 O :   -0.759708
  13 H :    0.339712
  14 H :    0.390677
Sum of atomic charges:   -0.0000000

--------------------------------
MULLIKEN REDUCED ORBITAL CHARGES
--------------------------------
  0 O s       :     3.792666  s :     3.792666
      pz      :     1.568409  p :     4.864614
      px      :     1.525862
      py      :     1.770343
      dz2     :     0.017167  d :     0.052513
      dxz     :     0.006632
      dyz     :     0.008037
      dx2y2   :     0.008166
      dxy     :     0.012511
      f0      :     0.000612  f :     0.004000
      f+1     :     0.000751
      f-1     :     0.000536
      f+2     :     0.000414
      f-2     :     0.000423
      f+3     :     0.000428
      f-3     :     0.000838
  1 H s       :     0.546193  s :     0.546193
      pz      :     0.025015  p :     0.049268
      px      :     0.011653
      py      :     0.012600
  2 H s       :     0.613206  s :     0.613206
      pz      :     0.011616  p :     0.045757
      px      :     0.018388
      py      :     0.015754
  3 O s       :     3.799735  s :     3.799735
      pz      :     1.578534  p :     4.909267
      px      :     1.858868
      py      :     1.471865
      dz2     :     0.016069  d :     0.051305
      dxz     :     0.008020
      dyz     :     0.008183
      dx2y2   :     0.008563
      dxy     :     0.010470
      f0      :     0.000549  f :     0.003977
      f+1     :     0.000489
      f-1     :     0.000810
      f+2     :     0.000441
      f-2     :     0.000406
      f+3     :     0.000799
      f-3     :     0.000482
  4 H s       :     0.569552  s :     0.569552
      pz      :     0.024608  p :     0.050539
      px      :     0.014011
      py      :     0.011919
  5 H s       :     0.589452  s :     0.589452
      pz      :     0.011049  p :     0.056205
      px      :     0.016992
      py      :     0.028164
  6 O s       :     3.802833  s :     3.802833
      pz      :     1.537678  p :     4.849434
      px      :     1.831461
      py      :     1.480295
      dz2     :     0.017344  d :     0.053200
      dxz     :     0.007938
      dyz     :     0.008338
      dx2y2   :     0.009168
      dxy     :     0.010412
      f0      :     0.000550  f :     0.003993
      f+1     :     0.000489
      f-1     :     0.000836
      f+2     :     0.000431
      f-2     :     0.000406
      f+3     :     0.000806
      f-3     :     0.000475
  7 H s       :     0.569528  s :     0.569528
      pz      :     0.010263  p :     0.043502
      px      :     0.014176
      py      :     0.019062
  8 H s       :     0.598202  s :     0.598202
      pz      :     0.019136  p :     0.045640
      px      :     0.014319
      py      :     0.012184
  9 O s       :     3.796145  s :     3.796145
      pz      :     1.555775  p :     4.914306
      px      :     1.512624
      py      :     1.845907
      dz2     :     0.015841  d :     0.050792
      dxz     :     0.007976
      dyz     :     0.007751
      dx2y2   :     0.008853
      dxy     :     0.010372
      f0      :     0.000579  f :     0.003988
      f+1     :     0.000813
      f-1     :     0.000491
      f+2     :     0.000438
      f-2     :     0.000407
      f+3     :     0.000475
      f-3     :     0.000785
 10 H s       :     0.581651  s :     0.581651
      pz      :     0.019072  p :     0.045456
      px      :     0.012387
      py      :     0.013998
 11 H s       :     0.559652  s :     0.559652
      pz      :     0.009562  p :     0.054112
      px      :     0.029310
      py      :     0.015240
 12 O s       :     3.802896  s :     3.802896
      pz      :     1.698974  p :     4.902180
      px      :     1.798926
      py      :     1.404280
      dz2     :     0.009385  d :     0.050616
      dxz     :     0.010906
      dyz     :     0.009798
      dx2y2   :     0.007810
      dxy     :     0.012717
      f0      :     0.000452  f :     0.004016
      f+1     :     0.000544
      f-1     :     0.000679
      f+2     :     0.000439
      f-2     :     0.000716
      f+3     :     0.000722
      f-3     :     0.000463
 13 H s       :     0.612746  s :     0.612746
      pz      :     0.017355  p :     0.047542
      px      :     0.015803
      py      :     0.014384
 14 H s       :     0.551095  s :     0.551095
      pz      :     0.011210  p :     0.058228
      px      :     0.014795
      py      :     0.032222


                     *******************************
                     * LOEWDIN POPULATION ANALYSIS *
                     *******************************

----------------------
LOEWDIN ATOMIC CHARGES
----------------------
   0 O :   -0.278863
   1 H :    0.163374
   2 H :    0.163156
   3 O :   -0.374374
   4 H :    0.149525
   5 H :    0.136673
   6 O :   -0.291416
   7 H :    0.188151
   8 H :    0.167596
   9 O :   -0.305298
  10 H :    0.173681
  11 H :    0.151853
  12 O :   -0.344195
  13 H :    0.149897
  14 H :    0.150242

-------------------------------
LOEWDIN REDUCED ORBITAL CHARGES
-------------------------------
  0 O s       :     3.450116  s :     3.450116
      pz      :     1.535946  p :     4.763035
      px      :     1.514338
      py      :     1.712751
      dz2     :     0.021347  d :     0.060784
      dxz     :     0.007088
      dyz     :     0.007380
      dx2y2   :     0.009462
      dxy     :     0.015507
      f0      :     0.000829  f :     0.004929
      f+1     :     0.000986
      f-1     :     0.000737
      f+2     :     0.000389
      f-2     :     0.000420
      f+3     :     0.000406
      f-3     :     0.001160
  1 H s       :     0.661963  s :     0.661963
      pz      :     0.096096  p :     0.174663
      px      :     0.036503
      py      :     0.042064
  2 H s       :     0.675729  s :     0.675729
      pz      :     0.032262  p :     0.161115
      px      :     0.072904
      py      :     0.055949
  3 O s       :     3.460863  s :     3.460863
      pz      :     1.562627  p :     4.851211
      px      :     1.824267
      py      :     1.464318
      dz2     :     0.019359  d :     0.057566
      dxz     :     0.007047
      dyz     :     0.009208
      dx2y2   :     0.009819
      dxy     :     0.012133
      f0      :     0.000756  f :     0.004734
      f+1     :     0.000576
      f-1     :     0.001141
      f+2     :     0.000414
      f-2     :     0.000415
      f+3     :     0.000986
      f-3     :     0.000446
  4 H s       :     0.674257  s :     0.674257
      pz      :     0.094628  p :     0.176217
      px      :     0.043701
      py      :     0.037889
  5 H s       :     0.676571  s :     0.676571
      pz      :     0.032022  p :     0.186756
      px      :     0.053879
      py      :     0.100855
  6 O s       :     3.465120  s :     3.465120
      pz      :     1.534665  p :     4.760519
      px      :     1.770980
      py      :     1.454874
      dz2     :     0.021523  d :     0.060929
      dxz     :     0.006968
      dyz     :     0.009584
      dx2y2   :     0.010915
      dxy     :     0.011939
      f0      :     0.000782  f :     0.004847
      f+1     :     0.000598
      f-1     :     0.001184
      f+2     :     0.000412
      f-2     :     0.000416
      f+3     :     0.001005
      f-3     :     0.000449
  7 H s       :     0.654684  s :     0.654684
      pz      :     0.029537  p :     0.157165
      px      :     0.049869
      py      :     0.077759
  8 H s       :     0.670652  s :     0.670652
      pz      :     0.081486  p :     0.161753
      px      :     0.043786
      py      :     0.036480
  9 O s       :     3.452056  s :     3.452056
      pz      :     1.525424  p :     4.789566
      px      :     1.480524
      py      :     1.783618
      dz2     :     0.020331  d :     0.058874
      dxz     :     0.009371
      dyz     :     0.006974
      dx2y2   :     0.010476
      dxy     :     0.011722
      f0      :     0.000798  f :     0.004803
      f+1     :     0.001166
      f-1     :     0.000591
      f+2     :     0.000414
      f-2     :     0.000421
      f+3     :     0.000451
      f-3     :     0.000962
 10 H s       :     0.663424  s :     0.663424
      pz      :     0.081404  p :     0.162895
      px      :     0.037634
      py      :     0.043856
 11 H s       :     0.658528  s :     0.658528
      pz      :     0.029980  p :     0.189619
      px      :     0.105997
      py      :     0.053642
 12 O s       :     3.458274  s :     3.458274
      pz      :     1.666485  p :     4.822865
      px      :     1.771029
      py      :     1.385351
      dz2     :     0.010479  d :     0.058276
      dxz     :     0.011491
      dyz     :     0.012578
      dx2y2   :     0.008918
      dxy     :     0.014809
      f0      :     0.000470  f :     0.004779
      f+1     :     0.000648
      f-1     :     0.000847
      f+2     :     0.000411
      f-2     :     0.001032
      f+3     :     0.000900
      f-3     :     0.000472
 13 H s       :     0.681983  s :     0.681983
      pz      :     0.067188  p :     0.168120
      px      :     0.054318
      py      :     0.046615
 14 H s       :     0.652143  s :     0.652143
      pz      :     0.034470  p :     0.197615
      px      :     0.048500
      py      :     0.114645


                      *****************************
                      * MAYER POPULATION ANALYSIS *
                      *****************************

  NA   - Mulliken gross atomic population
  ZA   - Total nuclear charge
  QA   - Mulliken gross atomic charge
  VA   - Mayer's total valence
  BVA  - Mayer's bonded valence
  FA   - Mayer's free valence

  ATOM       NA         ZA         QA         VA         BVA        FA
  0 O      8.7138     8.0000    -0.7138     2.0678     1.6801     0.3878
  1 H      0.5955     1.0000     0.4045     0.8663     0.8235     0.0428
  2 H      0.6590     1.0000     0.3410     0.9043     0.8560     0.0483
  3 O      8.7643     8.0000    -0.7643     2.0162     1.6227     0.3935
  4 H      0.6201     1.0000     0.3799     0.8913     0.8464     0.0449
  5 H      0.6457     1.0000     0.3543     0.9150     0.8662     0.0488
  6 O      8.7095     8.0000    -0.7095     2.0841     1.6954     0.3887
  7 H      0.6130     1.0000     0.3870     0.8713     0.8260     0.0453
  8 H      0.6438     1.0000     0.3562     0.8913     0.8445     0.0468
  9 O      8.7652     8.0000    -0.7652     2.0137     1.6202     0.3935
 10 H      0.6271     1.0000     0.3729     0.8815     0.8361     0.0454
 11 H      0.6138     1.0000     0.3862     0.8943     0.8478     0.0465
 12 O      8.7597     8.0000    -0.7597     2.0097     1.6163     0.3934
 13 H      0.6603     1.0000     0.3397     0.9050     0.8575     0.0475
 14 H      0.6093     1.0000     0.3907     0.8884     0.8420     0.0464

  Mayer bond orders larger than 0.100000
B(  0-O ,  1-H ) :   0.7924 B(  0-O ,  2-H ) :   0.8474 B(  3-O ,  4-H ) :   0.8126 
B(  3-O ,  5-H ) :   0.8194 B(  6-O ,  7-H ) :   0.8133 B(  6-O ,  8-H ) :   0.8382 
B(  9-O , 10-H ) :   0.8287 B(  9-O , 11-H ) :   0.7708 B( 12-O , 13-H ) :   0.8498 
B( 12-O , 14-H ) :   0.7677 


                *******************************************
                * RELAXED MP2 DENSITY POPULATION ANALYSIS *
                *******************************************

------------------------------------------------------------------------------
                           ORCA POPULATION ANALYSIS
------------------------------------------------------------------------------
Input electron density              ... 12h2o.su.etal.mol3,4,5,7,10-orca.engrad-mp2.def2tzvp.frozencore.pmp2re
BaseName (.gbw .S,...)              ... 12h2o.su.etal.mol3,4,5,7,10-orca.engrad-mp2.def2tzvp.frozencore

                    ********************************
                    * MULLIKEN POPULATION ANALYSIS *
                    ********************************

-----------------------
MULLIKEN ATOMIC CHARGES
-----------------------
   0 O :   -0.686611
   1 H :    0.390552
   2 H :    0.335025
   3 O :   -0.739870
   4 H :    0.364316
   5 H :    0.334142
   6 O :   -0.685228
   7 H :    0.378842
   8 H :    0.350699
   9 O :   -0.735306
  10 H :    0.365561
  11 H :    0.363858
  12 O :   -0.736285
  13 H :    0.333091
  14 H :    0.367212
Sum of atomic charges:   -0.0000000

--------------------------------
MULLIKEN REDUCED ORBITAL CHARGES
--------------------------------
  0 O s       :     3.792886  s :     3.792886
      pz      :     1.565783  p :     4.839256
      px      :     1.519108
      py      :     1.754365
      dz2     :     0.015982  d :     0.050542
      dxz     :     0.006610
      dyz     :     0.008032
      dx2y2   :     0.008112
      dxy     :     0.011807
      f0      :     0.000595  f :     0.003927
      f+1     :     0.000729
      f-1     :     0.000527
      f+2     :     0.000414
      f-2     :     0.000421
      f+3     :     0.000428
      f-3     :     0.000813
  1 H s       :     0.559827  s :     0.559827
      pz      :     0.024193  p :     0.049621
      px      :     0.012074
      py      :     0.013354
  2 H s       :     0.618463  s :     0.618463
      pz      :     0.012366  p :     0.046512
      px      :     0.017833
      py      :     0.016313
  3 O s       :     3.795964  s :     3.795964
      pz      :     1.574021  p :     4.890556
      px      :     1.851009
      py      :     1.465527
      dz2     :     0.015052  d :     0.049438
      dxz     :     0.008045
      dyz     :     0.007965
      dx2y2   :     0.008344
      dxy     :     0.010033
      f0      :     0.000537  f :     0.003911
      f+1     :     0.000483
      f-1     :     0.000783
      f+2     :     0.000441
      f-2     :     0.000405
      f+3     :     0.000781
      f-3     :     0.000481
  4 H s       :     0.584603  s :     0.584603
      pz      :     0.023960  p :     0.051081
      px      :     0.014858
      py      :     0.012263
  5 H s       :     0.609146  s :     0.609146
      pz      :     0.011823  p :     0.056712
      px      :     0.017678
      py      :     0.027211
  6 O s       :     3.805378  s :     3.805378
      pz      :     1.532289  p :     4.824880
      px      :     1.815727
      py      :     1.476864
      dz2     :     0.016105  d :     0.051051
      dxz     :     0.008006
      dyz     :     0.008084
      dx2y2   :     0.008880
      dxy     :     0.009977
      f0      :     0.000535  f :     0.003918
      f+1     :     0.000483
      f-1     :     0.000808
      f+2     :     0.000430
      f-2     :     0.000404
      f+3     :     0.000784
      f-3     :     0.000473
  7 H s       :     0.577172  s :     0.577172
      pz      :     0.010920  p :     0.043985
      px      :     0.014794
      py      :     0.018272
  8 H s       :     0.602980  s :     0.602980
      pz      :     0.018499  p :     0.046321
      px      :     0.015271
      py      :     0.012551
  9 O s       :     3.797833  s :     3.797833
      pz      :     1.546833  p :     4.884579
      px      :     1.508016
      py      :     1.829731
      dz2     :     0.014754  d :     0.048975
      dxz     :     0.007711
      dyz     :     0.007789
      dx2y2   :     0.008709
      dxy     :     0.010011
      f0      :     0.000567  f :     0.003919
      f+1     :     0.000785
      f-1     :     0.000485
      f+2     :     0.000437
      f-2     :     0.000405
      f+3     :     0.000474
      f-3     :     0.000766
 10 H s       :     0.588349  s :     0.588349
      pz      :     0.018326  p :     0.046090
      px      :     0.012806
      py      :     0.014957
 11 H s       :     0.581648  s :     0.581648
      pz      :     0.010218  p :     0.054494
      px      :     0.028504
      py      :     0.015772
 12 O s       :     3.804463  s :     3.804463
      pz      :     1.688459  p :     4.879126
      px      :     1.794219
      py      :     1.396447
      dz2     :     0.009238  d :     0.048746
      dxz     :     0.010592
      dyz     :     0.009224
      dx2y2   :     0.007694
      dxy     :     0.011998
      f0      :     0.000450  f :     0.003950
      f+1     :     0.000536
      f-1     :     0.000661
      f+2     :     0.000439
      f-2     :     0.000697
      f+3     :     0.000705
      f-3     :     0.000462
 13 H s       :     0.618569  s :     0.618569
      pz      :     0.017498  p :     0.048340
      px      :     0.016440
      py      :     0.014402
 14 H s       :     0.574353  s :     0.574353
      pz      :     0.011959  p :     0.058435
      px      :     0.015309
      py      :     0.031167


                     *******************************
                     * LOEWDIN POPULATION ANALYSIS *
                     *******************************

----------------------
LOEWDIN ATOMIC CHARGES
----------------------
   0 O :   -0.272469
   1 H :    0.159702
   2 H :    0.164910
   3 O :   -0.374318
   4 H :    0.145264
   5 H :    0.130604
   6 O :   -0.285733
   7 H :    0.188831
   8 H :    0.169479
   9 O :   -0.298258
  10 H :    0.175129
  11 H :    0.144652
  12 O :   -0.342307
  13 H :    0.151617
  14 H :    0.142899

-------------------------------
LOEWDIN REDUCED ORBITAL CHARGES
-------------------------------
  0 O s       :     3.451088  s :     3.451088
      pz      :     1.537461  p :     4.756514
      px      :     1.515878
      py      :     1.703176
      dz2     :     0.020817  d :     0.059918
      dxz     :     0.006988
      dyz     :     0.007431
      dx2y2   :     0.009505
      dxy     :     0.015177
      f0      :     0.000832  f :     0.004949
      f+1     :     0.000992
      f-1     :     0.000738
      f+2     :     0.000391
      f-2     :     0.000420
      f+3     :     0.000408
      f-3     :     0.001167
  1 H s       :     0.665580  s :     0.665580
      pz      :     0.095203  p :     0.174717
      px      :     0.036805
      py      :     0.042709
  2 H s       :     0.673697  s :     0.673697
      pz      :     0.032749  p :     0.161394
      px      :     0.072252
      py      :     0.056393
  3 O s       :     3.461605  s :     3.461605
      pz      :     1.563737  p :     4.851164
      px      :     1.820833
      py      :     1.466593
      dz2     :     0.018944  d :     0.056784
      dxz     :     0.007099
      dyz     :     0.009025
      dx2y2   :     0.009731
      dxy     :     0.011985
      f0      :     0.000757  f :     0.004765
      f+1     :     0.000576
      f-1     :     0.001154
      f+2     :     0.000416
      f-2     :     0.000414
      f+3     :     0.000999
      f-3     :     0.000449
  4 H s       :     0.678091  s :     0.678091
      pz      :     0.094094  p :     0.176645
      px      :     0.044487
      py      :     0.038065
  5 H s       :     0.681632  s :     0.681632
      pz      :     0.032678  p :     0.187765
      px      :     0.054687
      py      :     0.100399
  6 O s       :     3.466760  s :     3.466760
      pz      :     1.535977  p :     4.754299
      px      :     1.760158
      py      :     1.458163
      dz2     :     0.020860  d :     0.059813
      dxz     :     0.007049
      dyz     :     0.009344
      dx2y2   :     0.010799
      dxy     :     0.011761
      f0      :     0.000778  f :     0.004861
      f+1     :     0.000598
      f-1     :     0.001191
      f+2     :     0.000414
      f-2     :     0.000415
      f+3     :     0.001013
      f-3     :     0.000452
  7 H s       :     0.654342  s :     0.654342
      pz      :     0.029927  p :     0.156827
      px      :     0.050341
      py      :     0.076559
  8 H s       :     0.668721  s :     0.668721
      pz      :     0.080870  p :     0.161801
      px      :     0.044535
      py      :     0.036396
  9 O s       :     3.453357  s :     3.453357
      pz      :     1.524464  p :     4.781672
      px      :     1.483139
      py      :     1.774070
      dz2     :     0.019943  d :     0.058391
      dxz     :     0.009168
      dyz     :     0.007044
      dx2y2   :     0.010542
      dxy     :     0.011694
      f0      :     0.000799  f :     0.004838
      f+1     :     0.001178
      f-1     :     0.000594
      f+2     :     0.000416
      f-2     :     0.000420
      f+3     :     0.000455
      f-3     :     0.000977
 10 H s       :     0.662052  s :     0.662052
      pz      :     0.080484  p :     0.162819
      px      :     0.037693
      py      :     0.044642
 11 H s       :     0.664991  s :     0.664991
      pz      :     0.030309  p :     0.190357
      px      :     0.105747
      py      :     0.054300
 12 O s       :     3.459978  s :     3.459978
      pz      :     1.661377  p :     4.819871
      px      :     1.769741
      py      :     1.388752
      dz2     :     0.010530  d :     0.057641
      dxz     :     0.011434
      dyz     :     0.012231
      dx2y2   :     0.008912
      dxy     :     0.014533
      f0      :     0.000473  f :     0.004818
      f+1     :     0.000649
      f-1     :     0.000858
      f+2     :     0.000412
      f-2     :     0.001033
      f+3     :     0.000915
      f-3     :     0.000477
 13 H s       :     0.680049  s :     0.680049
      pz      :     0.067264  p :     0.168334
      px      :     0.054917
      py      :     0.046153
 14 H s       :     0.659289  s :     0.659289
      pz      :     0.035108  p :     0.197813
      px      :     0.049056
      py      :     0.113649


                      *****************************
                      * MAYER POPULATION ANALYSIS *
                      *****************************

  NA   - Mulliken gross atomic population
  ZA   - Total nuclear charge
  QA   - Mulliken gross atomic charge
  VA   - Mayer's total valence
  BVA  - Mayer's bonded valence
  FA   - Mayer's free valence

  ATOM       NA         ZA         QA         VA         BVA        FA
  0 O      8.6866     8.0000    -0.6866     2.1048     1.7230     0.3818
  1 H      0.6094     1.0000     0.3906     0.8857     0.8432     0.0425
  2 H      0.6650     1.0000     0.3350     0.9094     0.8612     0.0482
  3 O      8.7399     8.0000    -0.7399     2.0325     1.6442     0.3883
  4 H      0.6357     1.0000     0.3643     0.9125     0.8680     0.0445
  5 H      0.6659     1.0000     0.3341     0.9431     0.8952     0.0479
  6 O      8.6852     8.0000    -0.6852     2.1145     1.7318     0.3827
  7 H      0.6212     1.0000     0.3788     0.8803     0.8353     0.0450
  8 H      0.6493     1.0000     0.3507     0.8954     0.8485     0.0469
  9 O      8.7353     8.0000    -0.7353     2.0555     1.6683     0.3872
 10 H      0.6344     1.0000     0.3656     0.8867     0.8413     0.0454
 11 H      0.6361     1.0000     0.3639     0.9233     0.8779     0.0454
 12 O      8.7363     8.0000    -0.7363     2.0311     1.6432     0.3879
 13 H      0.6669     1.0000     0.3331     0.9093     0.8617     0.0476
 14 H      0.6328     1.0000     0.3672     0.9170     0.8715     0.0455

  Mayer bond orders larger than 0.100000
B(  0-O ,  1-H ) :   0.7970 B(  0-O ,  2-H ) :   0.8498 B(  3-O ,  4-H ) :   0.8175 
B(  3-O ,  5-H ) :   0.8210 B(  6-O ,  7-H ) :   0.8170 B(  6-O ,  8-H ) :   0.8412 
B(  9-O , 10-H ) :   0.8319 B(  9-O , 11-H ) :   0.7688 B( 12-O , 13-H ) :   0.8525 
B( 12-O , 14-H ) :   0.7679 


----------------------------------
MP2 DERIVATIVE INTEGRAL GENERATION
----------------------------------


Input Wavefunction Amplitudes       ... 12h2o.su.etal.mol3,4,5,7,10-orca.engrad-mp2.def2tzvp.frozencore.mp2tsaa.tmp
Input Correlated Electron Density   ... 12h2o.su.etal.mol3,4,5,7,10-orca.engrad-mp2.def2tzvp.frozencore.pmp2re
Input Energy Weighted Density       ... 12h2o.su.etal.mol3,4,5,7,10-orca.engrad-mp2.def2tzvp.frozencore.wmp2.tmp
Input SCF Electron Density          ... 12h2o.su.etal.mol3,4,5,7,10-orca.engrad-mp2.def2tzvp.frozencore.scfp

One-Electron Terms    ...
                        ... One-Electron Terms done
Prescreening matrices              ... done

Batch handling in the gradient evaluation:
Memory available                      ... 8000.0 MB
Memory per occupied orbital in Q2     ...    7.1 MB
Memory per occupied orbital in Q3     ...    0.1 MB
Total memory requirement per |i>      ...    7.1 MB
Max. Number of orbitals possible      ...   1121
Number of orbitals treated per batch  ...     20
Number of batches to be done          ...      1
Batch   0: i=    5 ...    24

---------------------------------------
MP2 TOTAL ENERGY:     -381.605066094 Eh
---------------------------------------

The final MP2 gradient
  0:  -0.00897654   0.01073131  -0.00039847
  1:   0.00189942  -0.00036780  -0.00206816
  2:   0.01003737  -0.00458778   0.00156949
  3:   0.00428486   0.00803131  -0.00078448
  4:  -0.00381447   0.00367808  -0.00199806
  5:  -0.00471467  -0.01637199   0.00098919
  6:  -0.00426260  -0.01336752   0.01273721
  7:   0.00537475   0.01241645  -0.00259777
  8:  -0.00282463  -0.00063307  -0.00809273
  9:   0.00057845   0.00974475  -0.00792435
 10:   0.00055969  -0.00043412   0.00872205
 11:   0.00208168  -0.00156599  -0.00368735
 12:   0.00399726   0.00700860   0.00137341
 13:   0.00043999   0.00125451   0.00053430
 14:  -0.00466057  -0.01553673   0.00162573

-----------------------------------
NORM OF THE MP2 GRADIENT:  0.044131
-----------------------------------

-------------------------   --------------------
FINAL SINGLE POINT ENERGY      -381.605066093822
-------------------------   --------------------


                            ***************************************
                            *     ORCA property calculations      *
                            ***************************************

                                    ---------------------
                                    Active property flags
                                    ---------------------
   (+) Dipole Moment


------------------------------------------------------------------------------
                       ORCA ELECTRIC PROPERTIES CALCULATION
------------------------------------------------------------------------------

Dipole Moment Calculation                       ... on
Quadrupole Moment Calculation                   ... off
Polarizability Calculation                      ... off
GBWName                                         ... 12h2o.su.etal.mol3,4,5,7,10-orca.engrad-mp2.def2tzvp.frozencore.gbw
Electron density file                           ... 12h2o.su.etal.mol3,4,5,7,10-orca.engrad-mp2.def2tzvp.frozencore.scfp
The origin for moment calculation is the CENTER OF MASS  = (-1.662167,  0.029521 -2.139303)

-------------
DIPOLE MOMENT
-------------
                                X             Y             Z
Electronic contribution:      0.05714      -0.32935       0.14158
Nuclear contribution   :      0.23021      -1.32858      -0.72077
                        -----------------------------------------
Total Dipole Moment    :      0.28736      -1.65793      -0.57919
                        -----------------------------------------
Magnitude (a.u.)       :      1.77954
Magnitude (Debye)      :      4.52324



--------------------
Rotational spectrum 
--------------------
 
Rotational constants in cm-1:     0.083829     0.053254     0.043282 
Rotational constants in MHz :  2513.117605  1596.515930  1297.559580 

 Dipole components along the rotational axes: 
x,y,z [a.u.] :     0.863843    -1.531545    -0.273710 
x,y,z [Debye]:     2.195714    -3.892879    -0.695715 

 

                         *** MP2 UNRELAXED DENSITY ***

------------------------------------------------------------------------------
                       ORCA ELECTRIC PROPERTIES CALCULATION
------------------------------------------------------------------------------

Dipole Moment Calculation                       ... on
Quadrupole Moment Calculation                   ... off
Polarizability Calculation                      ... off
GBWName                                         ... 12h2o.su.etal.mol3,4,5,7,10-orca.engrad-mp2.def2tzvp.frozencore.gbw
Electron density file                           ... 12h2o.su.etal.mol3,4,5,7,10-orca.engrad-mp2.def2tzvp.frozencore.pmp2ur
The origin for moment calculation is the CENTER OF MASS  = (-1.662167,  0.029521 -2.139303)

-------------
DIPOLE MOMENT
-------------
                                X             Y             Z
Electronic contribution:      0.05661      -0.32115       0.14918
Nuclear contribution   :      0.23021      -1.32858      -0.72077
                        -----------------------------------------
Total Dipole Moment    :      0.28683      -1.64973      -0.57159
                        -----------------------------------------
Magnitude (a.u.)       :      1.76935
Magnitude (Debye)      :      4.49733



--------------------
Rotational spectrum 
--------------------
 
Rotational constants in cm-1:     0.083829     0.053254     0.043282 
Rotational constants in MHz :  2513.117605  1596.515930  1297.559580 

 Dipole components along the rotational axes: 
x,y,z [a.u.] :     0.862922    -1.520599    -0.271564 
x,y,z [Debye]:     2.193373    -3.865056    -0.690261 

 

                           *** MP2 RELAXED DENSITY ***

------------------------------------------------------------------------------
                       ORCA ELECTRIC PROPERTIES CALCULATION
------------------------------------------------------------------------------

Dipole Moment Calculation                       ... on
Quadrupole Moment Calculation                   ... off
Polarizability Calculation                      ... off
GBWName                                         ... 12h2o.su.etal.mol3,4,5,7,10-orca.engrad-mp2.def2tzvp.frozencore.gbw
Electron density file                           ... 12h2o.su.etal.mol3,4,5,7,10-orca.engrad-mp2.def2tzvp.frozencore.pmp2re
The origin for moment calculation is the CENTER OF MASS  = (-1.662167,  0.029521 -2.139303)

-------------
DIPOLE MOMENT
-------------
                                X             Y             Z
Electronic contribution:      0.07160      -0.33250       0.15433
Nuclear contribution   :      0.23021      -1.32858      -0.72077
                        -----------------------------------------
Total Dipole Moment    :      0.30181      -1.66108      -0.56643
                        -----------------------------------------
Magnitude (a.u.)       :      1.78076
Magnitude (Debye)      :      4.52634



--------------------
Rotational spectrum 
--------------------
 
Rotational constants in cm-1:     0.083829     0.053254     0.043282 
Rotational constants in MHz :  2513.117605  1596.515930  1297.559580 

 Dipole components along the rotational axes: 
x,y,z [a.u.] :     0.878938    -1.522762    -0.282458 
x,y,z [Debye]:     2.234082    -3.870555    -0.717951 

 

Timings for individual modules:

Sum of individual times         ...       36.779 sec (=   0.613 min)
GTO integral calculation        ...        0.806 sec (=   0.013 min)   2.2 %
SCF iterations                  ...        8.768 sec (=   0.146 min)  23.8 %
MP2 module                      ...       27.205 sec (=   0.453 min)  74.0 %
                             ****ORCA TERMINATED NORMALLY****
TOTAL RUN TIME: 0 days 0 hours 0 minutes 37 seconds 576 msec
