9
Energy:    -63.14126597
O    0.25168602  -0.88587663   1.47812709
H    0.07454810  -1.15160857   0.57577430
H    0.73797296  -1.61998060   1.85342461
O   -0.47661382  -0.60275646  -1.42021926
H   -0.20675973   0.26009076  -1.10572715
H   -0.44127397  -0.53234071  -2.37417133
O    0.18876881   1.49695258  -0.02942839
H   -0.31123990   2.21329055   0.36182990
H    0.20265658   0.81768615   0.64483870
