9
Energy:    -60.95311511
O   -1.04364443  -0.91131057   0.66903531
H   -1.05763034  -0.16155186   0.07414194
H   -1.75359854  -0.73999707   1.28778300
O    1.74258314  -0.29397531   0.38775903
H    0.85659460  -0.52231283   0.66903851
H    2.24171366  -1.10493526   0.48494201
O   -0.63883468   1.22420752  -0.95834940
H   -0.64452003   1.01715049  -1.89286902
H    0.26451613   1.48239252  -0.77523835
