9
Energy:    -61.44226336
O    0.66038837   0.00711631   1.61428470
H    0.96036510   0.34123880   0.76893981
H    1.46506652  -0.19347620   2.09228843
O    0.79172713   0.53203396  -1.40347329
H    0.83165357   0.77250710  -2.32911383
H   -0.12885842   0.31921405  -1.25030089
O   -1.47584436  -0.67725166  -0.20410771
H   -0.79993428  -0.57695903   0.46620476
H   -2.29160621  -0.44901148   0.24161740
