9
Energy:    -61.41028907
O   -0.20084958  -1.01986780  -1.34453419
H    0.28969439  -1.64198632  -1.88171852
H    0.47167914  -0.51736256  -0.88472395
O    1.44634511   0.40455103   0.54937807
H    0.52871008   0.64141569   0.68381370
H    1.94004731   1.12362428   0.94361612
O   -1.32786660   0.67073695   0.75987755
H   -1.55703576   0.38449256  -0.12430427
H   -1.54574443  -0.07586666   1.31785976
