12
Energy:    -98.50485807
O   -1.65958978   1.17613836  -0.90392683
H   -2.54978604   1.11454336  -0.55753324
H   -1.10495928   1.25478489  -0.12776216
O    0.03871340  -1.42091871  -1.46474966
H    0.64924511  -1.25759925  -2.18364440
H   -0.62427625  -0.73612460  -1.55269055
O    1.38931823  -1.11766569   1.06385579
H    1.03255983  -1.11306232   0.17563617
H    0.86815534  -1.77249840   1.52841495
O    0.29116175   1.36236692   1.20456041
H    0.91453065   1.99550175   1.56062690
H    0.72237982   0.51457688   1.31196090
