12
Energy:   -105.18336155
O   -0.00877579   0.10475809   1.94456650
H    0.61240729  -0.23854053   2.58683552
H   -0.11407967  -0.60400931   1.30990777
O    0.24370393  -1.99608187  -0.05246141
H    0.56899209  -2.80861124  -0.44003782
H    0.22232015  -1.37475423  -0.78028456
O   -0.59754789   2.05930394   0.04610754
H   -1.53124445   1.85758285  -0.01513937
H   -0.27626927   1.49698856   0.75095739
O    0.28905700   0.08386207  -1.70618049
H    0.09975176   0.87262466  -1.19799849
H    0.53185461   0.40935567  -2.57297637
