
                                 *****************
                                 * O   R   C   A *
                                 *****************

           --- An Ab Initio, DFT and Semiempirical electronic structure package ---

                  #######################################################
                  #                        -***-                        #
                  #          Department of theory and spectroscopy      #
                  #               Directorship: Frank Neese             #
                  #        Max Planck Institute fuer Kohlenforschung    #
                  #                Kaiser Wilhelm Platz 1               #
                  #                 D-45470 Muelheim/Ruhr               #
                  #                      Germany                        #
                  #                                                     #
                  #                  All rights reserved                #
                  #                        -***-                        #
                  #######################################################


                         Program Version 4.2.0 -  RELEASE  -


 With contributions from (in alphabetic order):
   Daniel Aravena         : Magnetic Suceptibility
   Michael Atanasov       : Ab Initio Ligand Field Theory (pilot matlab implementation)
   Alexander A. Auer      : GIAO ZORA, VPT2
   Ute Becker             : Parallelization
   Giovanni Bistoni       : ED, misc. LED, open-shell LED, HFLED
   Martin Brehm           : Molecular dynamics
   Dmytro Bykov           : SCF Hessian
   Vijay G. Chilkuri      : MRCI spin determinant printing, contributions to CSF-ICE
   Dipayan Datta          : RHF DLPNO-CCSD density
   Achintya Kumar Dutta   : EOM-CC, STEOM-CC
   Dmitry Ganyushin       : Spin-Orbit,Spin-Spin,Magnetic field MRCI
   Miquel Garcia          : C-PCM Hessian, Gaussian charge scheme
   Yang Guo               : DLPNO-NEVPT2, CIM, IAO-localization
   Andreas Hansen         : Spin unrestricted coupled pair/coupled cluster methods
   Benjamin Helmich-Paris : CASSCF linear response (MC-RPA)
   Lee Huntington         : MR-EOM, pCC
   Robert Izsak           : Overlap fitted RIJCOSX, COSX-SCS-MP3, EOM
   Christian Kollmar      : KDIIS, OOCD, Brueckner-CCSD(T), CCSD density
   Simone Kossmann        : Meta GGA functionals, TD-DFT gradient, OOMP2, MP2 Hessian
   Martin Krupicka        : AUTO-CI
   Lucas Lang             : DCDCAS
   Dagmar Lenk            : GEPOL surface, SMD
   Dimitrios Liakos       : Extrapolation schemes; Compound Job, initial MDCI parallelization
   Dimitrios Manganas     : Further ROCIS development; embedding schemes
   Dimitrios Pantazis     : SARC Basis sets
   Taras Petrenko         : DFT Hessian,TD-DFT gradient, ASA, ECA, R-Raman, ABS, FL, XAS/XES, NRVS
   Peter Pinski           : DLPNO-MP2, DLPNO-MP2 Gradient
   Christoph Reimann      : Effective Core Potentials
   Marius Retegan         : Local ZFS, SOC
   Christoph Riplinger    : Optimizer, TS searches, QM/MM, DLPNO-CCSD(T), (RO)-DLPNO pert. Triples
   Tobias Risthaus        : Range-separated hybrids, TD-DFT gradient, RPA, STAB
   Michael Roemelt        : Original ROCIS implementation
   Masaaki Saitow         : Open-shell DLPNO-CCSD energy and density
   Barbara Sandhoefer     : DKH picture change effects
   Avijit Sen             : IP-ROCIS
   Kantharuban Sivalingam : CASSCF convergence, NEVPT2, FIC-MRCI
   Bernardo de Souza      : ESD, SOC TD-DFT
   Georgi Stoychev        : AutoAux, RI-MP2 NMR
   Willem Van den Heuvel  : Paramagnetic NMR
   Boris Wezisla          : Elementary symmetry handling
   Frank Wennmohs         : Technical directorship


 We gratefully acknowledge several colleagues who have allowed us to
 interface, adapt or use parts of their codes:
   Stefan Grimme, W. Hujo, H. Kruse,             : VdW corrections, initial TS optimization,
                  C. Bannwarth                     DFT functionals, gCP, sTDA/sTD-DF
   Ed Valeev, F. Pavosevic, A. Kumar             : LibInt (2-el integral package), F12 methods
   Garnet Chan, S. Sharma, J. Yang, R. Olivares  : DMRG
   Ulf Ekstrom                                   : XCFun DFT Library
   Mihaly Kallay                                 : mrcc  (arbitrary order and MRCC methods)
   Andreas Klamt, Michael Diedenhofen            : otool_cosmo (COSMO solvation model)
   Jiri Pittner, Ondrej Demel                    : Mk-CCSD
   Frank Weinhold                                : gennbo (NPA and NBO analysis)
   Christopher J. Cramer and Donald G. Truhlar   : smd solvation model
   Lars Goerigk                                  : TD-DFT with DH, B97 family of functionals
   V. Asgeirsson, H. Jonsson                     : NEB implementation
   FAccTs GmbH                                   : IRC, NEB, NEB-TS, Multilevel, MM, QM/MM, CI optimization
   S Lehtola, MJT Oliveira, MAL Marques          : LibXC Library


 Your calculation uses the libint2 library for the computation of 2-el integrals
 For citations please refer to: http://libint.valeyev.net

 Your ORCA version has been built with support for libXC version: 4.2.3
 For citations please refer to: https://tddft.org/programs/libxc/

 This ORCA versions uses:
   CBLAS   interface :  Fast vector & matrix operations
   LAPACKE interface :  Fast linear algebra routines
   SCALAPACK package :  Parallel linear algebra routines


----- Orbital basis set information -----
Your calculation utilizes the basis: def2-TZVP
   F. Weigend and R. Ahlrichs, Phys. Chem. Chem. Phys. 7, 3297 (2005).

================================================================================
                                        WARNINGS
                       Please study these warnings very carefully!
================================================================================


WARNING: The frozen-core approximation for MP2-gradient calculations is turned on by default.

INFO   : the flag for use of LIBINT has been found!

================================================================================
                                       INPUT FILE
================================================================================
NAME = 12h2o.su.etal.mol1,4,5,6,9,10-orca.engrad-mp2.def2tzvp.frozencore.inp
|  1> # 12h2o.su.etal.mol1,4,5,6,9,10
|  2> ! MP2 def2-TZVP EnGrad TightSCF
|  3> 
|  4> %pal
|  5>     nprocs 6
|  6> end
|  7> 
|  8> %maxcore 8000
|  9> 
| 10> %scf
| 11>     ConvForced true
| 12> end
| 13> 
| 14> *xyz 0 1
| 15> O  -1.794470000  -0.923410000   2.768350000
| 16> H  -2.338250000  -1.359750000   3.430940000
| 17> H  -0.879480000  -1.303000000   2.865760000
| 18> O  -0.885520000   1.737840000   0.052730000
| 19> H  -1.032320000   2.090180000  -0.841890000
| 20> H  -1.284090000   0.839590000   0.017130000
| 21> O   0.885520000  -1.737840000   0.052730000
| 22> H   1.284090000  -0.839590000   0.017130000
| 23> H   1.032320000  -2.090180000  -0.841890000
| 24> O   1.737840000   0.885520000  -0.052730000
| 25> H   2.090180000   1.032320000   0.841890000
| 26> H   0.839590000   1.284090000  -0.017130000
| 27> O   0.741530000  -1.752130000   2.896280000
| 28> H   0.920500000  -2.036450000   1.984040000
| 29> H   1.242140000  -0.921210000   2.984230000
| 30> O  -0.923410000   1.794470000  -2.768350000
| 31> H  -1.359750000   2.338250000  -3.430940000
| 32> H  -1.303000000   0.879480000  -2.865760000
| 33> *
| 34> 
| 35>                          ****END OF INPUT****
================================================================================

                     *******************************
                     * Energy+Gradient Calculation *
                     *******************************

---------------------------------
CARTESIAN COORDINATES (ANGSTROEM)
---------------------------------
  O     -1.794470   -0.923410    2.768350
  H     -2.338250   -1.359750    3.430940
  H     -0.879480   -1.303000    2.865760
  O     -0.885520    1.737840    0.052730
  H     -1.032320    2.090180   -0.841890
  H     -1.284090    0.839590    0.017130
  O      0.885520   -1.737840    0.052730
  H      1.284090   -0.839590    0.017130
  H      1.032320   -2.090180   -0.841890
  O      1.737840    0.885520   -0.052730
  H      2.090180    1.032320    0.841890
  H      0.839590    1.284090   -0.017130
  O      0.741530   -1.752130    2.896280
  H      0.920500   -2.036450    1.984040
  H      1.242140   -0.921210    2.984230
  O     -0.923410    1.794470   -2.768350
  H     -1.359750    2.338250   -3.430940
  H     -1.303000    0.879480   -2.865760

----------------------------
CARTESIAN COORDINATES (A.U.)
----------------------------
  NO LB      ZA    FRAG     MASS         X           Y           Z
   0 O     8.0000    0    15.999   -3.391057   -1.744992    5.231423
   1 H     1.0000    0     1.008   -4.418652   -2.569555    6.483537
   2 H     1.0000    0     1.008   -1.661976   -2.462313    5.415502
   3 O     8.0000    0    15.999   -1.673390    3.284042    0.099645
   4 H     1.0000    0     1.008   -1.950802    3.949868   -1.590942
   5 H     1.0000    0     1.008   -2.426578    1.586595    0.032371
   6 O     8.0000    0    15.999    1.673390   -3.284042    0.099645
   7 H     1.0000    0     1.008    2.426578   -1.586595    0.032371
   8 H     1.0000    0     1.008    1.950802   -3.949868   -1.590942
   9 O     8.0000    0    15.999    3.284042    1.673390   -0.099645
  10 H     1.0000    0     1.008    3.949868    1.950802    1.590942
  11 H     1.0000    0     1.008    1.586595    2.426578   -0.032371
  12 O     8.0000    0    15.999    1.401289   -3.311046    5.473176
  13 H     1.0000    0     1.008    1.739493   -3.848333    3.749292
  14 H     1.0000    0     1.008    2.347304   -1.740835    5.639377
  15 O     8.0000    0    15.999   -1.744992    3.391057   -5.231423
  16 H     1.0000    0     1.008   -2.569555    4.418652   -6.483537
  17 H     1.0000    0     1.008   -2.462313    1.661976   -5.415502

--------------------------------
INTERNAL COORDINATES (ANGSTROEM)
--------------------------------
 O      0   0   0     0.000000000000     0.00000000     0.00000000
 H      1   0   0     0.961828878803     0.00000000     0.00000000
 H      1   2   0     0.995381322057   106.21731035     0.00000000
 O      1   2   3     3.909352075396   156.75189195   192.19368952
 H      4   1   2     0.972645187106   148.25827701   289.33301105
 H      4   1   2     0.983350632989    46.29716176   266.74328444
 O      3   1   2     3.349245975813   116.85538783   143.82107740
 H      7   3   1     0.983350632989    97.20424340    87.67157074
 H      7   3   1     0.972645187106   154.03893681   304.15813038
 O      8   7   3     1.785153773264   170.81379649   301.36914736
 H     10   8   7     0.972645187106   101.65007623   109.44492584
 H     10   8   7     0.983350632989    99.09581498     3.33484705
 O      3   1   2     1.682356278379   171.61043709   195.73896161
 H     13   3   1     0.972136791249   103.79460456   289.35412162
 H     13   3   1     0.974050112161   105.61118924    38.30604821
 O      5   4   1     1.952064016317   147.60984291   295.81747223
 H     16   5   4     0.961828878803   124.67322417   165.49513251
 H     16   5   4     0.995381322057   102.38931089    45.51897547

---------------------------
INTERNAL COORDINATES (A.U.)
---------------------------
 O      0   0   0     0.000000000000     0.00000000     0.00000000
 H      1   0   0     1.817593168635     0.00000000     0.00000000
 H      1   2   0     1.880998097508   106.21731035     0.00000000
 O      1   2   3     7.387604783574   156.75189195   192.19368952
 H      4   1   2     1.838033029106   148.25827701   289.33301105
 H      4   1   2     1.858263389967    46.29716176   266.74328444
 O      3   1   2     6.329157649425   116.85538783   143.82107740
 H      7   3   1     1.858263389967    97.20424340    87.67157074
 H      7   3   1     1.838033029106   154.03893681   304.15813038
 O      8   7   3     3.373451738406   170.81379649   301.36914736
 H     10   8   7     1.838033029106   101.65007623   109.44492584
 H     10   8   7     1.858263389967    99.09581498     3.33484705
 O      3   1   2     3.179192625819   171.61043709   195.73896161
 H     13   3   1     1.837072300170   103.79460456   289.35412162
 H     13   3   1     1.840687952699   105.61118924    38.30604821
 O      5   4   1     3.688866386722   147.60984291   295.81747223
 H     16   5   4     1.817593168635   124.67322417   165.49513251
 H     16   5   4     1.880998097508   102.38931089    45.51897547

---------------------
BASIS SET INFORMATION
---------------------
There are 2 groups of distinct atoms

 Group   1 Type O   : 11s6p2d1f contracted to 5s3p2d1f pattern {62111/411/11/1}
 Group   2 Type H   : 5s1p contracted to 3s1p pattern {311/1}

Atom   0O    basis set group =>   1
Atom   1H    basis set group =>   2
Atom   2H    basis set group =>   2
Atom   3O    basis set group =>   1
Atom   4H    basis set group =>   2
Atom   5H    basis set group =>   2
Atom   6O    basis set group =>   1
Atom   7H    basis set group =>   2
Atom   8H    basis set group =>   2
Atom   9O    basis set group =>   1
Atom  10H    basis set group =>   2
Atom  11H    basis set group =>   2
Atom  12O    basis set group =>   1
Atom  13H    basis set group =>   2
Atom  14H    basis set group =>   2
Atom  15O    basis set group =>   1
Atom  16H    basis set group =>   2
Atom  17H    basis set group =>   2


           ************************************************************
           *        Program running with 6 parallel MPI-processes     *
           *              working on a common directory               *
           ************************************************************
------------------------------------------------------------------------------
                           ORCA GTO INTEGRAL CALCULATION
------------------------------------------------------------------------------

                         BASIS SET STATISTICS AND STARTUP INFO

 # of primitive gaussian shells          ...  192
 # of primitive gaussian functions       ...  372
 # of contracted shells                  ...  114
 # of contracted basis functions         ...  258
 Highest angular momentum                ...    3
 Maximum contraction depth               ...    6
 Integral package used                   ... LIBINT
 Integral threshhold            Thresh   ...  2.500e-11
 Primitive cut-off              TCut     ...  2.500e-12


------------------------------ INTEGRAL EVALUATION ----------------------------


 * One electron integrals 
 Pre-screening matrix                    ... done
 Shell pair data                         ... done (   0.001 sec)



           ************************************************************
           *        Program running with 6 parallel MPI-processes     *
           *              working on a common directory               *
           ************************************************************
-------------------------------------------------------------------------------
                                 ORCA SCF
-------------------------------------------------------------------------------

------------
SCF SETTINGS
------------
Hamiltonian:
 Ab initio Hamiltonian  Method          .... Hartree-Fock(GTOs)


General Settings:
 Integral files         IntName         .... 12h2o.su.etal.mol1,4,5,6,9,10-orca.engrad-mp2.def2tzvp.frozencore
 Hartree-Fock type      HFTyp           .... RHF
 Total Charge           Charge          ....    0
 Multiplicity           Mult            ....    1
 Number of Electrons    NEL             ....   60
 Basis Dimension        Dim             ....  258
 Nuclear Repulsion      ENuc            ....    266.4465863146 Eh

Convergence Acceleration:
 DIIS                   CNVDIIS         .... on
   Start iteration      DIISMaxIt       ....    12
   Startup error        DIISStart       ....  0.200000
   # of expansion vecs  DIISMaxEq       ....     5
   Bias factor          DIISBfac        ....   1.050
   Max. coefficient     DIISMaxC        ....  10.000
 Newton-Raphson         CNVNR           .... off
 SOSCF                  CNVSOSCF        .... on
   Start iteration      SOSCFMaxIt      ....   150
   Startup grad/error   SOSCFStart      ....  0.003300
 Level Shifting         CNVShift        .... on
   Level shift para.    LevelShift      ....    0.2500
   Turn off err/grad.   ShiftErr        ....    0.0010
 Zerner damping         CNVZerner       .... off
 Static damping         CNVDamp         .... on
   Fraction old density DampFac         ....    0.7000
   Max. Damping (<1)    DampMax         ....    0.9800
   Min. Damping (>=0)   DampMin         ....    0.0000
   Turn off err/grad.   DampErr         ....    0.1000
 Fernandez-Rico         CNVRico         .... off

SCF Procedure:
 Maximum # iterations   MaxIter         ....   125
 SCF integral mode      SCFMode         .... Direct
   Integral package                     .... LIBINT
 Reset frequency        DirectResetFreq ....    20
 Integral Threshold     Thresh          ....  2.500e-11 Eh
 Primitive CutOff       TCut            ....  2.500e-12 Eh

Convergence Tolerance:
 Convergence Check Mode ConvCheckMode   .... Total+1el-Energy
 Convergence forced     ConvForced      .... 1
 Energy Change          TolE            ....  1.000e-08 Eh
 1-El. energy change                    ....  1.000e-05 Eh
 Orbital Gradient       TolG            ....  1.000e-05
 Orbital Rotation angle TolX            ....  1.000e-05
 DIIS Error             TolErr          ....  5.000e-07


Diagonalization of the overlap matrix:
Smallest eigenvalue                        ... 3.823e-03
Time for diagonalization                   ...    0.013 sec
Threshold for overlap eigenvalues          ... 1.000e-08
Number of eigenvalues below threshold      ... 0
Time for construction of square roots      ...    0.009 sec
Total time needed                          ...    0.022 sec

-------------------
DFT GRID GENERATION
-------------------

General Integration Accuracy     IntAcc      ...  4.340
Radial Grid Type                 RadialGrid  ... Gauss-Chebyshev
Angular Grid (max. acc.)         AngularGrid ... Lebedev-110
Angular grid pruning method      GridPruning ... 3 (G Style)
Weight generation scheme         WeightScheme... Becke
Basis function cutoff            BFCut       ...    1.0000e-11
Integration weight cutoff        WCut        ...    1.0000e-14
Grids for H and He will be reduced by one unit

# of grid points (after initial pruning)     ...  19824 (   0.0 sec)
# of grid points (after weights+screening)   ...  18764 (   0.0 sec)
nearest neighbour list constructed           ...    0.0 sec
Grid point re-assignment to atoms done       ...    0.0 sec
Grid point division into batches done        ...    0.0 sec
Reduced shell lists constructed in    0.0 sec

Total number of grid points                  ...    18764
Total number of batches                      ...      302
Average number of points per batch           ...       62
Average number of grid points per atom       ...     1042
Average number of shells per batch           ...    53.60 (47.01%)
Average number of basis functions per batch  ...   107.98 (41.85%)
Average number of large shells per batch     ...    37.40 (69.79%)
Average number of large basis fcns per batch ...    75.37 (69.80%)
Maximum spatial batch extension              ...  12.83, 18.30, 14.52 au
Average spatial batch extension              ...   0.56,  0.65,  0.62 au

Time for grid setup =    0.052 sec

------------------------------
INITIAL GUESS: MODEL POTENTIAL
------------------------------
Loading Hartree-Fock densities                     ... done
Calculating cut-offs                               ... done
Setting up the integral package                    ... done
Initializing the effective Hamiltonian             ... done
Starting the Coulomb interaction                   ... done (   0.0 sec)
Reading the grid                                   ... done
Mapping shells                                     ... done
Starting the XC term evaluation                    ... done (   0.0 sec)
Transforming the Hamiltonian                       ... done (   0.0 sec)
Diagonalizing the Hamiltonian                      ... done (   0.0 sec)
Back transforming the eigenvectors                 ... done (   0.0 sec)
Now organizing SCF variables                       ... done
                      ------------------
                      INITIAL GUESS DONE (   0.2 sec)
                      ------------------
--------------
SCF ITERATIONS
--------------
ITER       Energy         Delta-E        Max-DP      RMS-DP      [F,P]     Damp
               ***  Starting incremental Fock matrix formation  ***
  0   -455.8406644591   0.000000000000 0.04403263  0.00096996  0.3504076 0.7000
  1   -456.0499618098  -0.209297350756 0.02939271  0.00067140  0.2162648 0.7000
                               ***Turning on DIIS***
  2   -456.1607337277  -0.110771917890 0.01645154  0.00037406  0.1634865 0.7000
  3   -457.1771630931  -1.016429365331 0.00763219  0.00016965  0.1218473 0.7000
  4   -456.9718675900   0.205295503078 0.01709032  0.00039142  0.0862043 0.0000
  5   -456.4153438415   0.556523748435 0.00217176  0.00006356  0.0056697 0.0000
                      *** Initiating the SOSCF procedure ***
                           *** Shutting down DIIS ***
                      *** Re-Reading the Fockian *** 
                      *** Removing any level shift *** 
ITER      Energy       Delta-E        Grad      Rot      Max-DP    RMS-DP
  6   -456.38462987   0.0307139750  0.000756  0.000756  0.001514  0.000039
               *** Restarting incremental Fock matrix formation ***
  7   -456.37451177   0.0101180951  0.000260  0.000365  0.000728  0.000017
  8   -456.37452079  -0.0000090159  0.000134  0.000286  0.000598  0.000014
  9   -456.37452298  -0.0000021882  0.000057  0.000042  0.000090  0.000002
 10   -456.37452315  -0.0000001755  0.000011  0.000009  0.000020  0.000000
                  ***Gradient check signals convergence***
              ***Rediagonalizing the Fockian in SOSCF/NRSCF***

               *****************************************************
               *                     SUCCESS                       *
               *           SCF CONVERGED AFTER  11 CYCLES          *
               *****************************************************


----------------
TOTAL SCF ENERGY
----------------

Total Energy       :         -456.37452316 Eh          -12418.58212 eV

Components:
Nuclear Repulsion  :          266.44658631 Eh            7250.38022 eV
Electronic Energy  :         -722.82110947 Eh          -19668.96234 eV
One Electron Energy:        -1161.32709880 Eh          -31601.31694 eV
Two Electron Energy:          438.50598933 Eh           11932.35460 eV

Virial components:
Potential Energy   :         -912.12632462 Eh          -24820.21913 eV
Kinetic Energy     :          455.75180146 Eh           12401.63700 eV
Virial Ratio       :            2.00136636


---------------
SCF CONVERGENCE
---------------

  Last Energy change         ...   -5.1729e-09  Tolerance :   1.0000e-08
  Last MAX-Density change    ...    5.2694e-06  Tolerance :   1.0000e-07
  Last RMS-Density change    ...    1.3320e-07  Tolerance :   5.0000e-09
  Last Orbital Gradient      ...    1.6944e-06  Tolerance :   1.0000e-05
  Last Orbital Rotation      ...    2.5999e-06  Tolerance :   1.0000e-05

             **** THE GBW FILE WAS UPDATED (12h2o.su.etal.mol1,4,5,6,9,10-orca.engrad-mp2.def2tzvp.frozencore.gbw) ****
             **** DENSITY FILE WAS UPDATED (12h2o.su.etal.mol1,4,5,6,9,10-orca.engrad-mp2.def2tzvp.frozencore.scfp) ****
             **** ENERGY FILE WAS UPDATED (12h2o.su.etal.mol1,4,5,6,9,10-orca.engrad-mp2.def2tzvp.frozencore.en.tmp) ****
             **** THE GBW FILE WAS UPDATED (12h2o.su.etal.mol1,4,5,6,9,10-orca.engrad-mp2.def2tzvp.frozencore.gbw) ****
             **** DENSITY FILE WAS UPDATED (12h2o.su.etal.mol1,4,5,6,9,10-orca.engrad-mp2.def2tzvp.frozencore.scfp) ****
----------------
ORBITAL ENERGIES
----------------

  NO   OCC          E(Eh)            E(eV) 
   0   2.0000     -20.600875      -560.5783 
   1   2.0000     -20.563376      -559.5579 
   2   2.0000     -20.561683      -559.5118 
   3   2.0000     -20.560698      -559.4850 
   4   2.0000     -20.552680      -559.2669 
   5   2.0000     -20.505052      -557.9708 
   6   2.0000      -1.379162       -37.5289 
   7   2.0000      -1.356349       -36.9081 
   8   2.0000      -1.351205       -36.7682 
   9   2.0000      -1.340699       -36.4823 
  10   2.0000      -1.329881       -36.1879 
  11   2.0000      -1.286996       -35.0209 
  12   2.0000      -0.745757       -20.2931 
  13   2.0000      -0.716016       -19.4838 
  14   2.0000      -0.713100       -19.4044 
  15   2.0000      -0.709222       -19.2989 
  16   2.0000      -0.702908       -19.1271 
  17   2.0000      -0.674837       -18.3632 
  18   2.0000      -0.621649       -16.9159 
  19   2.0000      -0.611291       -16.6341 
  20   2.0000      -0.594554       -16.1787 
  21   2.0000      -0.578668       -15.7464 
  22   2.0000      -0.568079       -15.4582 
  23   2.0000      -0.538907       -14.6644 
  24   2.0000      -0.535610       -14.5747 
  25   2.0000      -0.507497       -13.8097 
  26   2.0000      -0.504279       -13.7221 
  27   2.0000      -0.500439       -13.6176 
  28   2.0000      -0.490631       -13.3508 
  29   2.0000      -0.455571       -12.3967 
  30   0.0000       0.091231         2.4825 
  31   0.0000       0.114896         3.1265 
  32   0.0000       0.149069         4.0564 
  33   0.0000       0.172886         4.7045 
  34   0.0000       0.177917         4.8414 
  35   0.0000       0.196609         5.3500 
  36   0.0000       0.215739         5.8706 
  37   0.0000       0.264668         7.2020 
  38   0.0000       0.270726         7.3668 
  39   0.0000       0.312437         8.5018 
  40   0.0000       0.333039         9.0624 
  41   0.0000       0.358518         9.7558 
  42   0.0000       0.439518        11.9599 
  43   0.0000       0.478252        13.0139 
  44   0.0000       0.491515        13.3748 
  45   0.0000       0.501470        13.6457 
  46   0.0000       0.523823        14.2539 
  47   0.0000       0.533885        14.5277 
  48   0.0000       0.548091        14.9143 
  49   0.0000       0.562047        15.2941 
  50   0.0000       0.564315        15.3558 
  51   0.0000       0.578495        15.7416 
  52   0.0000       0.593339        16.1456 
  53   0.0000       0.606880        16.5141 
  54   0.0000       0.612092        16.6559 
  55   0.0000       0.631520        17.1845 
  56   0.0000       0.641391        17.4531 
  57   0.0000       0.652444        17.7539 
  58   0.0000       0.672128        18.2895 
  59   0.0000       0.681887        18.5551 
  60   0.0000       0.703703        19.1487 
  61   0.0000       0.717115        19.5137 
  62   0.0000       0.727141        19.7865 
  63   0.0000       0.747263        20.3341 
  64   0.0000       0.753149        20.4942 
  65   0.0000       0.776358        21.1258 
  66   0.0000       0.802753        21.8440 
  67   0.0000       0.809452        22.0263 
  68   0.0000       0.829383        22.5687 
  69   0.0000       0.839455        22.8427 
  70   0.0000       0.857703        23.3393 
  71   0.0000       0.870200        23.6794 
  72   0.0000       0.925526        25.1848 
  73   0.0000       0.971681        26.4408 
  74   0.0000       1.030956        28.0538 
  75   0.0000       1.035746        28.1841 
  76   0.0000       1.063092        28.9282 
  77   0.0000       1.094270        29.7766 
  78   0.0000       1.363750        37.1095 
  79   0.0000       1.380435        37.5636 
  80   0.0000       1.394077        37.9348 
  81   0.0000       1.399335        38.0778 
  82   0.0000       1.405566        38.2474 
  83   0.0000       1.430294        38.9203 
  84   0.0000       1.438747        39.1503 
  85   0.0000       1.458388        39.6847 
  86   0.0000       1.468260        39.9534 
  87   0.0000       1.503771        40.9197 
  88   0.0000       1.508606        41.0513 
  89   0.0000       1.529980        41.6329 
  90   0.0000       1.545995        42.0687 
  91   0.0000       1.566726        42.6328 
  92   0.0000       1.594973        43.4014 
  93   0.0000       1.607468        43.7414 
  94   0.0000       1.625949        44.2443 
  95   0.0000       1.654699        45.0267 
  96   0.0000       1.789244        48.6878 
  97   0.0000       1.825828        49.6833 
  98   0.0000       1.839571        50.0573 
  99   0.0000       1.850327        50.3499 
 100   0.0000       1.868044        50.8321 
 101   0.0000       1.871264        50.9197 
 102   0.0000       1.895569        51.5811 
 103   0.0000       1.933656        52.6174 
 104   0.0000       1.954347        53.1805 
 105   0.0000       1.971295        53.6417 
 106   0.0000       1.990845        54.1736 
 107   0.0000       2.029346        55.2213 
 108   0.0000       2.065316        56.2001 
 109   0.0000       2.075756        56.4842 
 110   0.0000       2.088427        56.8290 
 111   0.0000       2.111218        57.4492 
 112   0.0000       2.168150        58.9984 
 113   0.0000       2.199487        59.8511 
 114   0.0000       2.243079        61.0373 
 115   0.0000       2.275616        61.9227 
 116   0.0000       2.291427        62.3529 
 117   0.0000       2.307111        62.7797 
 118   0.0000       2.308227        62.8101 
 119   0.0000       2.331310        63.4382 
 120   0.0000       2.348993        63.9193 
 121   0.0000       2.354040        64.0567 
 122   0.0000       2.363319        64.3092 
 123   0.0000       2.374271        64.6072 
 124   0.0000       2.397571        65.2412 
 125   0.0000       2.417551        65.7849 
 126   0.0000       2.451025        66.6958 
 127   0.0000       2.460482        66.9531 
 128   0.0000       2.508765        68.2670 
 129   0.0000       2.537762        69.0560 
 130   0.0000       2.557370        69.5896 
 131   0.0000       2.567597        69.8679 
 132   0.0000       2.609215        71.0003 
 133   0.0000       2.614255        71.1375 
 134   0.0000       2.621424        71.3326 
 135   0.0000       2.639972        71.8373 
 136   0.0000       2.648994        72.0828 
 137   0.0000       2.660480        72.3953 
 138   0.0000       2.683353        73.0178 
 139   0.0000       2.706501        73.6476 
 140   0.0000       2.714189        73.8568 
 141   0.0000       2.731729        74.3341 
 142   0.0000       2.766895        75.2910 
 143   0.0000       2.825667        76.8903 
 144   0.0000       2.874276        78.2130 
 145   0.0000       2.910157        79.1894 
 146   0.0000       2.938644        79.9646 
 147   0.0000       2.952220        80.3340 
 148   0.0000       2.956945        80.4626 
 149   0.0000       2.978588        81.0515 
 150   0.0000       2.997389        81.5631 
 151   0.0000       3.002271        81.6959 
 152   0.0000       3.008300        81.8600 
 153   0.0000       3.037496        82.6545 
 154   0.0000       3.052529        83.0635 
 155   0.0000       3.064920        83.4007 
 156   0.0000       3.090630        84.1003 
 157   0.0000       3.120123        84.9029 
 158   0.0000       3.125689        85.0543 
 159   0.0000       3.236807        88.0780 
 160   0.0000       3.241211        88.1978 
 161   0.0000       3.251637        88.4815 
 162   0.0000       3.264231        88.8242 
 163   0.0000       3.277079        89.1739 
 164   0.0000       3.308758        90.0359 
 165   0.0000       3.415302        92.9351 
 166   0.0000       3.471807        94.4727 
 167   0.0000       3.529474        96.0419 
 168   0.0000       3.960007       107.7573 
 169   0.0000       4.042629       110.0055 
 170   0.0000       4.059122       110.4543 
 171   0.0000       4.074560       110.8744 
 172   0.0000       4.108348       111.7938 
 173   0.0000       4.135295       112.5271 
 174   0.0000       4.273813       116.2964 
 175   0.0000       4.308407       117.2377 
 176   0.0000       4.315058       117.4187 
 177   0.0000       4.345255       118.2404 
 178   0.0000       4.355705       118.5248 
 179   0.0000       4.424266       120.3904 
 180   0.0000       5.516005       150.0981 
 181   0.0000       5.540067       150.7529 
 182   0.0000       5.541014       150.7787 
 183   0.0000       5.543619       150.8495 
 184   0.0000       5.553124       151.1082 
 185   0.0000       5.600350       152.3933 
 186   0.0000       5.601836       152.4337 
 187   0.0000       5.661283       154.0513 
 188   0.0000       5.669054       154.2628 
 189   0.0000       5.672240       154.3495 
 190   0.0000       5.683305       154.6506 
 191   0.0000       5.699536       155.0923 
 192   0.0000       5.776809       157.1950 
 193   0.0000       5.806943       158.0149 
 194   0.0000       5.811967       158.1517 
 195   0.0000       5.825047       158.5076 
 196   0.0000       5.828059       158.5896 
 197   0.0000       5.831453       158.6819 
 198   0.0000       5.844205       159.0289 
 199   0.0000       5.855179       159.3275 
 200   0.0000       5.861369       159.4960 
 201   0.0000       5.870161       159.7352 
 202   0.0000       5.881508       160.0440 
 203   0.0000       5.886535       160.1808 
 204   0.0000       5.890723       160.2947 
 205   0.0000       5.893491       160.3701 
 206   0.0000       5.900171       160.5518 
 207   0.0000       5.903285       160.6366 
 208   0.0000       5.908414       160.7761 
 209   0.0000       5.982116       162.7816 
 210   0.0000       6.393961       173.9885 
 211   0.0000       6.463258       175.8742 
 212   0.0000       6.476035       176.2219 
 213   0.0000       6.478723       176.2950 
 214   0.0000       6.495127       176.7414 
 215   0.0000       6.522342       177.4819 
 216   0.0000       6.652591       181.0262 
 217   0.0000       6.669214       181.4786 
 218   0.0000       6.714611       182.7139 
 219   0.0000       6.720721       182.8801 
 220   0.0000       6.760387       183.9595 
 221   0.0000       6.769037       184.1949 
 222   0.0000       6.840263       186.1330 
 223   0.0000       6.841952       186.1790 
 224   0.0000       6.852830       186.4750 
 225   0.0000       6.865410       186.8173 
 226   0.0000       6.879294       187.1951 
 227   0.0000       6.882369       187.2788 
 228   0.0000       6.895478       187.6355 
 229   0.0000       6.900334       187.7676 
 230   0.0000       6.907346       187.9585 
 231   0.0000       6.917587       188.2371 
 232   0.0000       6.933271       188.6639 
 233   0.0000       6.954641       189.2454 
 234   0.0000       6.967286       189.5895 
 235   0.0000       7.004238       190.5950 
 236   0.0000       7.006941       190.6686 
 237   0.0000       7.012482       190.8193 
 238   0.0000       7.053737       191.9419 
 239   0.0000       7.102102       193.2580 
 240   0.0000       7.344254       199.8473 
 241   0.0000       7.364498       200.3982 
 242   0.0000       7.423668       202.0083 
 243   0.0000       7.436983       202.3706 
 244   0.0000       7.457026       202.9160 
 245   0.0000       7.490139       203.8170 
 246   0.0000       7.520430       204.6413 
 247   0.0000       7.545620       205.3268 
 248   0.0000       7.560715       205.7375 
 249   0.0000       7.565456       205.8665 
 250   0.0000       7.589417       206.5185 
 251   0.0000       7.597279       206.7325 
 252   0.0000      44.833448      1219.9802 
 253   0.0000      44.965225      1223.5660 
 254   0.0000      44.971588      1223.7391 
 255   0.0000      44.982029      1224.0232 
 256   0.0000      45.004747      1224.6414 
 257   0.0000      45.036388      1225.5024 

                    ********************************
                    * MULLIKEN POPULATION ANALYSIS *
                    ********************************

-----------------------
MULLIKEN ATOMIC CHARGES
-----------------------
   0 O :   -0.760196
   1 H :    0.328457
   2 H :    0.396854
   3 O :   -0.738460
   4 H :    0.393316
   5 H :    0.367744
   6 O :   -0.761778
   7 H :    0.383491
   8 H :    0.349223
   9 O :   -0.746830
  10 H :    0.345227
  11 H :    0.407842
  12 O :   -0.725331
  13 H :    0.406663
  14 H :    0.343200
  15 O :   -0.718153
  16 H :    0.365121
  17 H :    0.363611
Sum of atomic charges:    0.0000000

--------------------------------
MULLIKEN REDUCED ORBITAL CHARGES
--------------------------------
  0 O s       :     3.808423  s :     3.808423
      pz      :     1.714985  p :     4.926585
      px      :     1.409294
      py      :     1.802306
      dz2     :     0.004022  d :     0.023718
      dxz     :     0.004696
      dyz     :     0.005544
      dx2y2   :     0.002297
      dxy     :     0.007160
      f0      :     0.000087  f :     0.001470
      f+1     :     0.000327
      f-1     :     0.000186
      f+2     :     0.000070
      f-2     :     0.000360
      f+3     :     0.000089
      f-3     :     0.000352
  1 H s       :     0.625338  s :     0.625338
      pz      :     0.017036  p :     0.046205
      px      :     0.013929
      py      :     0.015240
  2 H s       :     0.546249  s :     0.546249
      pz      :     0.010753  p :     0.056897
      px      :     0.032162
      py      :     0.013983
  3 O s       :     3.805202  s :     3.805202
      pz      :     1.596431  p :     4.906607
      px      :     1.840798
      py      :     1.469377
      dz2     :     0.011611  d :     0.025282
      dxz     :     0.002260
      dyz     :     0.002938
      dx2y2   :     0.003586
      dxy     :     0.004888
      f0      :     0.000147  f :     0.001370
      f+1     :     0.000112
      f-1     :     0.000457
      f+2     :     0.000067
      f-2     :     0.000039
      f+3     :     0.000444
      f-3     :     0.000104
  4 H s       :     0.558373  s :     0.558373
      pz      :     0.024946  p :     0.048311
      px      :     0.012594
      py      :     0.010771
  5 H s       :     0.589581  s :     0.589581
      pz      :     0.009989  p :     0.042675
      px      :     0.014043
      py      :     0.018644
  6 O s       :     3.808687  s :     3.808687
      pz      :     1.535317  p :     4.928776
      px      :     1.881212
      py      :     1.512247
      dz2     :     0.010124  d :     0.022866
      dxz     :     0.002323
      dyz     :     0.002534
      dx2y2   :     0.002813
      dxy     :     0.005072
      f0      :     0.000209  f :     0.001449
      f+1     :     0.000124
      f-1     :     0.000435
      f+2     :     0.000078
      f-2     :     0.000037
      f+3     :     0.000449
      f-3     :     0.000116
  7 H s       :     0.562706  s :     0.562706
      pz      :     0.008916  p :     0.053803
      px      :     0.015559
      py      :     0.029328
  8 H s       :     0.605774  s :     0.605774
      pz      :     0.018503  p :     0.045003
      px      :     0.014196
      py      :     0.012305
  9 O s       :     3.802916  s :     3.802916
      pz      :     1.538975  p :     4.917798
      px      :     1.536328
      py      :     1.842495
      dz2     :     0.011866  d :     0.024761
      dxz     :     0.003004
      dyz     :     0.002218
      dx2y2   :     0.003248
      dxy     :     0.004424
      f0      :     0.000170  f :     0.001356
      f+1     :     0.000464
      f-1     :     0.000112
      f+2     :     0.000067
      f-2     :     0.000041
      f+3     :     0.000094
      f-3     :     0.000409
 10 H s       :     0.610540  s :     0.610540
      pz      :     0.018641  p :     0.044233
      px      :     0.011871
      py      :     0.013721
 11 H s       :     0.539230  s :     0.539230
      pz      :     0.009044  p :     0.052928
      px      :     0.029602
      py      :     0.014282
 12 O s       :     3.797009  s :     3.797009
      pz      :     1.580813  p :     4.901926
      px      :     1.785213
      py      :     1.535900
      dz2     :     0.011783  d :     0.024990
      dxz     :     0.002411
      dyz     :     0.001158
      dx2y2   :     0.002487
      dxy     :     0.007151
      f0      :     0.000225  f :     0.001406
      f+1     :     0.000157
      f-1     :     0.000382
      f+2     :     0.000051
      f-2     :     0.000056
      f+3     :     0.000480
      f-3     :     0.000054
 13 H s       :     0.545589  s :     0.545589
      pz      :     0.025143  p :     0.047747
      px      :     0.011655
      py      :     0.010949
 14 H s       :     0.612731  s :     0.612731
      pz      :     0.010787  p :     0.044069
      px      :     0.015130
      py      :     0.018153
 15 O s       :     3.809708  s :     3.809708
      pz      :     1.720016  p :     4.882276
      px      :     1.804121
      py      :     1.358139
      dz2     :     0.003954  d :     0.024649
      dxz     :     0.005785
      dyz     :     0.004287
      dx2y2   :     0.002511
      dxy     :     0.008112
      f0      :     0.000083  f :     0.001520
      f+1     :     0.000187
      f-1     :     0.000329
      f+2     :     0.000071
      f-2     :     0.000351
      f+3     :     0.000398
      f-3     :     0.000100
 16 H s       :     0.589479  s :     0.589479
      pz      :     0.016987  p :     0.045400
      px      :     0.014925
      py      :     0.013487
 17 H s       :     0.594671  s :     0.594671
      pz      :     0.010787  p :     0.041718
      px      :     0.013174
      py      :     0.017758


                     *******************************
                     * LOEWDIN POPULATION ANALYSIS *
                     *******************************

----------------------
LOEWDIN ATOMIC CHARGES
----------------------
   0 O :   -0.375046
   1 H :    0.145890
   2 H :    0.152662
   3 O :   -0.306429
   4 H :    0.158175
   5 H :    0.177555
   6 O :   -0.348342
   7 H :    0.152082
   8 H :    0.163823
   9 O :   -0.318623
  10 H :    0.160640
  11 H :    0.158397
  12 O :   -0.287345
  13 H :    0.165999
  14 H :    0.164355
  15 O :   -0.314562
  16 H :    0.164832
  17 H :    0.185935

-------------------------------
LOEWDIN REDUCED ORBITAL CHARGES
-------------------------------
  0 O s       :     3.467792  s :     3.467792
      pz      :     1.704066  p :     4.875549
      px      :     1.392044
      py      :     1.779440
      dz2     :     0.004261  d :     0.029689
      dxz     :     0.007259
      dyz     :     0.005833
      dx2y2   :     0.003284
      dxy     :     0.009052
      f0      :     0.000074  f :     0.002016
      f+1     :     0.000440
      f-1     :     0.000268
      f+2     :     0.000034
      f-2     :     0.000637
      f+3     :     0.000084
      f-3     :     0.000479
  1 H s       :     0.689821  s :     0.689821
      pz      :     0.065478  p :     0.164289
      px      :     0.045467
      py      :     0.053344
  2 H s       :     0.652991  s :     0.652991
      pz      :     0.033470  p :     0.194347
      px      :     0.113368
      py      :     0.047509
  3 O s       :     3.462798  s :     3.462798
      pz      :     1.574120  p :     4.810179
      px      :     1.780267
      py      :     1.455792
      dz2     :     0.014502  d :     0.031448
      dxz     :     0.001343
      dyz     :     0.003885
      dx2y2   :     0.005363
      dxy     :     0.006355
      f0      :     0.000325  f :     0.002003
      f+1     :     0.000206
      f-1     :     0.000710
      f+2     :     0.000038
      f-2     :     0.000044
      f+3     :     0.000608
      f-3     :     0.000073
  4 H s       :     0.669283  s :     0.669283
      pz      :     0.093991  p :     0.172542
      px      :     0.042525
      py      :     0.036025
  5 H s       :     0.667795  s :     0.667795
      pz      :     0.030340  p :     0.154650
      px      :     0.049176
      py      :     0.075133
  6 O s       :     3.462929  s :     3.462929
      pz      :     1.524294  p :     4.853768
      px      :     1.840904
      py      :     1.488571
      dz2     :     0.014352  d :     0.029624
      dxz     :     0.001627
      dyz     :     0.004158
      dx2y2   :     0.003580
      dxy     :     0.005907
      f0      :     0.000408  f :     0.002021
      f+1     :     0.000187
      f-1     :     0.000731
      f+2     :     0.000046
      f-2     :     0.000045
      f+3     :     0.000539
      f-3     :     0.000064
  7 H s       :     0.660258  s :     0.660258
      pz      :     0.028868  p :     0.187660
      px      :     0.052738
      py      :     0.106055
  8 H s       :     0.677500  s :     0.677500
      pz      :     0.078642  p :     0.158676
      px      :     0.043292
      py      :     0.036742
  9 O s       :     3.462998  s :     3.462998
      pz      :     1.540434  p :     4.822856
      px      :     1.496114
      py      :     1.786308
      dz2     :     0.015129  d :     0.030775
      dxz     :     0.004345
      dyz     :     0.001392
      dx2y2   :     0.004592
      dxy     :     0.005316
      f0      :     0.000380  f :     0.001995
      f+1     :     0.000748
      f-1     :     0.000199
      f+2     :     0.000041
      f-2     :     0.000047
      f+3     :     0.000063
      f-3     :     0.000516
 10 H s       :     0.679774  s :     0.679774
      pz      :     0.078740  p :     0.159587
      px      :     0.037315
      py      :     0.043531
 11 H s       :     0.653869  s :     0.653869
      pz      :     0.028675  p :     0.187734
      px      :     0.106580
      py      :     0.052480
 12 O s       :     3.453862  s :     3.453862
      pz      :     1.548278  p :     4.799255
      px      :     1.726256
      py      :     1.524721
      dz2     :     0.015178  d :     0.032098
      dxz     :     0.001827
      dyz     :     0.001678
      dx2y2   :     0.003798
      dxy     :     0.009616
      f0      :     0.000398  f :     0.002131
      f+1     :     0.000336
      f-1     :     0.000564
      f+2     :     0.000021
      f-2     :     0.000046
      f+3     :     0.000741
      f-3     :     0.000027
 13 H s       :     0.661770  s :     0.661770
      pz      :     0.095417  p :     0.172231
      px      :     0.041153
      py      :     0.035661
 14 H s       :     0.677752  s :     0.677752
      pz      :     0.031495  p :     0.157893
      px      :     0.054935
      py      :     0.071462
 15 O s       :     3.468293  s :     3.468293
      pz      :     1.682580  p :     4.812067
      px      :     1.775059
      py      :     1.354428
      dz2     :     0.005341  d :     0.032097
      dxz     :     0.005727
      dyz     :     0.006683
      dx2y2   :     0.003904
      dxy     :     0.010443
      f0      :     0.000087  f :     0.002104
      f+1     :     0.000272
      f-1     :     0.000449
      f+2     :     0.000035
      f-2     :     0.000605
      f+3     :     0.000562
      f-3     :     0.000094
 16 H s       :     0.671787  s :     0.671787
      pz      :     0.066399  p :     0.163381
      px      :     0.052774
      py      :     0.044208
 17 H s       :     0.666075  s :     0.666075
      pz      :     0.033419  p :     0.147990
      px      :     0.043633
      py      :     0.070938


                      *****************************
                      * MAYER POPULATION ANALYSIS *
                      *****************************

  NA   - Mulliken gross atomic population
  ZA   - Total nuclear charge
  QA   - Mulliken gross atomic charge
  VA   - Mayer's total valence
  BVA  - Mayer's bonded valence
  FA   - Mayer's free valence

  ATOM       NA         ZA         QA         VA         BVA        FA
  0 O      8.7602     8.0000    -0.7602     1.6950     1.6950     0.0000
  1 H      0.6715     1.0000     0.3285     0.9077     0.9077     0.0000
  2 H      0.6031     1.0000     0.3969     0.8775     0.8775    -0.0000
  3 O      8.7385     8.0000    -0.7385     1.7564     1.7564     0.0000
  4 H      0.6067     1.0000     0.3933     0.8718     0.8718     0.0000
  5 H      0.6323     1.0000     0.3677     0.8839     0.8839    -0.0000
  6 O      8.7618     8.0000    -0.7618     1.6975     1.6975    -0.0000
  7 H      0.6165     1.0000     0.3835     0.8975     0.8975    -0.0000
  8 H      0.6508     1.0000     0.3492     0.8949     0.8949     0.0000
  9 O      8.7468     8.0000    -0.7468     1.7224     1.7224     0.0000
 10 H      0.6548     1.0000     0.3452     0.8954     0.8954     0.0000
 11 H      0.5922     1.0000     0.4078     0.8707     0.8707     0.0000
 12 O      8.7253     8.0000    -0.7253     1.7542     1.7542    -0.0000
 13 H      0.5933     1.0000     0.4067     0.8640     0.8640    -0.0000
 14 H      0.6568     1.0000     0.3432     0.8990     0.8990    -0.0000
 15 O      8.7182     8.0000    -0.7182     1.7701     1.7701    -0.0000
 16 H      0.6349     1.0000     0.3651     0.8821     0.8821    -0.0000
 17 H      0.6364     1.0000     0.3636     0.8820     0.8820    -0.0000

  Mayer bond orders larger than 0.100000
B(  0-O ,  1-H ) :   0.9017 B(  0-O ,  2-H ) :   0.8117 B(  3-O ,  4-H ) :   0.8378 
B(  3-O ,  5-H ) :   0.8677 B(  6-O ,  7-H ) :   0.8059 B(  6-O ,  8-H ) :   0.8874 
B(  9-O , 10-H ) :   0.8885 B(  9-O , 11-H ) :   0.7965 B( 12-O , 13-H ) :   0.8256 
B( 12-O , 14-H ) :   0.8892 B( 15-O , 16-H ) :   0.8746 B( 15-O , 17-H ) :   0.8724 


-------
TIMINGS
-------

Total SCF time: 0 days 0 hours 0 min 15 sec 

Total time                  ....      15.667 sec
Sum of individual times     ....      15.381 sec  ( 98.2%)

Fock matrix formation       ....      14.231 sec  ( 90.8%)
Diagonalization             ....       0.499 sec  (  3.2%)
Density matrix formation    ....       0.086 sec  (  0.5%)
Population analysis         ....       0.018 sec  (  0.1%)
Initial guess               ....       0.121 sec  (  0.8%)
Orbital Transformation      ....       0.000 sec  (  0.0%)
Orbital Orthonormalization  ....       0.000 sec  (  0.0%)
DIIS solution               ....       0.167 sec  (  1.1%)
SOSCF solution              ....       0.206 sec  (  1.3%)


           ************************************************************
           *        Program running with 6 parallel MPI-processes     *
           *              working on a common directory               *
           ************************************************************

------------------------------------------------------------------------------
                                ORCA  MP2 
------------------------------------------------------------------------------

Freezing NCore=12 chemical core electrons
MP2 will be done in the AO integral direct mode
The Q1-step will be done using symmetric double matrices
Dimension of the basis                    ...  258
Memory devoted for MP2                    ... 8000 MB   
Memory needed for all in one shot         ...  264 MB
Number of MOs that can be treated together...  120      
MP2 density construction                  ... relaxed
The MP2 gradient is requested => amplitudes will be stored on disk
Total number of MOs              ...   24
Number of MOs treated per batch  ...    4 
Number of batches necessary      ...    1 
OPERATORS   0/  0 PASS   0
-----------------------------------------------
 MP2 CORRELATION ENERGY   :     -1.550377368 Eh
-----------------------------------------------


---------------------
MP2 DENSITY FORMATION
---------------------

Completing the external part of the density      ... done
Storing the unrelaxed density                    ... done

Calculating G(D)                                 ... done
Completing the Lagrangian                        ... done
Solving the Z-vector equations                   ... 

------------------------------------------------------------------------------
                           ORCA CP-SCF CALCULATION
------------------------------------------------------------------------------

Input orbitals are from        ... 12h2o.su.etal.mol1,4,5,6,9,10-orca.engrad-mp2.def2tzvp.frozencore.gbw
Input Perturbation             ... 12h2o.su.etal.mol1,4,5,6,9,10-orca.engrad-mp2.def2tzvp.frozencore.pin.tmp
Wavefunction output            ... 12h2o.su.etal.mol1,4,5,6,9,10-orca.engrad-mp2.def2tzvp.frozencore.pout.tmp
Perturbation mode              ... Real perturbation (singlet)
Solver                         ... POPLE
Max. number of iterations      ... 128
Convergence tolerance          ... 1.000e-08
Integral handling              ... Direct
Number of perturbations        ... 1
Number of operators            ... 1
Orbital ranges used for CP-SCF:
 Operator 0:  Orbitals   0... 29  to  30...257
Variables per vector in CP-SCF ... 6840
Number of vectors sought       ... 1
     CP-SCF ITERATION   0: 
     CP-SCF ITERATION   1:      0.000783225496
     CP-SCF ITERATION   2:      0.000019815048
     CP-SCF ITERATION   3:      0.000000817374
     CP-SCF ITERATION   4:      0.000000094152
     CP-SCF ITERATION   5:      0.000000008640
                                                 ... done
Finalizing the relaxed density                   ... done
Transforming P to the AO basis                   ... done
Storing the relaxed density                      ... done

------------------------------------
ENERGY WEIGHTED DENSITY FINALIZATION
------------------------------------

Gathering the parts of the W-matrix              ...                                                      done
Forming the Z-density                            ... done
Transforming Z to the AO basis                   ... done
Calculating G(Z)                                 ... done
Finalizing the W-matrix                          ...                                                      done
Transforming W to the AO basis and storing       ... done

                *********************************************
                * UNRELAXED MP2 DENSITY POPULATION ANALYSIS *
                *********************************************

------------------------------------------------------------------------------
                           ORCA POPULATION ANALYSIS
------------------------------------------------------------------------------
Input electron density              ... 12h2o.su.etal.mol1,4,5,6,9,10-orca.engrad-mp2.def2tzvp.frozencore.pmp2ur
BaseName (.gbw .S,...)              ... 12h2o.su.etal.mol1,4,5,6,9,10-orca.engrad-mp2.def2tzvp.frozencore

                    ********************************
                    * MULLIKEN POPULATION ANALYSIS *
                    ********************************

-----------------------
MULLIKEN ATOMIC CHARGES
-----------------------
   0 O :   -0.754797
   1 H :    0.326203
   2 H :    0.392477
   3 O :   -0.731719
   4 H :    0.390340
   5 H :    0.364905
   6 O :   -0.755823
   7 H :    0.378715
   8 H :    0.346896
   9 O :   -0.739774
  10 H :    0.342713
  11 H :    0.403512
  12 O :   -0.718836
  13 H :    0.403625
  14 H :    0.340642
  15 O :   -0.712907
  16 H :    0.362951
  17 H :    0.360877
Sum of atomic charges:    0.0000000

--------------------------------
MULLIKEN REDUCED ORBITAL CHARGES
--------------------------------
  0 O s       :     3.803516  s :     3.803516
      pz      :     1.704590  p :     4.896493
      px      :     1.400857
      py      :     1.791046
      dz2     :     0.009499  d :     0.050752
      dxz     :     0.010063
      dyz     :     0.010881
      dx2y2   :     0.007800
      dxy     :     0.012509
      f0      :     0.000456  f :     0.004036
      f+1     :     0.000691
      f-1     :     0.000548
      f+2     :     0.000438
      f-2     :     0.000724
      f+3     :     0.000462
      f-3     :     0.000718
  1 H s       :     0.625850  s :     0.625850
      pz      :     0.017554  p :     0.047948
      px      :     0.014399
      py      :     0.015995
  2 H s       :     0.548956  s :     0.548956
      pz      :     0.011586  p :     0.058568
      px      :     0.032266
      py      :     0.014715
  3 O s       :     3.800132  s :     3.800132
      pz      :     1.586484  p :     4.875116
      px      :     1.828024
      py      :     1.460608
      dz2     :     0.016826  d :     0.052515
      dxz     :     0.007886
      dyz     :     0.008295
      dx2y2   :     0.009130
      dxy     :     0.010378
      f0      :     0.000534  f :     0.003956
      f+1     :     0.000488
      f-1     :     0.000824
      f+2     :     0.000432
      f-2     :     0.000406
      f+3     :     0.000799
      f-3     :     0.000472
  4 H s       :     0.559854  s :     0.559854
      pz      :     0.025048  p :     0.049806
      px      :     0.013412
      py      :     0.011347
  5 H s       :     0.590854  s :     0.590854
      pz      :     0.010819  p :     0.044241
      px      :     0.014754
      py      :     0.018669
  6 O s       :     3.803653  s :     3.803653
      pz      :     1.525947  p :     4.897907
      px      :     1.869165
      py      :     1.502795
      dz2     :     0.015444  d :     0.050238
      dxz     :     0.007925
      dyz     :     0.007982
      dx2y2   :     0.008362
      dxy     :     0.010525
      f0      :     0.000590  f :     0.004025
      f+1     :     0.000496
      f-1     :     0.000803
      f+2     :     0.000442
      f-2     :     0.000404
      f+3     :     0.000806
      f-3     :     0.000484
  7 H s       :     0.565856  s :     0.565856
      pz      :     0.009699  p :     0.055428
      px      :     0.016270
      py      :     0.029459
  8 H s       :     0.606454  s :     0.606454
      pz      :     0.018650  p :     0.046650
      px      :     0.015063
      py      :     0.012937
  9 O s       :     3.797576  s :     3.797576
      pz      :     1.529690  p :     4.886083
      px      :     1.526915
      py      :     1.829478
      dz2     :     0.017008  d :     0.052166
      dxz     :     0.008395
      dyz     :     0.007836
      dx2y2   :     0.008926
      dxy     :     0.010001
      f0      :     0.000553  f :     0.003949
      f+1     :     0.000831
      f-1     :     0.000485
      f+2     :     0.000433
      f-2     :     0.000408
      f+3     :     0.000468
      f-3     :     0.000772
 10 H s       :     0.611361  s :     0.611361
      pz      :     0.018810  p :     0.045925
      px      :     0.012525
      py      :     0.014591
 11 H s       :     0.541973  s :     0.541973
      pz      :     0.009827  p :     0.054515
      px      :     0.029755
      py      :     0.014933
 12 O s       :     3.791856  s :     3.791856
      pz      :     1.571082  p :     4.870692
      px      :     1.772958
      py      :     1.526652
      dz2     :     0.017008  d :     0.052287
      dxz     :     0.008024
      dyz     :     0.006605
      dx2y2   :     0.008123
      dxy     :     0.012526
      f0      :     0.000610  f :     0.004001
      f+1     :     0.000536
      f-1     :     0.000751
      f+2     :     0.000414
      f-2     :     0.000423
      f+3     :     0.000838
      f-3     :     0.000428
 13 H s       :     0.547209  s :     0.547209
      pz      :     0.025167  p :     0.049166
      px      :     0.012431
      py      :     0.011567
 14 H s       :     0.613643  s :     0.613643
      pz      :     0.011595  p :     0.045715
      px      :     0.015776
      py      :     0.018343
 15 O s       :     3.804885  s :     3.804885
      pz      :     1.709113  p :     4.852492
      px      :     1.792840
      py      :     1.350539
      dz2     :     0.009474  d :     0.051458
      dxz     :     0.011179
      dyz     :     0.009648
      dx2y2   :     0.007854
      dxy     :     0.013303
      f0      :     0.000454  f :     0.004073
      f+1     :     0.000553
      f-1     :     0.000690
      f+2     :     0.000438
      f-2     :     0.000715
      f+3     :     0.000755
      f-3     :     0.000468
 16 H s       :     0.590093  s :     0.590093
      pz      :     0.017453  p :     0.046956
      px      :     0.015636
      py      :     0.013868
 17 H s       :     0.595849  s :     0.595849
      pz      :     0.011620  p :     0.043274
      px      :     0.013950
      py      :     0.017704


                     *******************************
                     * LOEWDIN POPULATION ANALYSIS *
                     *******************************

----------------------
LOEWDIN ATOMIC CHARGES
----------------------
   0 O :   -0.372656
   1 H :    0.144576
   2 H :    0.150170
   3 O :   -0.301906
   4 H :    0.156231
   5 H :    0.175792
   6 O :   -0.345149
   7 H :    0.149390
   8 H :    0.162367
   9 O :   -0.314469
  10 H :    0.159072
  11 H :    0.155857
  12 O :   -0.283147
  13 H :    0.164126
  14 H :    0.162747
  15 O :   -0.310940
  16 H :    0.163726
  17 H :    0.184213

-------------------------------
LOEWDIN REDUCED ORBITAL CHARGES
-------------------------------
  0 O s       :     3.464145  s :     3.464145
      pz      :     1.693654  p :     4.845940
      px      :     1.383766
      py      :     1.768520
      dz2     :     0.009815  d :     0.057793
      dxz     :     0.012849
      dyz     :     0.011491
      dx2y2   :     0.008886
      dxy     :     0.014752
      f0      :     0.000452  f :     0.004778
      f+1     :     0.000852
      f-1     :     0.000650
      f+2     :     0.000410
      f-2     :     0.001046
      f+3     :     0.000471
      f-3     :     0.000897
  1 H s       :     0.687769  s :     0.687769
      pz      :     0.066806  p :     0.167655
      px      :     0.046460
      py      :     0.054389
  2 H s       :     0.653026  s :     0.653026
      pz      :     0.034308  p :     0.196804
      px      :     0.114112
      py      :     0.048384
  3 O s       :     3.458974  s :     3.458974
      pz      :     1.564178  p :     4.778408
      px      :     1.767455
      py      :     1.446775
      dz2     :     0.020331  d :     0.059739
      dxz     :     0.006892
      dyz     :     0.009285
      dx2y2   :     0.011094
      dxy     :     0.012138
      f0      :     0.000743  f :     0.004785
      f+1     :     0.000598
      f-1     :     0.001147
      f+2     :     0.000410
      f-2     :     0.000416
      f+3     :     0.001019
      f-3     :     0.000452
  4 H s       :     0.668443  s :     0.668443
      pz      :     0.095283  p :     0.175326
      px      :     0.043286
      py      :     0.036757
  5 H s       :     0.666478  s :     0.666478
      pz      :     0.031158  p :     0.157731
      px      :     0.050087
      py      :     0.076486
  6 O s       :     3.459229  s :     3.459229
      pz      :     1.514160  p :     4.823006
      px      :     1.829445
      py      :     1.479401
      dz2     :     0.020299  d :     0.058121
      dxz     :     0.007168
      dyz     :     0.009631
      dx2y2   :     0.009322
      dxy     :     0.011702
      f0      :     0.000821  f :     0.004792
      f+1     :     0.000575
      f-1     :     0.001168
      f+2     :     0.000417
      f-2     :     0.000418
      f+3     :     0.000952
      f-3     :     0.000442
  7 H s       :     0.660272  s :     0.660272
      pz      :     0.029672  p :     0.190338
      px      :     0.053588
      py      :     0.107078
  8 H s       :     0.675732  s :     0.675732
      pz      :     0.080256  p :     0.161901
      px      :     0.044086
      py      :     0.037559
  9 O s       :     3.459194  s :     3.459194
      pz      :     1.530768  p :     4.791239
      px      :     1.487019
      py      :     1.773452
      dz2     :     0.020934  d :     0.059251
      dxz     :     0.009760
      dyz     :     0.006936
      dx2y2   :     0.010421
      dxy     :     0.011200
      f0      :     0.000794  f :     0.004785
      f+1     :     0.001185
      f-1     :     0.000588
      f+2     :     0.000414
      f-2     :     0.000421
      f+3     :     0.000448
      f-3     :     0.000934
 10 H s       :     0.678015  s :     0.678015
      pz      :     0.080432  p :     0.162912
      px      :     0.038153
      py      :     0.044328
 11 H s       :     0.653857  s :     0.653857
      pz      :     0.029456  p :     0.190286
      px      :     0.107559
      py      :     0.053271
 12 O s       :     3.450051  s :     3.450051
      pz      :     1.538615  p :     4.767741
      px      :     1.713905
      py      :     1.515221
      dz2     :     0.021065  d :     0.060432
      dxz     :     0.007369
      dyz     :     0.007077
      dx2y2   :     0.009413
      dxy     :     0.015508
      f0      :     0.000823  f :     0.004924
      f+1     :     0.000738
      f-1     :     0.000986
      f+2     :     0.000389
      f-2     :     0.000420
      f+3     :     0.001161
      f-3     :     0.000407
 13 H s       :     0.661006  s :     0.661006
      pz      :     0.096575  p :     0.174868
      px      :     0.041930
      py      :     0.036363
 14 H s       :     0.676083  s :     0.676083
      pz      :     0.032277  p :     0.161170
      px      :     0.056014
      py      :     0.072879
 15 O s       :     3.464518  s :     3.464518
      pz      :     1.671234  p :     4.781600
      px      :     1.763999
      py      :     1.346367
      dz2     :     0.010951  d :     0.059971
      dxz     :     0.011401
      dyz     :     0.012249
      dx2y2   :     0.009368
      dxy     :     0.016002
      f0      :     0.000470  f :     0.004850
      f+1     :     0.000656
      f-1     :     0.000857
      f+2     :     0.000409
      f-2     :     0.001012
      f+3     :     0.000972
      f-3     :     0.000474
 16 H s       :     0.669930  s :     0.669930
      pz      :     0.067580  p :     0.166345
      px      :     0.053752
      py      :     0.045013
 17 H s       :     0.664683  s :     0.664683
      pz      :     0.034258  p :     0.151104
      px      :     0.044632
      py      :     0.072215


                      *****************************
                      * MAYER POPULATION ANALYSIS *
                      *****************************

  NA   - Mulliken gross atomic population
  ZA   - Total nuclear charge
  QA   - Mulliken gross atomic charge
  VA   - Mayer's total valence
  BVA  - Mayer's bonded valence
  FA   - Mayer's free valence

  ATOM       NA         ZA         QA         VA         BVA        FA
  0 O      8.7548     8.0000    -0.7548     2.0083     1.6165     0.3918
  1 H      0.6738     1.0000     0.3262     0.9139     0.8655     0.0483
  2 H      0.6075     1.0000     0.3925     0.8847     0.8393     0.0454
  3 O      8.7317     8.0000    -0.7317     2.0676     1.6764     0.3912
  4 H      0.6097     1.0000     0.3903     0.8778     0.8340     0.0438
  5 H      0.6351     1.0000     0.3649     0.8902     0.8427     0.0475
  6 O      8.7558     8.0000    -0.7558     2.0118     1.6189     0.3929
  7 H      0.6213     1.0000     0.3787     0.9056     0.8584     0.0473
  8 H      0.6531     1.0000     0.3469     0.9006     0.8532     0.0475
  9 O      8.7398     8.0000    -0.7398     2.0350     1.6431     0.3919
 10 H      0.6573     1.0000     0.3427     0.9016     0.8532     0.0483
 11 H      0.5965     1.0000     0.4035     0.8780     0.8334     0.0446
 12 O      8.7188     8.0000    -0.7188     2.0628     1.6750     0.3878
 13 H      0.5964     1.0000     0.4036     0.8699     0.8271     0.0428
 14 H      0.6594     1.0000     0.3406     0.9052     0.8569     0.0483
 15 O      8.7129     8.0000    -0.7129     2.0781     1.6890     0.3891
 16 H      0.6370     1.0000     0.3630     0.8876     0.8426     0.0450
 17 H      0.6391     1.0000     0.3609     0.8881     0.8400     0.0481

  Mayer bond orders larger than 0.100000
B(  0-O ,  1-H ) :   0.8600 B(  0-O ,  2-H ) :   0.7753 B(  3-O ,  4-H ) :   0.8009 
B(  3-O ,  5-H ) :   0.8273 B(  6-O ,  7-H ) :   0.7694 B(  6-O ,  8-H ) :   0.8464 
B(  9-O , 10-H ) :   0.8468 B(  9-O , 11-H ) :   0.7614 B( 12-O , 13-H ) :   0.7899 
B( 12-O , 14-H ) :   0.8477 B( 15-O , 16-H ) :   0.8357 B( 15-O , 17-H ) :   0.8310 



                *******************************************
                * RELAXED MP2 DENSITY POPULATION ANALYSIS *
                *******************************************

------------------------------------------------------------------------------
                           ORCA POPULATION ANALYSIS
------------------------------------------------------------------------------
Input electron density              ... 12h2o.su.etal.mol1,4,5,6,9,10-orca.engrad-mp2.def2tzvp.frozencore.pmp2re
BaseName (.gbw .S,...)              ... 12h2o.su.etal.mol1,4,5,6,9,10-orca.engrad-mp2.def2tzvp.frozencore

                    ********************************
                    * MULLIKEN POPULATION ANALYSIS *
                    ********************************

-----------------------
MULLIKEN ATOMIC CHARGES
-----------------------
   0 O :   -0.736244
   1 H :    0.320184
   2 H :    0.370426
   3 O :   -0.703084
   4 H :    0.376263
   5 H :    0.356938
   6 O :   -0.731607
   7 H :    0.353292
   8 H :    0.339322
   9 O :   -0.710206
  10 H :    0.337413
  11 H :    0.380944
  12 O :   -0.692252
  13 H :    0.388812
  14 H :    0.334294
  15 O :   -0.695255
  16 H :    0.356198
  17 H :    0.354562
Sum of atomic charges:    0.0000000

--------------------------------
MULLIKEN REDUCED ORBITAL CHARGES
--------------------------------
  0 O s       :     3.804845  s :     3.804845
      pz      :     1.698787  p :     4.878600
      px      :     1.394399
      py      :     1.785414
      dz2     :     0.009296  d :     0.048829
      dxz     :     0.009491
      dyz     :     0.010558
      dx2y2   :     0.007680
      dxy     :     0.011803
      f0      :     0.000453  f :     0.003971
      f+1     :     0.000674
      f-1     :     0.000540
      f+2     :     0.000438
      f-2     :     0.000705
      f+3     :     0.000460
      f-3     :     0.000700
  1 H s       :     0.631059  s :     0.631059
      pz      :     0.017672  p :     0.048757
      px      :     0.014426
      py      :     0.016658
  2 H s       :     0.570790  s :     0.570790
      pz      :     0.012360  p :     0.058784
      px      :     0.031192
      py      :     0.015232
  3 O s       :     3.800576  s :     3.800576
      pz      :     1.582712  p :     4.848110
      px      :     1.811283
      py      :     1.454115
      dz2     :     0.015766  d :     0.050515
      dxz     :     0.007943
      dyz     :     0.008063
      dx2y2   :     0.008816
      dxy     :     0.009926
      f0      :     0.000521  f :     0.003882
      f+1     :     0.000483
      f-1     :     0.000796
      f+2     :     0.000432
      f-2     :     0.000404
      f+3     :     0.000777
      f-3     :     0.000470
  4 H s       :     0.573398  s :     0.573398
      pz      :     0.024415  p :     0.050339
      px      :     0.014263
      py      :     0.011661
  5 H s       :     0.598169  s :     0.598169
      pz      :     0.011577  p :     0.044893
      px      :     0.015468
      py      :     0.017848
  6 O s       :     3.805170  s :     3.805170
      pz      :     1.515029  p :     4.874265
      px      :     1.862388
      py      :     1.496848
      dz2     :     0.014300  d :     0.048215
      dxz     :     0.007935
      dyz     :     0.007695
      dx2y2   :     0.008175
      dxy     :     0.010109
      f0      :     0.000578  f :     0.003957
      f+1     :     0.000490
      f-1     :     0.000774
      f+2     :     0.000441
      f-2     :     0.000403
      f+3     :     0.000788
      f-3     :     0.000483
  7 H s       :     0.590879  s :     0.590879
      pz      :     0.010371  p :     0.055829
      px      :     0.016858
      py      :     0.028601
  8 H s       :     0.613297  s :     0.613297
      pz      :     0.017924  p :     0.047381
      px      :     0.016041
      py      :     0.013416
  9 O s       :     3.796939  s :     3.796939
      pz      :     1.524931  p :     4.859072
      px      :     1.524186
      py      :     1.809955
      dz2     :     0.015832  d :     0.050315
      dxz     :     0.008153
      dyz     :     0.007897
      dx2y2   :     0.008751
      dxy     :     0.009683
      f0      :     0.000539  f :     0.003880
      f+1     :     0.000805
      f-1     :     0.000480
      f+2     :     0.000432
      f-2     :     0.000407
      f+3     :     0.000465
      f-3     :     0.000753
 10 H s       :     0.615897  s :     0.615897
      pz      :     0.018164  p :     0.046690
      px      :     0.012944
      py      :     0.015582
 11 H s       :     0.564342  s :     0.564342
      pz      :     0.010442  p :     0.054714
      px      :     0.028919
      py      :     0.015353
 12 O s       :     3.791976  s :     3.791976
      pz      :     1.568554  p :     4.846024
      px      :     1.757490
      py      :     1.519980
      dz2     :     0.015842  d :     0.050325
      dxz     :     0.008012
      dyz     :     0.006577
      dx2y2   :     0.008077
      dxy     :     0.011816
      f0      :     0.000594  f :     0.003927
      f+1     :     0.000527
      f-1     :     0.000729
      f+2     :     0.000415
      f-2     :     0.000422
      f+3     :     0.000813
      f-3     :     0.000428
 13 H s       :     0.561672  s :     0.561672
      pz      :     0.024358  p :     0.049515
      px      :     0.013175
      py      :     0.011983
 14 H s       :     0.619232  s :     0.619232
      pz      :     0.012346  p :     0.046474
      px      :     0.016356
      py      :     0.017773
 15 O s       :     3.809042  s :     3.809042
      pz      :     1.699016  p :     4.833010
      px      :     1.787196
      py      :     1.346799
      dz2     :     0.009220  d :     0.049203
      dxz     :     0.010903
      dyz     :     0.009064
      dx2y2   :     0.007606
      dxy     :     0.012410
      f0      :     0.000452  f :     0.004000
      f+1     :     0.000544
      f-1     :     0.000671
      f+2     :     0.000438
      f-2     :     0.000694
      f+3     :     0.000735
      f-3     :     0.000466
 16 H s       :     0.596171  s :     0.596171
      pz      :     0.017584  p :     0.047631
      px      :     0.016259
      py      :     0.013788
 17 H s       :     0.601550  s :     0.601550
      pz      :     0.012470  p :     0.043888
      px      :     0.014694
      py      :     0.016724


                     *******************************
                     * LOEWDIN POPULATION ANALYSIS *
                     *******************************

----------------------
LOEWDIN ATOMIC CHARGES
----------------------
   0 O :   -0.375017
   1 H :    0.146501
   2 H :    0.142935
   3 O :   -0.294787
   4 H :    0.152501
   5 H :    0.176715
   6 O :   -0.344244
   7 H :    0.141612
   8 H :    0.163935
   9 O :   -0.308513
  10 H :    0.160933
  11 H :    0.148407
  12 O :   -0.277166
  13 H :    0.160306
  14 H :    0.164339
  15 O :   -0.309639
  16 H :    0.165397
  17 H :    0.185785

-------------------------------
LOEWDIN REDUCED ORBITAL CHARGES
-------------------------------
  0 O s       :     3.465722  s :     3.465722
      pz      :     1.693244  p :     4.847514
      px      :     1.387258
      py      :     1.767012
      dz2     :     0.009765  d :     0.056966
      dxz     :     0.012470
      dyz     :     0.011386
      dx2y2   :     0.008872
      dxy     :     0.014472
      f0      :     0.000454  f :     0.004816
      f+1     :     0.000864
      f-1     :     0.000651
      f+2     :     0.000411
      f-2     :     0.001046
      f+3     :     0.000476
      f-3     :     0.000914
  1 H s       :     0.685484  s :     0.685484
      pz      :     0.066924  p :     0.168015
      px      :     0.046074
      py      :     0.055017
  2 H s       :     0.660108  s :     0.660108
      pz      :     0.035002  p :     0.196957
      px      :     0.113012
      py      :     0.048943
  3 O s       :     3.460008  s :     3.460008
      pz      :     1.565256  p :     4.771166
      px      :     1.756273
      py      :     1.449638
      dz2     :     0.019874  d :     0.058810
      dxz     :     0.006970
      dyz     :     0.009091
      dx2y2   :     0.010945
      dxy     :     0.011929
      f0      :     0.000743  f :     0.004803
      f+1     :     0.000599
      f-1     :     0.001154
      f+2     :     0.000412
      f-2     :     0.000415
      f+3     :     0.001025
      f-3     :     0.000454
  4 H s       :     0.671943  s :     0.671943
      pz      :     0.094819  p :     0.175556
      px      :     0.043954
      py      :     0.036783
  5 H s       :     0.665518  s :     0.665518
      pz      :     0.031750  p :     0.157767
      px      :     0.050559
      py      :     0.075458
  6 O s       :     3.460558  s :     3.460558
      pz      :     1.512856  p :     4.821497
      px      :     1.826786
      py      :     1.481855
      dz2     :     0.019826  d :     0.057362
      dxz     :     0.007223
      dyz     :     0.009410
      dx2y2   :     0.009293
      dxy     :     0.011609
      f0      :     0.000823  f :     0.004828
      f+1     :     0.000576
      f-1     :     0.001181
      f+2     :     0.000419
      f-2     :     0.000417
      f+3     :     0.000967
      f-3     :     0.000445
  7 H s       :     0.667295  s :     0.667295
      pz      :     0.029965  p :     0.191093
      px      :     0.054337
      py      :     0.106791
  8 H s       :     0.674032  s :     0.674032
      pz      :     0.079462  p :     0.162033
      px      :     0.044964
      py      :     0.037607
  9 O s       :     3.460606  s :     3.460606
      pz      :     1.532617  p :     4.784508
      px      :     1.490093
      py      :     1.761798
      dz2     :     0.020367  d :     0.058585
      dxz     :     0.009526
      dyz     :     0.007010
      dx2y2   :     0.010480
      dxy     :     0.011201
      f0      :     0.000790  f :     0.004814
      f+1     :     0.001197
      f-1     :     0.000590
      f+2     :     0.000416
      f-2     :     0.000420
      f+3     :     0.000451
      f-3     :     0.000950
 10 H s       :     0.675834  s :     0.675834
      pz      :     0.079872  p :     0.163233
      px      :     0.038324
      py      :     0.045037
 11 H s       :     0.660781  s :     0.660781
      pz      :     0.029846  p :     0.190812
      px      :     0.107256
      py      :     0.053711
 12 O s       :     3.450935  s :     3.450935
      pz      :     1.540300  p :     4.761713
      px      :     1.704544
      py      :     1.516869
      dz2     :     0.020552  d :     0.059574
      dxz     :     0.007415
      dyz     :     0.006972
      dx2y2   :     0.009461
      dxy     :     0.015173
      f0      :     0.000826  f :     0.004945
      f+1     :     0.000739
      f-1     :     0.000993
      f+2     :     0.000391
      f-2     :     0.000420
      f+3     :     0.001168
      f-3     :     0.000408
 13 H s       :     0.664785  s :     0.664785
      pz      :     0.095686  p :     0.174909
      px      :     0.042563
      py      :     0.036659
 14 H s       :     0.674202  s :     0.674202
      pz      :     0.032775  p :     0.161458
      px      :     0.056489
      py      :     0.072194
 15 O s       :     3.466379  s :     3.466379
      pz      :     1.665952  p :     4.779653
      px      :     1.762278
      py      :     1.351423
      dz2     :     0.010854  d :     0.058738
      dxz     :     0.011369
      dyz     :     0.011883
      dx2y2   :     0.009133
      dxy     :     0.015499
      f0      :     0.000473  f :     0.004869
      f+1     :     0.000657
      f-1     :     0.000864
      f+2     :     0.000409
      f-2     :     0.001011
      f+3     :     0.000977
      f-3     :     0.000477
 16 H s       :     0.668454  s :     0.668454
      pz      :     0.067570  p :     0.166149
      px      :     0.054382
      py      :     0.044197
 17 H s       :     0.663052  s :     0.663052
      pz      :     0.034947  p :     0.151163
      px      :     0.045402
      py      :     0.070814


                      *****************************
                      * MAYER POPULATION ANALYSIS *
                      *****************************

  NA   - Mulliken gross atomic population
  ZA   - Total nuclear charge
  QA   - Mulliken gross atomic charge
  VA   - Mayer's total valence
  BVA  - Mayer's bonded valence
  FA   - Mayer's free valence

  ATOM       NA         ZA         QA         VA         BVA        FA
  0 O      8.7362     8.0000    -0.7362     2.0148     1.6277     0.3871
  1 H      0.6798     1.0000     0.3202     0.9174     0.8690     0.0484
  2 H      0.6296     1.0000     0.3704     0.9119     0.8671     0.0448
  3 O      8.7031     8.0000    -0.7031     2.1053     1.7204     0.3849
  4 H      0.6237     1.0000     0.3763     0.8970     0.8535     0.0435
  5 H      0.6431     1.0000     0.3569     0.8990     0.8517     0.0473
  6 O      8.7316     8.0000    -0.7316     2.0296     1.6421     0.3875
  7 H      0.6467     1.0000     0.3533     0.9387     0.8928     0.0459
  8 H      0.6607     1.0000     0.3393     0.9056     0.8580     0.0476
  9 O      8.7102     8.0000    -0.7102     2.0674     1.6815     0.3859
 10 H      0.6626     1.0000     0.3374     0.9052     0.8568     0.0484
 11 H      0.6191     1.0000     0.3809     0.9075     0.8639     0.0436
 12 O      8.6923     8.0000    -0.6923     2.0992     1.7173     0.3819
 13 H      0.6112     1.0000     0.3888     0.8905     0.8481     0.0424
 14 H      0.6657     1.0000     0.3343     0.9110     0.8627     0.0482
 15 O      8.6953     8.0000    -0.6953     2.0998     1.7163     0.3835
 16 H      0.6438     1.0000     0.3562     0.8927     0.8477     0.0450
 17 H      0.6454     1.0000     0.3546     0.8939     0.8458     0.0481

  Mayer bond orders larger than 0.100000
B(  0-O ,  1-H ) :   0.8629 B(  0-O ,  2-H ) :   0.7773 B(  3-O ,  4-H ) :   0.8047 
B(  3-O ,  5-H ) :   0.8296 B(  3-O , 11-H ) :   0.1016 B(  6-O ,  7-H ) :   0.7670 
B(  6-O ,  8-H ) :   0.8496 B(  7-H ,  9-O ) :   0.1102 B(  9-O , 10-H ) :   0.8490 
B(  9-O , 11-H ) :   0.7612 B( 12-O , 13-H ) :   0.7945 B( 12-O , 14-H ) :   0.8503 
B( 15-O , 16-H ) :   0.8396 B( 15-O , 17-H ) :   0.8344 


----------------------------------
MP2 DERIVATIVE INTEGRAL GENERATION
----------------------------------


Input Wavefunction Amplitudes       ... 12h2o.su.etal.mol1,4,5,6,9,10-orca.engrad-mp2.def2tzvp.frozencore.mp2tsaa.tmp
Input Correlated Electron Density   ... 12h2o.su.etal.mol1,4,5,6,9,10-orca.engrad-mp2.def2tzvp.frozencore.pmp2re
Input Energy Weighted Density       ... 12h2o.su.etal.mol1,4,5,6,9,10-orca.engrad-mp2.def2tzvp.frozencore.wmp2.tmp
Input SCF Electron Density          ... 12h2o.su.etal.mol1,4,5,6,9,10-orca.engrad-mp2.def2tzvp.frozencore.scfp

One-Electron Terms    ...
                        ... One-Electron Terms done
Prescreening matrices              ... done

Batch handling in the gradient evaluation:
Memory available                      ... 8000.0 MB
Memory per occupied orbital in Q2     ...   12.2 MB
Memory per occupied orbital in Q3     ...    0.1 MB
Total memory requirement per |i>      ...   12.3 MB
Max. Number of orbitals possible      ...    651
Number of orbitals treated per batch  ...     24
Number of batches to be done          ...      1
Batch   0: i=    6 ...    29

---------------------------------------
MP2 TOTAL ENERGY:     -457.924900524 Eh
---------------------------------------

The final MP2 gradient
  0:  -0.00824169   0.00270198   0.00046470
  1:  -0.00207389   0.00012903   0.00056572
  2:   0.01742872  -0.00506698  -0.00011369
  3:   0.00424897   0.01568209   0.00353256
  4:  -0.00111564   0.00177266  -0.00009930
  5:  -0.00423441  -0.01544408  -0.00602051
  6:  -0.00385464   0.00058474   0.00895130
  7:   0.00205488   0.00055137   0.00321010
  8:   0.00092086  -0.00103295  -0.01098357
  9:  -0.00257575   0.00223893  -0.01264480
 10:   0.00116128  -0.00216814   0.00941351
 11:   0.00046583  -0.00197450   0.00002939
 12:  -0.01235524  -0.00799981  -0.00145303
 13:   0.00158972   0.00076451   0.00388301
 14:   0.00506500   0.00978691  -0.00072310
 15:   0.01003366   0.02596406  -0.00154874
 16:   0.00180817   0.00126397   0.00248219
 17:  -0.01032582  -0.02775380   0.00105426

-----------------------------------
NORM OF THE MP2 GRADIENT:  0.059256
-----------------------------------

-------------------------   --------------------
FINAL SINGLE POINT ENERGY      -457.924900524201
-------------------------   --------------------


                            ***************************************
                            *     ORCA property calculations      *
                            ***************************************

                                    ---------------------
                                    Active property flags
                                    ---------------------
   (+) Dipole Moment


------------------------------------------------------------------------------
                       ORCA ELECTRIC PROPERTIES CALCULATION
------------------------------------------------------------------------------

Dipole Moment Calculation                       ... on
Quadrupole Moment Calculation                   ... off
Polarizability Calculation                      ... off
GBWName                                         ... 12h2o.su.etal.mol1,4,5,6,9,10-orca.engrad-mp2.def2tzvp.frozencore.gbw
Electron density file                           ... 12h2o.su.etal.mol1,4,5,6,9,10-orca.engrad-mp2.def2tzvp.frozencore.scfp
The origin for moment calculation is the CENTER OF MASS  = (-0.080601, -0.000276  0.897884)

-------------
DIPOLE MOMENT
-------------
                                X             Y             Z
Electronic contribution:      0.11407       0.29385      -0.22209
Nuclear contribution   :     -0.25891      -0.07922      -1.46039
                        -----------------------------------------
Total Dipole Moment    :     -0.14484       0.21464      -1.68248
                        -----------------------------------------
Magnitude (a.u.)       :      1.70229
Magnitude (Debye)      :      4.32687



--------------------
Rotational spectrum 
--------------------
 
Rotational constants in cm-1:     0.065441     0.026072     0.022192 
Rotational constants in MHz :  1961.870871   781.614328   665.311939 

 Dipole components along the rotational axes: 
x,y,z [a.u.] :    -1.497843    -0.294301     0.753415 
x,y,z [Debye]:    -3.807214    -0.748054     1.915028 

 

                         *** MP2 UNRELAXED DENSITY ***

------------------------------------------------------------------------------
                       ORCA ELECTRIC PROPERTIES CALCULATION
------------------------------------------------------------------------------

Dipole Moment Calculation                       ... on
Quadrupole Moment Calculation                   ... off
Polarizability Calculation                      ... off
GBWName                                         ... 12h2o.su.etal.mol1,4,5,6,9,10-orca.engrad-mp2.def2tzvp.frozencore.gbw
Electron density file                           ... 12h2o.su.etal.mol1,4,5,6,9,10-orca.engrad-mp2.def2tzvp.frozencore.pmp2ur
The origin for moment calculation is the CENTER OF MASS  = (-0.080601, -0.000276  0.897884)

-------------
DIPOLE MOMENT
-------------
                                X             Y             Z
Electronic contribution:      0.11656       0.29937      -0.21193
Nuclear contribution   :     -0.25891      -0.07922      -1.46039
                        -----------------------------------------
Total Dipole Moment    :     -0.14235       0.22015      -1.67232
                        -----------------------------------------
Magnitude (a.u.)       :      1.69274
Magnitude (Debye)      :      4.30261



--------------------
Rotational spectrum 
--------------------
 
Rotational constants in cm-1:     0.065441     0.026072     0.022192 
Rotational constants in MHz :  1961.870871   781.614328   665.311939 

 Dipole components along the rotational axes: 
x,y,z [a.u.] :    -1.492638    -0.292092     0.743028 
x,y,z [Debye]:    -3.793984    -0.742438     1.888627 

 

                           *** MP2 RELAXED DENSITY ***

------------------------------------------------------------------------------
                       ORCA ELECTRIC PROPERTIES CALCULATION
------------------------------------------------------------------------------

Dipole Moment Calculation                       ... on
Quadrupole Moment Calculation                   ... off
Polarizability Calculation                      ... off
GBWName                                         ... 12h2o.su.etal.mol1,4,5,6,9,10-orca.engrad-mp2.def2tzvp.frozencore.gbw
Electron density file                           ... 12h2o.su.etal.mol1,4,5,6,9,10-orca.engrad-mp2.def2tzvp.frozencore.pmp2re
The origin for moment calculation is the CENTER OF MASS  = (-0.080601, -0.000276  0.897884)

-------------
DIPOLE MOMENT
-------------
                                X             Y             Z
Electronic contribution:      0.11591       0.32194      -0.21118
Nuclear contribution   :     -0.25891      -0.07922      -1.46039
                        -----------------------------------------
Total Dipole Moment    :     -0.14299       0.24272      -1.67157
                        -----------------------------------------
Magnitude (a.u.)       :      1.69514
Magnitude (Debye)      :      4.30870



--------------------
Rotational spectrum 
--------------------
 
Rotational constants in cm-1:     0.065441     0.026072     0.022192 
Rotational constants in MHz :  1961.870871   781.614328   665.311939 

 Dipole components along the rotational axes: 
x,y,z [a.u.] :    -1.505220    -0.284967     0.725670 
x,y,z [Debye]:    -3.825966    -0.724328     1.844507 

 

Timings for individual modules:

Sum of individual times         ...       66.001 sec (=   1.100 min)
GTO integral calculation        ...        0.884 sec (=   0.015 min)   1.3 %
SCF iterations                  ...       16.396 sec (=   0.273 min)  24.8 %
MP2 module                      ...       48.722 sec (=   0.812 min)  73.8 %
                             ****ORCA TERMINATED NORMALLY****
TOTAL RUN TIME: 0 days 0 hours 1 minutes 6 seconds 913 msec
