91
Energy:   -777.63185411
C    4.56645716   3.00760431   0.27464087
H    4.56561565   2.25400579   1.03423863
H    3.77274619   3.70102191   0.45928653
H    5.50266634   3.52553875   0.28710579
C    4.36257704   2.34878025  -1.10230638
N    4.21077902   1.85825578  -2.12750621
C    0.78408599   3.54194411   2.49831581
H    0.74838773   4.31730332   1.76180789
H    1.40098003   3.85392606   3.31502144
H   -0.20501194   3.34240977   2.85436415
C    1.37116121   2.26416370   1.87044647
N    1.80826539   1.31279810   1.40296921
C    6.06636089  -1.11364581  -1.30168903
H    6.16792635  -2.15756274  -1.51340132
H    7.02847467  -0.69829691  -1.08553757
H    5.64597819  -0.61673092  -2.15095522
C    5.14049309  -0.92416339  -0.08576747
N    4.45114243  -0.78308512   0.81954140
C   -1.89231769  -6.28148402   2.33531040
H   -2.16617984  -6.97903514   3.09906569
H   -1.18510531  -6.73645555   1.67368312
H   -2.76377727  -5.99573833   1.78412378
C   -1.26176660  -5.03397094   2.98162027
N   -0.79229266  -4.10514075   3.46282734
C   -3.85737480  -2.42029118  -2.09885242
H   -4.46059951  -1.70444307  -1.58060382
H   -3.65368772  -3.24904177  -1.45341992
H   -4.37918249  -2.76439791  -2.96730298
C   -2.53132389  -1.76253836  -2.52376446
N   -1.54401872  -1.27281149  -2.84013079
C    1.92336398   4.25372030  -3.63286316
H    2.25399645   5.24948160  -3.84272450
H    1.06137319   4.03154658  -4.22658853
H    2.70528689   3.56162869  -3.86632588
C    1.56273761   4.13642682  -2.14028457
N    1.29423489   4.04909649  -1.02899196
C   -0.40718602  -1.09861905   5.16973828
H   -1.23630541  -1.61552956   4.73354482
H   -0.67733177  -0.07908957   5.34996041
H   -0.14208853  -1.56624195   6.09491461
C    0.79339398  -1.14898730   4.20658164
N    1.68728035  -1.18648875   3.48946774
C   -2.82977162  -1.96779014   1.61312505
H   -3.48485248  -1.21693847   1.22326479
H   -2.89776996  -1.98097940   2.68088034
H   -3.11296139  -2.92420465   1.22586039
C   -1.38149397  -1.65295005   1.19483383
N   -0.30318542  -1.41853729   0.88339701
C   -1.15258587   1.52141930  -0.56535613
H   -0.55850893   0.71899421  -0.95017652
H   -0.88499057   1.70627252   0.45401678
H   -0.97895783   2.40369426  -1.14530725
C   -2.64264702   1.14044407  -0.64394148
N   -3.75206527   0.85679069  -0.70245185
C    0.70798820  -4.01316149  -1.98103625
H    0.91735200  -4.86018075  -2.60041122
H    1.55028846  -3.81455239  -1.35176383
H    0.51399021  -3.16007613  -2.59707947
C   -0.52641201  -4.30774130  -1.10863791
N   -1.44547908  -4.52706936  -0.45909770
C   -3.47296390   1.34241954  -4.38036921
H   -4.08030746   1.19178136  -3.51241637
H   -3.11727553   0.39768453  -4.73513763
H   -4.05406065   1.81462997  -5.14472709
C   -2.27442150   2.23930967  -4.01886653
N   -1.38205219   2.90708515  -3.74971136
C   -4.16462830   2.45345431   2.64701262
H   -4.90662832   2.10465640   3.33452710
H   -4.51028283   2.30769889   1.64492610
H   -3.98480101   3.49487688   2.81434543
C   -2.85803333   1.66636999   2.85892743
N   -1.88521399   1.08034994   3.01670764
C    1.35084285   0.47504366  -3.52240657
H    2.23863453   0.77248679  -4.04033871
H    0.79004522   1.34395666  -3.24782452
H    0.75699522  -0.14591975  -4.16009656
C    1.73491323  -0.30991557  -2.25436518
N    2.02087109  -0.89435339  -1.31025073
C    2.51040079  -5.01926185   3.37188827
H    2.08807860  -5.97646203   3.14758501
H    1.95874546  -4.56360049   4.16746870
H    3.53102650  -5.14058231   3.66938379
C    2.44326213  -4.12280848   2.12150283
N    2.39327435  -3.45535821   1.19053403
C   -1.69433747   5.82292198  -1.36804962
H   -1.71762960   5.16709496  -2.21318190
H   -0.74033569   6.30472986  -1.31666030
H   -2.46198347   6.56152312  -1.46848400
C   -1.92902764   5.01034448  -0.08110038
N   -2.10376514   4.40534360   0.87709182
Na   2.06250606  -1.05479601   1.10240719
