91
Energy:   -776.22071320
C    0.51092305   5.55121081  -5.62600259
H    1.16784954   6.38798427  -5.51129458
H   -0.48862191   5.90087913  -5.77943346
H    0.81860832   4.96920880  -6.46950869
C    0.56120083   4.68126780  -4.35625013
N    0.59863493   4.03355569  -3.41086171
C    0.63588644   4.46596408   2.83369615
H    0.80632953   5.44689304   3.22564985
H    1.43503252   3.81938537   3.13068203
H   -0.28981363   4.08624065   3.21289080
C    0.57271884   4.53126764   1.29637858
N    0.52568769   4.57988910   0.15177578
C    0.43010160  -1.38549623   0.22505997
H    1.28094850  -2.01794091   0.36988211
H    0.74547306  -0.36331313   0.20094279
H   -0.04553938  -1.63393998  -0.70065081
C   -0.56381539  -1.58885531   1.38366868
N   -1.30383176  -1.74026538   2.24630552
C    3.62613028  -3.66908756  -1.80299514
H    3.59193142  -4.71395623  -2.03098654
H    3.61451107  -3.53508417  -0.74148339
H    4.52201564  -3.24517991  -2.20622066
C    2.40266669  -2.96823136  -2.42229911
N    1.49174243  -2.44641206  -2.88339907
C    4.50972540  -3.83236294   2.19293091
H    5.09130555  -3.22907872   1.52756419
H    4.17352206  -4.70825753   1.67846510
H    5.10993273  -4.11927806   3.03098220
C    3.29271419  -3.02706306   2.68484128
N    2.38659403  -2.42748069   3.05109091
C   -4.75919404   2.78305356  -0.97386176
H   -4.97445381   1.86948050  -1.48762015
H   -5.51912747   3.50350524  -1.19374727
H   -4.73376198   2.60192861   0.08038966
C   -3.39224554   3.32168945  -1.43529777
N   -2.37449026   3.72272835  -1.77885784
C   -4.33487737  -2.68232594   0.70916486
H   -3.60992998  -2.92468865   1.45790499
H   -4.37300559  -3.46676644  -0.01753896
H   -5.29621515  -2.57221074   1.16589609
C   -3.93977509  -1.36297812   0.02009628
N   -3.64560349  -0.38066369  -0.49294660
C   -1.87797211  -1.42252577  -3.37078445
H   -1.11823865  -2.09988106  -3.70077696
H   -2.58918991  -1.27413222  -4.15630829
H   -2.37251207  -1.83102256  -2.51436184
C   -1.23602942  -0.07328387  -2.99788250
N   -0.75807390   0.93128806  -2.72024005
C   -2.74094502   1.41429961   2.53450062
H   -3.56285829   2.09026233   2.42299657
H   -2.24989600   1.60057338   3.46674095
H   -3.10235484   0.40734120   2.51670138
C   -1.74458609   1.62259132   1.37886943
N   -1.00275157   1.77767397   0.51844949
C    3.28444835   0.90982088   1.85921391
H    3.17180358   0.44929054   2.81844440
H    2.34406232   1.31095095   1.54351175
H    4.00471619   1.69839300   1.92453884
C    3.76337914  -0.13964337   0.83899330
N    4.11996488  -0.92101720   0.07939268
C   -2.34954988   6.87963488   0.15952879
H   -3.24669152   7.26315023  -0.27973541
H   -1.66831299   6.59224878  -0.61392104
H   -1.89934049   7.63538431   0.76867031
C   -2.68677399   5.65356419   1.02822354
N   -2.93785268   4.74069883   1.67500626
C    0.32061402  -1.00824468   5.28517224
H   -0.21436921  -1.75509814   4.73662594
H   -0.21125856  -0.77662740   6.18426294
H    1.29469286  -1.37606991   5.53169627
C    0.45414373   0.26270589   4.42583851
N    0.55356267   1.20898636   3.78602549
C   -0.22646075  -5.50440821  -2.57143858
H    0.64949163  -5.84598432  -2.06062221
H    0.06090803  -4.93079708  -3.42776127
H   -0.80770947  -6.34634122  -2.88480391
C   -1.06421145  -4.62660947  -1.62315427
N   -1.68795492  -3.97304841  -0.91711349
C   -0.30231064  -4.98837121   2.39745851
H   -1.24375471  -4.72005098   1.96550075
H   -0.03802663  -4.27384806   3.14879713
H   -0.37670463  -5.95989844   2.83961173
C    0.77936732  -5.00465803   1.30141674
N    1.58472572  -5.01678431   0.48536383
C    3.40720150   0.46030265  -3.18241341
H    4.06023989  -0.24187435  -2.70766241
H    3.98548645   1.15212807  -3.75848909
H    2.72997602  -0.06121080  -3.82606584
C    2.60971340   1.22579204  -2.11020134
N    2.01594725   1.79573368  -1.31189073
Na  -0.13563907   2.87340063  -1.44092772
