91
Energy:   -777.33788492
C    0.78696540  -2.53739982   4.45938057
H    1.06105334  -3.08038355   3.57907117
H   -0.02760271  -3.03297236   4.94495833
H    1.62369778  -2.49077659   5.12466569
C    0.36058289  -1.10975521   4.06998513
N    0.04312173  -0.04680890   3.78006253
C   -3.36991889  -0.75785511   3.58861067
H   -2.71033955  -1.48859637   4.00798221
H   -4.07734610  -0.44890795   4.32955431
H   -2.80290715   0.08870961   3.26192282
C   -4.11712808  -1.36920837   2.38880834
N   -4.67345929  -1.82438865   1.49550097
C    3.33763173   0.95488484   3.94204012
H    2.44313866   1.36953445   4.35779009
H    4.17977071   1.26923194   4.52245975
H    3.27479396  -0.11319925   3.95415932
C    3.50342221   1.44291808   2.49085540
N    3.62686075   1.80628100   1.41038242
C   -4.53179020  -3.23857615  -1.73346665
H   -3.87069053  -4.07745506  -1.79772838
H   -5.26362119  -3.30077398  -2.51157584
H   -5.02149673  -3.24244591  -0.78211412
C   -3.72517722  -1.93612736  -1.89031895
N   -3.12461719  -0.96639503  -2.00710262
C   -5.45380121   1.07396107  -0.45326971
H   -5.23533081   0.96909759  -1.49546667
H   -6.15817021   1.86738829  -0.31457345
H   -5.86835317   0.16005265  -0.08203237
C   -4.15782323   1.39828954   0.31279303
N   -3.19290872   1.63976683   0.88316156
C    3.38064745   0.09878977  -4.27032832
H    3.48397105  -0.91130299  -3.93278274
H    4.20693355   0.35004122  -4.90201107
H    2.46805884   0.19964534  -4.81979105
C    3.35614976   1.04579906  -3.05617295
N    3.33791011   1.75089052  -2.15217909
C   -1.77999051   2.10564188  -2.35720177
H   -1.83743497   1.41828182  -1.53919415
H   -2.72615060   2.14735252  -2.85513791
H   -1.52758770   3.07804255  -1.98892355
C   -0.69881966   1.63536349  -3.34791253
N    0.10616119   1.28521985  -4.08554172
C    5.12314103   6.91009524   0.77023086
H    6.02508922   6.60857963   1.26061640
H    4.48220008   7.40081278   1.47257699
H    5.35880273   7.58260440  -0.02795088
C    4.40830774   5.66987321   0.20237288
N    3.87608186   4.74647154  -0.22042320
C   -0.57485452  -2.17217395  -3.96533434
H   -1.20412690  -2.98339734  -3.66394912
H   -0.18467049  -2.36737862  -4.94234543
H   -1.14441153  -1.26653203  -3.98312793
C    0.58899241  -2.02711698  -2.96732692
N    1.45552934  -1.91911548  -2.22426503
C    1.63121871   4.58356191  -4.60926766
H    1.34107624   3.71577661  -5.16394432
H    2.67505316   4.76778102  -4.75545952
H    1.06899007   5.42829355  -4.94871795
C    1.35565416   4.35160373  -3.11198359
N    1.15048382   4.17890032  -1.99718755
C   -1.10955056   3.12297599   3.05785002
H   -1.93994871   3.74170224   2.78856035
H   -0.87614774   3.26941467   4.09176391
H   -1.36073020   2.09637186   2.89084147
C    0.11118952   3.49925365   2.19772865
N    1.02008601   3.77940948   1.55732920
C   -3.58313855  -5.22943602   1.44823649
H   -4.48817918  -4.65893385   1.43010067
H   -3.73226173  -6.11652890   2.02765654
H   -3.31057941  -5.49776152   0.44893072
C   -2.45821010  -4.38759243   2.07866122
N   -1.62064973  -3.76080161   2.54804109
C   -0.73126337  -1.04477170   0.51545300
H   -0.98298873  -1.60042689  -0.36362711
H   -1.62711384  -0.69990126   0.98812138
H   -0.19027649  -1.67307754   1.19181391
C    0.14177284   0.16289363   0.12692730
N    0.79178798   1.06205536  -0.16234775
C    1.04908285  -4.56238973   0.18652706
H    1.81631825  -4.02868632  -0.33444387
H    1.33044869  -5.59047135   0.28023153
H    0.91780266  -4.13837199   1.16011505
C   -0.27117608  -4.46112303  -0.59976896
N   -1.25416886  -4.38572538  -1.18520208
C    4.33186934  -1.25302356  -0.34371590
H    5.27679185  -1.71443347  -0.14592175
H    4.45876277  -0.19234686  -0.40505168
H    3.94285623  -1.61988057  -1.27052970
C    3.34914194  -1.58752051   0.79380712
N    2.61745672  -1.83656870   1.64074472
Na   2.32005301   2.91520144  -0.29266508
