
                                 *****************
                                 * O   R   C   A *
                                 *****************

           --- An Ab Initio, DFT and Semiempirical electronic structure package ---

                  #######################################################
                  #                        -***-                        #
                  #  Department of molecular theory and spectroscopy    #
                  #              Directorship: Frank Neese              #
                  # Max Planck Institute for Chemical Energy Conversion #
                  #                  D-45470 Muelheim/Ruhr              #
                  #                       Germany                       #
                  #                                                     #
                  #                  All rights reserved                #
                  #                        -***-                        #
                  #######################################################


                         Program Version 3.0.3 - RELEASE   -


 With contributions from (in alphabetic order):
   Ute Becker             : Parallelization
   Dmytro Bykov           : SCF Hessian
   Dmitry Ganyushin       : Spin-Orbit,Spin-Spin,Magnetic field MRCI
   Andreas Hansen         : Spin unrestricted coupled pair/coupled cluster methods
   Dimitrios Liakos       : Extrapolation schemes; parallel MDCI
   Robert Izsak           : Overlap fitted RIJCOSX, COSX-SCS-MP3
   Christian Kollmar      : KDIIS, OOCD, Brueckner-CCSD(T), CCSD density
   Simone Kossmann        : Meta GGA functionals, TD-DFT gradient, OOMP2, MP2 Hessian
   Taras Petrenko         : DFT Hessian,TD-DFT gradient, ASA and ECA modules, normal mode analysis, Resonance Raman, ABS, FL, XAS/XES, NRVS
   Christoph Reimann      : Effective Core Potentials
   Michael Roemelt        : Restricted open shell CIS
   Christoph Riplinger    : Improved optimizer, TS searches, QM/MM, DLPNO-CCSD
   Barbara Sandhoefer     : DKH picture change effects
   Igor Schapiro          : Molecular dynamics
   Kantharuban Sivalingam : CASSCF convergence, NEVPT2
   Boris Wezisla          : Elementary symmetry handling
   Frank Wennmohs         : Technical directorship


 We gratefully acknowledge several colleagues who have allowed us to
 interface, adapt or use parts of their codes:
   Stefan Grimme, W. Hujo, H. Kruse, T. Risthaus : VdW corrections, initial TS optimization,
                                                   DFT functionals, gCP
   Ed Valeev                                     : LibInt (2-el integral package), F12 methods
   Garnet Chan, S. Sharma, R. Olivares           : DMRG
   Ulf Ekstrom                                   : XCFun DFT Library
   Mihaly Kallay                                 : mrcc  (arbitrary order and MRCC methods)
   Andreas Klamt, Michael Diedenhofen            : otool_cosmo (COSMO solvation model)
   Frank Weinhold                                : gennbo (NPA and NBO analysis)
   Christopher J. Cramer and Donald G. Truhlar   : smd solvation model


 Your calculation uses the libint2 library for the computation of 2-el integrals
 For citations please refer to: http://libint.valeyev.net

 This ORCA versions uses:
   CBLAS   interface :  Fast vector & matrix operations
   LAPACKE interface :  Fast linear algebra routines
   SCALAPACK package :  Parallel linear algebra routines


Your calculation utilizes the basis: Ahlrichs-VDZ
Cite in your paper:
H - Kr: A. Schaefer, H. Horn and R. Ahlrichs, J. Chem. Phys. 97, 2571 (1992).

Your calculation utilizes the basis: Ahlrichs SVPalls1+f
Cite in your paper:
Rb - Xe: A. Schaefer, C. Huber and R. Ahlrichs, J. Chem. Phys. 100, 5829 (1994).

Your calculation utilizes the atom-pairwise dispersion correction
with the Becke-Johnson damping scheme (D3BJ)
Cite in your paper:
S.Grimme, S.Ehrlich, L.Goerigk, J Comput Chem, (2011), 32, 1456–1465 
S.Grimme, J.Antony, S.Ehrlich and H.Krieg, J.Chem.Phys., 132, (2010), 154104 
   

================================================================================
                                        WARNINGS
                       Please study these warnings very carefully!
================================================================================

WARNING: The RI method has been chosen with no auxiliary basis (AUX or GTOAUX in BASIS block)
        Standard SV/J expansion basis used (GTOAUX=VDZ_J)

Now building the actual basis set

WARNING: Geometry Optimization
  ===> : Switching off AutoStart
         For restart on a previous wavefunction, please use MOREAD


INFO   : the flag for use of LIBINT has been found!

================================================================================
                                       INPUT FILE
================================================================================
NAME = 2_BP86_2_h2o.inp
|  1> ! BP86 Def2-SVP TightSCF Opt D3BJ
|  2> 
|  3> %pal nprocs 12 end
|  4> 
|  5> %scf
|  6>         maxiter 800
|  7> end
|  8> 
|  9> * xyz  0  1
| 10> O  1.16627538	-0.47604216	1.02649171
| 11> H  0.47373765	-0.19914488	0.42653235
| 12> H  1.97063501	-0.40863840	0.51200733
| 13> O  -0.89105588	0.26466071	-0.66713829
| 14> H  -1.16483300	1.01669070	-1.19223716
| 15> H  -1.70504590	-0.08209872	-0.30188496
| 16> **                         ****END OF INPUT****
================================================================================

                       *****************************
                       * Geometry Optimization Run *
                       *****************************

Geometry optimization settings:
Update method            Update   .... BFGS
Choice of coordinates    CoordSys .... Redundant Internals
Initial Hessian          InHess   .... Almoef's Model

Convergence Tolerances:
Energy Change            TolE     ....  5.0000e-06 Eh
Max. Gradient            TolMAXG  ....  3.0000e-04 Eh/bohr
RMS Gradient             TolRMSG  ....  1.0000e-04 Eh/bohr
Max. Displacement        TolMAXD  ....  4.0000e-03 bohr
RMS Displacement         TolRMSD  ....  2.0000e-03 bohr

------------------------------------------------------------------------------
                        ORCA OPTIMIZATION COORDINATE SETUP
------------------------------------------------------------------------------

The optimization will be done in new redundant internal coordinates
Making redundant internal coordinates   ...  (new redundants) done
Evaluating the initial hessian          ...  (Almloef) done
Evaluating the coordinates              ...  done
Calculating the B-matrix                .... done
Calculating the G-matrix                .... done
Diagonalizing the G-matrix              .... done
The first mode is                       ....    7
The number of degrees of freedom        ....   12

    -----------------------------------------------------------------
                    Redundant Internal Coordinates


    -----------------------------------------------------------------
         Definition                    Initial Value    Approx d2E/dq
    -----------------------------------------------------------------
      1. B(H   1,O   0)                  0.9572         0.525332   
      2. B(H   2,O   0)                  0.9572         0.525332   
      3. B(O   3,H   1)                  1.8094         0.022952   
      4. B(H   4,O   3)                  0.9572         0.525332   
      5. B(H   5,H   1)                  2.3003         0.000808   
      6. B(H   5,O   3)                  0.9572         0.525332   
      7. A(H   1,O   0,H   2)          104.5200         0.322920   
      8. A(O   0,H   1,H   5)          153.9592         0.132688   
      9. A(O   3,H   1,H   5)           23.2366         0.110510   
     10. A(H   1,O   3,H   4)          138.4789         0.204169   
     11. A(H   1,O   3,H   5)          108.5376         0.204169   
     12. A(H   4,O   3,H   5)          104.5200         0.322920   
     13. A(H   1,H   5,O   3)           48.2258         0.132688   
     14. D(H   5,H   1,O   0,H   2)    159.0455         0.355142   
     15. D(H   5,O   3,O   0,H   2)    160.1445         0.001501   
     16. D(H   4,O   3,H   1,H   5)    141.0458         0.001812   
     17. D(H   4,O   3,O   0,H   2)    -59.2136         0.001501   
     18. D(H   1,H   5,O   3,H   4)   -154.4999         0.355142   
     19. D(O   3,H   5,H   1,O   0)   -178.3876         0.001506   
    -----------------------------------------------------------------

Number of atoms                         .... 6
Number of degrees of freedom            .... 19

         *************************************************************
         *                GEOMETRY OPTIMIZATION CYCLE   1            *
         *************************************************************
---------------------------------
CARTESIAN COORDINATES (ANGSTROEM)
---------------------------------
  O      1.166275   -0.476042    1.026492
  H      0.473738   -0.199145    0.426532
  H      1.970635   -0.408638    0.512007
  O     -0.891056    0.264661   -0.667138
  H     -1.164833    1.016691   -1.192237
  H     -1.705046   -0.082099   -0.301885

----------------------------
CARTESIAN COORDINATES (A.U.)
----------------------------
  NO LB      ZA    FRAG    MASS        X           Y           Z
   0 O     8.0000    0    15.999          2.203941064934939         -0.899589310600322          1.939788210640514
   1 H     1.0000    0     1.008          0.895234417827439         -0.376329284172612          0.806029328757846
   2 H     1.0000    0     1.008          3.723960478817167         -0.772214663803766          0.967553632260242
   3 O     8.0000    0    15.999         -1.683851583220199          0.500136260309154         -1.260708661552535
   4 H     1.0000    0     1.008         -2.201215361753893          1.921266985904691         -2.253001719084053
   5 H     1.0000    0     1.008         -3.222069796765281         -0.155144096745483         -0.570479898349772

--------------------------------
INTERNAL COORDINATES (ANGSTROEM)
--------------------------------
 O      0   0   0   0.000000     0.000     0.000
 H      1   0   0   0.957200     0.000     0.000
 H      1   2   0   0.957200   104.520     0.000
 O      2   1   3   1.809390   177.117   146.297
 H      4   2   1   0.957200   138.479   155.261
 H      4   2   1   0.957200   108.538    14.215

---------------------------
INTERNAL COORDINATES (A.U.)
---------------------------
 O      0   0   0   0.000000     0.000     0.000
 H      1   0   0   1.808846     0.000     0.000
 H      1   2   0   1.808846   104.520     0.000
 O      2   1   3   3.419252   177.117   146.297
 H      4   2   1   1.808846   138.479   155.261
 H      4   2   1   1.808846   108.538    14.215

---------------------
BASIS SET INFORMATION
---------------------
There are 2 groups of distinct atoms

 Group   1 Type O   : 7s4p1d contracted to 3s2p1d pattern {511/31/1}
 Group   2 Type H   : 4s1p contracted to 2s1p pattern {31/1}

Atom   0O    basis set group =>   1
Atom   1H    basis set group =>   2
Atom   2H    basis set group =>   2
Atom   3O    basis set group =>   1
Atom   4H    basis set group =>   2
Atom   5H    basis set group =>   2
-------------------------------
AUXILIARY BASIS SET INFORMATION
-------------------------------
There are 2 groups of distinct atoms

 Group   1 Type O   : 12s5p4d2f1g contracted to 6s4p3d1f1g pattern {711111/2111/211/2/1}
 Group   2 Type H   : 5s2p1d contracted to 3s1p1d pattern {311/2/1}

Atom   0O    basis set group =>   1
Atom   1H    basis set group =>   2
Atom   2H    basis set group =>   2
Atom   3O    basis set group =>   1
Atom   4H    basis set group =>   2
Atom   5H    basis set group =>   2
smp-n102.crc.pitt.edu.359869hfi_wait_for_device: The /dev/hfi1_0 device failed to appear after 15.0 seconds: Connection timed out
smp-n102.crc.pitt.edu.359868hfi_wait_for_device: The /dev/hfi1_0 device failed to appear after 15.0 seconds: Connection timed out
smp-n102.crc.pitt.edu.359876hfi_wait_for_device: The /dev/hfi1_0 device failed to appear after 15.0 seconds: Connection timed out
smp-n102.crc.pitt.edu.359873hfi_wait_for_device: The /dev/hfi1_0 device failed to appear after 15.0 seconds: Connection timed out
smp-n102.crc.pitt.edu.359882hfi_wait_for_device: The /dev/hfi1_0 device failed to appear after 15.0 seconds: Connection timed out
smp-n102.crc.pitt.edu.359880hfi_wait_for_device: The /dev/hfi1_0 device failed to appear after 15.0 seconds: Connection timed out
smp-n102.crc.pitt.edu.359866hfi_wait_for_device: The /dev/hfi1_0 device failed to appear after 15.0 seconds: Connection timed out
smp-n102.crc.pitt.edu.359874hfi_wait_for_device: The /dev/hfi1_0 device failed to appear after 15.0 seconds: Connection timed out
smp-n102.crc.pitt.edu.359884hfi_wait_for_device: The /dev/hfi1_0 device failed to appear after 15.0 seconds: Connection timed out
smp-n102.crc.pitt.edu.359871hfi_wait_for_device: The /dev/hfi1_0 device failed to appear after 15.0 seconds: Connection timed out
smp-n102.crc.pitt.edu.359886hfi_wait_for_device: The /dev/hfi1_0 device failed to appear after 15.0 seconds: Connection timed out
smp-n102.crc.pitt.edu.359878hfi_wait_for_device: The /dev/hfi1_0 device failed to appear after 15.0 seconds: Connection timed out


           ************************************************************
           *        Program running with 12 parallel MPI-processes    *
           *              working on a common directory               *
           ************************************************************
------------------------------------------------------------------------------
                           ORCA GTO INTEGRAL CALCULATION
                           -- RI-GTO INTEGRALS CHOSEN --
------------------------------------------------------------------------------

                         BASIS SET STATISTICS AND STARTUP INFO

Gaussian basis set:
 # of primitive gaussian shells          ...   44
 # of primitive gaussian functions       ...   76
 # of contracted shells                  ...   24
 # of contracted basis functions         ...   48
 Highest angular momentum                ...    2
 Maximum contraction depth               ...    5
Auxiliary gaussian basis set:
 # of primitive gaussian shells          ...   80
 # of primitive gaussian functions       ...  204
 # of contracted shells                  ...   50
 # of contracted aux-basis functions     ...  142
 Highest angular momentum                ...    4
 Maximum contraction depth               ...    7
Ratio of auxiliary to basis functions    ...  2.96
Integral package used                  ... LIBINT
 One Electron integrals                  ... done
 Ordering auxiliary basis shells         ... done
 Integral threshhold             Thresh  ...  2.500e-11
 Primitive cut-off               TCut    ...  2.500e-12
 Pre-screening matrix                    ... done
 Shell pair data                         ... 
 Ordering of the shell pairs             ... done (   0.000 sec) 298 of 300 pairs
 Determination of significant pairs      ... done (   0.000 sec)
 Creation of shell pair data             ... done (   0.000 sec)
 Storage of shell pair data              ... done (   0.000 sec)
 Shell pair data done in (   0.000 sec)
 Computing two index integrals           ... done
 Cholesky decomposition of the V-matrix  ... done


Timings:
 Total evaluation time                   ...   0.108 sec (  0.002 min)
 One electron matrix time                ...   0.004 sec (  0.000 min) =  3.5%
 Schwartz matrix evaluation time         ...   0.074 sec (  0.001 min) = 68.9%
 Two index repulsion integral time       ...   0.014 sec (  0.000 min) = 13.4%
 Cholesky decomposition of V             ...   0.001 sec (  0.000 min) =  0.5%
 Three index repulsion integral time     ...   0.000 sec (  0.000 min) =  0.0%

           ************************************************************
           *              Shut down parallel processing               *
           ************************************************************
smp-n102.crc.pitt.edu.359917hfi_wait_for_device: The /dev/hfi1_0 device failed to appear after 15.0 seconds: Connection timed out
smp-n102.crc.pitt.edu.359918hfi_wait_for_device: The /dev/hfi1_0 device failed to appear after 15.0 seconds: Connection timed out
smp-n102.crc.pitt.edu.359920hfi_wait_for_device: The /dev/hfi1_0 device failed to appear after 15.0 seconds: Connection timed out
smp-n102.crc.pitt.edu.359916hfi_wait_for_device: The /dev/hfi1_0 device failed to appear after 15.0 seconds: Connection timed out
smp-n102.crc.pitt.edu.359921hfi_wait_for_device: The /dev/hfi1_0 device failed to appear after 15.0 seconds: Connection timed out
smp-n102.crc.pitt.edu.359925hfi_wait_for_device: The /dev/hfi1_0 device failed to appear after 15.0 seconds: Connection timed out
smp-n102.crc.pitt.edu.359927hfi_wait_for_device: The /dev/hfi1_0 device failed to appear after 15.0 seconds: Connection timed out
smp-n102.crc.pitt.edu.359931hfi_wait_for_device: The /dev/hfi1_0 device failed to appear after 15.0 seconds: Connection timed out
smp-n102.crc.pitt.edu.359933hfi_wait_for_device: The /dev/hfi1_0 device failed to appear after 15.0 seconds: Connection timed out
smp-n102.crc.pitt.edu.359923hfi_wait_for_device: The /dev/hfi1_0 device failed to appear after 15.0 seconds: Connection timed out
smp-n102.crc.pitt.edu.359935hfi_wait_for_device: The /dev/hfi1_0 device failed to appear after 15.0 seconds: Connection timed out
smp-n102.crc.pitt.edu.359937hfi_wait_for_device: The /dev/hfi1_0 device failed to appear after 15.0 seconds: Connection timed out


           ************************************************************
           *        Program running with 12 parallel MPI-processes    *
           *              working on a common directory               *
           ************************************************************
-------------------------------------------------------------------------------
                                 ORCA SCF
-------------------------------------------------------------------------------

------------
SCF SETTINGS
------------
Hamiltonian:
 Density Functional     Method          .... DFT(GTOs)
 Exchange Functional    Exchange        .... B88
   X-Alpha parameter    XAlpha          ....  0.666667
   Becke's b parameter  XBeta           ....  0.004200
 Correlation Functional Correlation     .... P86
 LDA part of GGA corr.  LDAOpt          .... PW91-LDA
 Gradients option       PostSCFGGA      .... off
 RI-approximation to the Coulomb term is turned on
   Number of auxiliary basis functions  .... 142


General Settings:
 Integral files         IntName         .... 2_BP86_2_h2o
 Hartree-Fock type      HFTyp           .... RHF
 Total Charge           Charge          ....    0
 Multiplicity           Mult            ....    1
 Number of Electrons    NEL             ....   20
 Basis Dimension        Dim             ....   48
 Nuclear Repulsion      ENuc            ....     37.5433641944 Eh

Convergence Acceleration:
 DIIS                   CNVDIIS         .... on
   Start iteration      DIISMaxIt       ....    12
   Startup error        DIISStart       ....  0.200000
   # of expansion vecs  DIISMaxEq       ....     5
   Bias factor          DIISBfac        ....   1.050
   Max. coefficient     DIISMaxC        ....  10.000
 Newton-Raphson         CNVNR           .... off
 SOSCF                  CNVSOSCF        .... on
   Start iteration      SOSCFMaxIt      ....   150
   Startup grad/error   SOSCFStart      ....  0.003300
 Level Shifting         CNVShift        .... on
   Level shift para.    LevelShift      ....    0.2500
   Turn off err/grad.   ShiftErr        ....    0.0010
 Zerner damping         CNVZerner       .... off
 Static damping         CNVDamp         .... on
   Fraction old density DampFac         ....    0.7000
   Max. Damping (<1)    DampMax         ....    0.9800
   Min. Damping (>=0)   DampMin         ....    0.0000
   Turn off err/grad.   DampErr         ....    0.1000
 Fernandez-Rico         CNVRico         .... off

SCF Procedure:
 Maximum # iterations   MaxIter         ....   800
 SCF integral mode      SCFMode         .... Direct
   Integral package                     .... LIBINT
 Reset frequeny         DirectResetFreq ....    20
 Integral Threshold     Thresh          ....  2.500e-11 Eh
 Primitive CutOff       TCut            ....  2.500e-12 Eh

Convergence Tolerance:
 Convergence Check Mode ConvCheckMode   .... Total+1el-Energy
 Energy Change          TolE            ....  1.000e-08 Eh
 1-El. energy change                    ....  1.000e-05 Eh
 Orbital Gradient       TolG            ....  1.000e-05
 Orbital Rotation angle TolX            ....  1.000e-05
 DIIS Error             TolErr          ....  5.000e-07


Diagonalization of the overlap matrix:
Smallest eigenvalue                        ... 2.825e-02
Time for diagonalization                   ...    0.001 sec
Threshold for overlap eigenvalues          ... 1.000e-08
Number of eigenvalues below threshold      ... 0
Time for construction of square roots      ...    0.000 sec
Total time needed                          ...    0.001 sec

-------------------
DFT GRID GENERATION
-------------------

General Integration Accuracy     IntAcc      ...  4.340
Radial Grid Type                 RadialGrid  ... Gauss-Chebyshev
Angular Grid (max. acc.)         AngularGrid ... Lebedev-110
Angular grid pruning method      GridPruning ... 3 (G Style)
Weight generation scheme         WeightScheme... Becke
Basis function cutoff            BFCut       ...    1.0000e-11
Integration weight cutoff        WCut        ...    1.0000e-14
Grids for H and He will be reduced by one unit

# of grid points (after initial pruning)     ...   6608 (   0.0 sec)
# of grid points (after weights+screening)   ...   6481 (   0.0 sec)
nearest neighbour list constructed           ...    0.0 sec
Grid point re-assignment to atoms done       ...    0.0 sec
Grid point division into batches done        ...    0.0 sec
Reduced shell lists constructed in    0.0 sec

Total number of grid points                  ...     6481
Total number of batches                      ...      104
Average number of points per batch           ...       62
Average number of grid points per atom       ...     1080
Average number of shells per batch           ...    16.00 (66.67%)
Average number of basis functions per batch  ...    29.40 (61.25%)
Average number of large shells per batch     ...    12.70 (79.38%)
Average number of large basis fcns per batch ...    23.10 (78.57%)
Maximum spatial batch extension              ...  14.83, 15.12, 16.03 au
Average spatial batch extension              ...   0.54,  0.66,  0.60 au

Time for grid setup =    0.013 sec

------------------------------
INITIAL GUESS: MODEL POTENTIAL
------------------------------
Loading Hartree-Fock densities                     ... done
Calculating cut-offs                               ... done
Setting up the integral package                    ... done
Initializing the effective Hamiltonian             ... done
Starting the Coulomb interaction                   ... done (   0.0 sec)
Reading the grid                                   ... done
Mapping shells                                     ... done
Starting the XC term evaluation                    ... done (   0.0 sec)
  promolecular density results
     # of electrons  =     19.992896089
     EX              =    -17.577814878
     EC              =     -0.712349618
     EX+EC           =    -18.290164496
Transforming the Hamiltonian                       ... done (   0.0 sec)
Diagonalizing the Hamiltonian                      ... done (   0.0 sec)
Back transforming the eigenvectors                 ... done (   0.0 sec)
Now organizing SCF variables                       ... done
                      ------------------
                      INITIAL GUESS DONE (   0.1 sec)
                      ------------------
--------------
SCF ITERATIONS
--------------
ITER       Energy         Delta-E        Max-DP      RMS-DP      [F,P]     Damp
               ***  Starting incremental Fock matrix formation  ***
  0   -152.5685955799   0.000000000000 0.09350123  0.00660929  0.2943509 0.7000
  1   -152.6512648391  -0.082669259214 0.04798404  0.00354005  0.1101556 0.7000
                               ***Turning on DIIS***
  2   -152.6756745834  -0.024409744254 0.04461048  0.00347746  0.0171407 0.0000
  3   -152.7230152321  -0.047340648748 0.02649228  0.00202676  0.0640312 0.0000
  4   -152.7305458359  -0.007530603811 0.00566420  0.00046778  0.0108157 0.0000
                      *** Initiating the SOSCF procedure ***
                           *** Shutting down DIIS ***
                      *** Re-Reading the Fockian *** 
                      *** Removing any level shift *** 
ITER      Energy       Delta-E        Grad      Rot      Max-DP    RMS-DP
  5   -152.73078864  -0.0002428008  0.000922  0.000922  0.002161  0.000161
               *** Restarting incremental Fock matrix formation ***
  6   -152.73080271  -0.0000140762  0.000427  0.001236  0.002003  0.000135
  7   -152.73080107   0.0000016479  0.000829  0.000386  0.000938  0.000061
  8   -152.73080590  -0.0000048308  0.000049  0.000160  0.000197  0.000015
  9   -152.73080592  -0.0000000278  0.000038  0.000033  0.000062  0.000004
 10   -152.73080593  -0.0000000067  0.000023  0.000033  0.000045  0.000003
                 **** Energy Check signals convergence ****
              ***Rediagonalizing the Fockian in SOSCF/NRSCF***

               *****************************************************
               *                     SUCCESS                       *
               *           SCF CONVERGED AFTER  11 CYCLES          *
               *****************************************************

Setting up the final grid:

General Integration Accuracy     IntAcc      ...  4.670
Radial Grid Type                 RadialGrid  ... Gauss-Chebyshev
Angular Grid (max. acc.)         AngularGrid ... Lebedev-302
Angular grid pruning method      GridPruning ... 3 (G Style)
Weight generation scheme         WeightScheme... Becke
Basis function cutoff            BFCut       ...    1.0000e-11
Integration weight cutoff        WCut        ...    1.0000e-14
Grids for H and He will be reduced by one unit

# of grid points (after initial pruning)     ...  26000 (   0.0 sec)
# of grid points (after weights+screening)   ...  25409 (   0.0 sec)
nearest neighbour list constructed           ...    0.0 sec
Grid point re-assignment to atoms done       ...    0.0 sec
Grid point division into batches done        ...    0.1 sec
Reduced shell lists constructed in    0.1 sec

Total number of grid points                  ...    25409
Total number of batches                      ...      399
Average number of points per batch           ...       63
Average number of grid points per atom       ...     4235
Average number of shells per batch           ...    13.60 (56.67%)
Average number of basis functions per batch  ...    25.26 (52.62%)
Average number of large shells per batch     ...    10.57 (77.73%)
Average number of large basis fcns per batch ...    19.20 (76.02%)
Maximum spatial batch extension              ...  16.88, 13.45, 12.44 au
Average spatial batch extension              ...   0.43,  0.43,  0.41 au

Final grid set up in    0.1 sec
Final integration                            ... done (   0.0 sec)
Change in XC energy                          ...     0.000274851
Integrated number of electrons               ...    20.000002793
Previous integrated no of electrons          ...    19.999400685

----------------
TOTAL SCF ENERGY
----------------

Total Energy       :         -152.73053108 Eh           -4156.00904 eV

Components:
Nuclear Repulsion  :           37.54336419 Eh            1021.60688 eV
Electronic Energy  :         -190.27389528 Eh           -5177.61592 eV

One Electron Energy:         -284.50785664 Eh           -7741.85237 eV
Two Electron Energy:           94.23396137 Eh            2564.23645 eV

Virial components:
Potential Energy   :         -304.39128705 Eh           -8282.90802 eV
Kinetic Energy     :          151.66075597 Eh            4126.89898 eV
Virial Ratio       :            2.00705374


DFT components:
N(Alpha)           :       10.000001396407 electrons
N(Beta)            :       10.000001396407 electrons
N(Total)           :       20.000002792813 electrons
E(X)               :      -17.989330797093 Eh       
E(C)               :       -0.733381102754 Eh       
E(XC)              :      -18.722711899847 Eh       

---------------
SCF CONVERGENCE
---------------

  Last Energy change         ...   -2.9109e-09  Tolerance :   1.0000e-08
  Last MAX-Density change    ...    1.1230e-05  Tolerance :   1.0000e-07
  Last RMS-Density change    ...    1.0902e-06  Tolerance :   5.0000e-09
  Last Orbital Gradient      ...    3.2681e-06  Tolerance :   1.0000e-05
  Last Orbital Rotation      ...    1.1097e-05  Tolerance :   1.0000e-05

             **** THE GBW FILE WAS UPDATED (2_BP86_2_h2o.gbw) ****
             **** DENSITY FILE WAS UPDATED (2_BP86_2_h2o.scfp.tmp) ****
             **** ENERGY FILE WAS UPDATED (2_BP86_2_h2o.en.tmp) ****
----------------
ORBITAL ENERGIES
----------------

  NO   OCC          E(Eh)            E(eV) 
   0   2.0000     -18.797201      -511.4978 
   1   2.0000     -18.713006      -509.2068 
   2   2.0000      -0.934093       -25.4180 
   3   2.0000      -0.853905       -23.2359 
   4   2.0000      -0.500811       -13.6277 
   5   2.0000      -0.432310       -11.7638 
   6   2.0000      -0.354284        -9.6406 
   7   2.0000      -0.275448        -7.4953 
   8   2.0000      -0.263408        -7.1677 
   9   2.0000      -0.195107        -5.3091 
  10   0.0000       0.010970         0.2985 
  11   0.0000       0.086837         2.3629 
  12   0.0000       0.090865         2.4726 
  13   0.0000       0.227040         6.1781 
  14   0.0000       0.491120        13.3641 
  15   0.0000       0.540921        14.7192 
  16   0.0000       0.571287        15.5455 
  17   0.0000       0.605770        16.4838 
  18   0.0000       0.813962        22.1490 
  19   0.0000       0.871207        23.7068 
  20   0.0000       0.905962        24.6525 
  21   0.0000       0.922735        25.1089 
  22   0.0000       0.953744        25.9527 
  23   0.0000       1.017261        27.6811 
  24   0.0000       1.030219        28.0337 
  25   0.0000       1.243415        33.8350 
  26   0.0000       1.276000        34.7217 
  27   0.0000       1.310413        35.6582 
  28   0.0000       1.358527        36.9674 
  29   0.0000       1.441493        39.2250 
  30   0.0000       1.511288        41.1242 
  31   0.0000       1.547422        42.1075 
  32   0.0000       1.694581        46.1119 
  33   0.0000       1.802607        49.0514 
  34   0.0000       2.113890        57.5219 
  35   0.0000       2.159059        58.7510 
  36   0.0000       2.199170        59.8424 
  37   0.0000       2.427866        66.0656 
  38   0.0000       2.844022        77.3898 
  39   0.0000       2.886060        78.5337 
  40   0.0000       2.913126        79.2702 
  41   0.0000       2.963694        80.6462 
  42   0.0000       3.068012        83.4848 
  43   0.0000       3.145170        85.5844 
  44   0.0000       3.387642        92.1824 
  45   0.0000       3.466953        94.3406 
  46   0.0000       3.712325       101.0175 
  47   0.0000       3.786528       103.0367 

                    ********************************
                    * MULLIKEN POPULATION ANALYSIS *
                    ********************************

-----------------------
MULLIKEN ATOMIC CHARGES
-----------------------
   0 O :   -0.319401
   1 H :    0.111355
   2 H :    0.133079
   3 O :   -0.251082
   4 H :    0.159580
   5 H :    0.166470
Sum of atomic charges:   -0.0000000

--------------------------------
MULLIKEN REDUCED ORBITAL CHARGES
--------------------------------
  0 O s       :     3.657679  s :     3.657679
      pz      :     1.573241  p :     4.651540
      px      :     1.170059
      py      :     1.908241
      dz2     :     0.001292  d :     0.010181
      dxz     :     0.005949
      dyz     :     0.001615
      dx2y2   :     0.000775
      dxy     :     0.000550
  1 H s       :     0.813587  s :     0.813587
      pz      :     0.024651  p :     0.075058
      px      :     0.029028
      py      :     0.021379
  2 H s       :     0.795720  s :     0.795720
      pz      :     0.021429  p :     0.071202
      px      :     0.028933
      py      :     0.020840
  3 O s       :     3.666157  s :     3.666157
      pz      :     1.661335  p :     4.575209
      px      :     1.428863
      py      :     1.485011
      dz2     :     0.000717  d :     0.009717
      dxz     :     0.002290
      dyz     :     0.001387
      dx2y2   :     0.002866
      dxy     :     0.002457
  4 H s       :     0.769310  s :     0.769310
      pz      :     0.024514  p :     0.071111
      px      :     0.017439
      py      :     0.029157
  5 H s       :     0.762557  s :     0.762557
      pz      :     0.022303  p :     0.070973
      px      :     0.027558
      py      :     0.021112


                     *******************************
                     * LOEWDIN POPULATION ANALYSIS *
                     *******************************

----------------------
LOEWDIN ATOMIC CHARGES
----------------------
   0 O :   -0.162134
   1 H :    0.019976
   2 H :    0.058655
   3 O :   -0.079424
   4 H :    0.080383
   5 H :    0.082544

-------------------------------
LOEWDIN REDUCED ORBITAL CHARGES
-------------------------------
  0 O s       :     3.416802  s :     3.416802
      pz      :     1.621171  p :     4.726228
      px      :     1.253978
      py      :     1.851080
      dz2     :     0.000616  d :     0.019103
      dxz     :     0.012884
      dyz     :     0.001405
      dx2y2   :     0.002959
      dxy     :     0.001240
  1 H s       :     0.771565  s :     0.771565
      pz      :     0.074790  p :     0.208460
      px      :     0.071909
      py      :     0.061760
  2 H s       :     0.760309  s :     0.760309
      pz      :     0.059870  p :     0.181036
      px      :     0.065717
      py      :     0.055449
  3 O s       :     3.404256  s :     3.404256
      pz      :     1.643947  p :     4.656061
      px      :     1.500464
      py      :     1.511650
      dz2     :     0.001009  d :     0.019108
      dxz     :     0.004094
      dyz     :     0.004174
      dx2y2   :     0.005311
      dxy     :     0.004519
  4 H s       :     0.740201  s :     0.740201
      pz      :     0.062599  p :     0.179416
      px      :     0.042603
      py      :     0.074214
  5 H s       :     0.737731  s :     0.737731
      pz      :     0.052988  p :     0.179724
      px      :     0.081475
      py      :     0.045261


                      *****************************
                      * MAYER POPULATION ANALYSIS *
                      *****************************

  NA   - Mulliken gross atomic population
  ZA   - Total nuclear charge
  QA   - Mulliken gross atomic charge
  VA   - Mayer's total valence
  BVA  - Mayer's bonded valence
  FA   - Mayer's free valence

  ATOM       NA         ZA         QA         VA         BVA        FA
  0 O      8.3194     8.0000    -0.3194     2.0002     2.0002    -0.0000
  1 H      0.8886     1.0000     0.1114     1.1149     1.1149    -0.0000
  2 H      0.8669     1.0000     0.1331     1.0183     1.0183    -0.0000
  3 O      8.2511     8.0000    -0.2511     2.1335     2.1335     0.0000
  4 H      0.8404     1.0000     0.1596     1.0151     1.0151     0.0000
  5 H      0.8335     1.0000     0.1665     1.0079     1.0079     0.0000

  Mayer bond orders larger than 0.1
B(  0-O ,  1-H ) :   0.9716 B(  0-O ,  2-H ) :   1.0141 B(  1-H ,  3-O ) :   0.1351 
B(  3-O ,  4-H ) :   0.9967 B(  3-O ,  5-H ) :   0.9956 

-------
TIMINGS
-------

Total SCF time: 0 days 0 hours 0 min 1 sec 

Total time                  ....       1.392 sec
Sum of individual times     ....       1.414 sec  (101.6%)

Fock matrix formation       ....       0.919 sec  ( 66.0%)
  Coulomb formation         ....       0.866 sec  ( 94.2% of F)
  Split-RI-J                ....       0.855 sec  ( 93.1% of F)
  XC integration            ....       0.050 sec  (  5.5% of F)
    Basis function eval.    ....       0.012 sec  ( 24.0% of XC)
    Density eval.           ....       0.006 sec  ( 11.3% of XC)
    XC-Functional eval.     ....       0.007 sec  ( 14.4% of XC)
    XC-Potential eval.      ....       0.007 sec  ( 13.7% of XC)
Diagonalization             ....       0.003 sec  (  0.2%)
Density matrix formation    ....       0.248 sec  ( 17.8%)
Population analysis         ....       0.001 sec  (  0.1%)
Initial guess               ....       0.096 sec  (  6.9%)
Orbital Transformation      ....       0.000 sec  (  0.0%)
Orbital Orthonormalization  ....       0.000 sec  (  0.0%)
DIIS solution               ....       0.001 sec  (  0.1%)
SOSCF solution              ....       0.029 sec  (  2.1%)
Grid generation             ....       0.118 sec  (  8.4%)
           ************************************************************
           *              Shut down parallel processing               *
           ************************************************************

Entering the calculation of the dispersion correction...

Checking the input atom types...

Done


-------------------------------------------------------------------------------
                          DFT DISPERSION CORRECTION                            
                                                                               
                                DFTD3 V2.1  Rev 6                               
                          USING Becke-Johnson damping                          
-------------------------------------------------------------------------------
The BP86 functional is recognized
Active option DFTDOPT                   ...         4   

molecular C6(AA) [au] = 178.075462 


            DFT-D V3
 parameters
 s6 scaling factor         :     1.0000 
 a1 scaling factor         :     0.3946 
 s8 scaling factor         :     3.2822 
 a2 scaling factor         :     4.8516 
 ad hoc parameters k1-k3   :    16.0000     1.3333    -4.0000 

 Edisp/kcal,au: -1.185173727599  -0.001888694355 
 E6   /kcal   :  -0.529123123 
 E8   /kcal   :  -0.656050605 
 % E8         :  55.354804896 

-------------------------   ----------------
Dispersion correction           -0.001888694
-------------------------   ----------------


-------------------------   --------------------
FINAL SINGLE POINT ENERGY      -152.732419776934
-------------------------   --------------------

smp-n102.crc.pitt.edu.359967hfi_wait_for_device: The /dev/hfi1_0 device failed to appear after 15.0 seconds: Connection timed out
smp-n102.crc.pitt.edu.359968hfi_wait_for_device: The /dev/hfi1_0 device failed to appear after 15.0 seconds: Connection timed out
smp-n102.crc.pitt.edu.359970hfi_wait_for_device: The /dev/hfi1_0 device failed to appear after 15.0 seconds: Connection timed out
smp-n102.crc.pitt.edu.359971hfi_wait_for_device: The /dev/hfi1_0 device failed to appear after 15.0 seconds: Connection timed out
smp-n102.crc.pitt.edu.359969hfi_wait_for_device: The /dev/hfi1_0 device failed to appear after 15.0 seconds: Connection timed out
smp-n102.crc.pitt.edu.359974hfi_wait_for_device: The /dev/hfi1_0 device failed to appear after 15.0 seconds: Connection timed out
smp-n102.crc.pitt.edu.359975hfi_wait_for_device: The /dev/hfi1_0 device failed to appear after 15.0 seconds: Connection timed out
smp-n102.crc.pitt.edu.359978hfi_wait_for_device: The /dev/hfi1_0 device failed to appear after 15.0 seconds: Connection timed out
smp-n102.crc.pitt.edu.359979hfi_wait_for_device: The /dev/hfi1_0 device failed to appear after 15.0 seconds: Connection timed out
smp-n102.crc.pitt.edu.359972hfi_wait_for_device: The /dev/hfi1_0 device failed to appear after 15.0 seconds: Connection timed out
smp-n102.crc.pitt.edu.359982hfi_wait_for_device: The /dev/hfi1_0 device failed to appear after 15.0 seconds: Connection timed out
smp-n102.crc.pitt.edu.359973hfi_wait_for_device: The /dev/hfi1_0 device failed to appear after 15.0 seconds: Connection timed out


           ************************************************************
           *        Program running with 12 parallel MPI-processes    *
           *              working on a common directory               *
           ************************************************************
------------------------------------------------------------------------------
                         ORCA SCF GRADIENT CALCULATION
------------------------------------------------------------------------------

Gradient of the Kohn-Sham DFT energy:
Kohn-Sham wavefunction type      ... RKS
Hartree-Fock exchange scaling    ...    0.000
Number of operators              ...    1
Number of atoms                  ...    6
Basis set dimensions             ...   48
Integral neglect threshold       ... 2.5e-11
Integral primitive cutoff        ... 2.5e-12

Nuclear repulsion gradient       ... done
One Electron Gradient            ... done
Pre-screening matrix             ... done
RI-J gradient                    ... done
Exchange-correlation gradient    ... done
Dispersion correction            ... 
Entering the calculation of the dispersion correction...

Checking the input atom types...

Done
done

------------------
CARTESIAN GRADIENT
------------------

   1   O   :   -0.005405592    0.010074497   -0.028195689
   2   H   :    0.014749175   -0.009025751    0.016285394
   3   H   :   -0.011781229   -0.001467774    0.010196633
   4   O   :   -0.016352068    0.008175242    0.000295342
   5   H   :    0.003867564   -0.014037696    0.008115126
   6   H   :    0.014922151    0.006281482   -0.006696806

Norm of the cartesian gradient     ...    0.051517077
RMS gradient                       ...    0.012142692
MAX gradient                       ...    0.028195689

-------
TIMINGS
-------

Total SCF gradient time            ...        0.224 sec

One electron gradient       ....       0.001 sec  (  0.3%)
Prescreening matrices       ....       0.004 sec  (  1.7%)
RI-J Coulomb gradient       ....       0.060 sec  ( 26.8%)
XC gradient                 ....       0.032 sec  ( 14.3%)
           ************************************************************
           *              Shut down parallel processing               *
           ************************************************************
------------------------------------------------------------------------------
                         ORCA GEOMETRY RELAXATION STEP
------------------------------------------------------------------------------

Reading the OPT-File                    .... done
Getting information on internals        .... done
Copying old internal coords+grads       .... done
Making the new internal coordinates     .... (new redundants).... done
Validating the new internal coordinates .... (new redundants).... done
Calculating the B-matrix                .... done
Calculating the G,G- and P matrices     .... done
Transforming gradient to internals      .... done
Projecting the internal gradient        .... done
Number of atoms                         ....   6
Number of internal coordinates          ....  19
Current Energy                          ....  -152.732419777 Eh
Current gradient norm                   ....     0.051517077 Eh/bohr
Maximum allowed component of the step   ....  0.300
Current trust radius                    ....  0.300
Evaluating the initial hessian          ....  (Almloef) done
Projecting the Hessian                  .... done
Forming the augmented Hessian           .... done
Diagonalizing the augmented Hessian     .... done
Last element of RFO vector              ....  0.987168853
Lowest eigenvalues of augmented Hessian:
 -0.003175600  0.001503514  0.013246409  0.060666246  0.126453471
Length of the computed step             ....  0.161755362
The final length of the internal step   ....  0.161755362
Converting the step to cartesian space:
 Initial RMS(Int)=    0.0371092251
Transforming coordinates:
 Iter   0:  RMS(Cart)=    0.0415512982 RMS(Int)=    0.0371047252
 Iter   1:  RMS(Cart)=    0.0000961275 RMS(Int)=    0.0001086762
 Iter   2:  RMS(Cart)=    0.0000024088 RMS(Int)=    0.0000032940
 Iter   3:  RMS(Cart)=    0.0000000635 RMS(Int)=    0.0000001235
done
Storing new coordinates                 .... done

                                .--------------------.
          ----------------------|Geometry convergence|---------------------
          Item                value                 Tolerance   Converged
          -----------------------------------------------------------------
          RMS gradient        0.00875325            0.00010000      NO
          MAX gradient        0.02621201            0.00030000      NO
          RMS step            0.03710923            0.00200000      NO
          MAX step            0.10891423            0.00400000      NO
          ....................................................
          Max(Bonds)      0.0576      Max(Angles)    0.71
          Max(Dihed)        0.66      Max(Improp)    0.00
          -----------------------------------------------------------------

The optimization has not yet converged - more geometry cycles are needed


    ---------------------------------------------------------------------------
                         Redundant Internal Coordinates
                            (Angstroem and degrees)

        Definition                    Value    dE/dq     Step     New-Value
    ----------------------------------------------------------------------------
     1. B(H   1,O   0)                0.9572 -0.026212  0.0262    0.9834   
     2. B(H   2,O   0)                0.9572 -0.015472  0.0155    0.9727   
     3. B(O   3,H   1)                1.8094  0.000923  0.0487    1.8581   
     4. B(H   4,O   3)                0.9572 -0.016571  0.0166    0.9738   
     5. B(H   5,H   1)                2.3003 -0.004463  0.0576    2.3579   
     6. B(H   5,O   3)                0.9572 -0.013794  0.0172    0.9744   
     7. A(H   1,O   0,H   2)          104.52  0.004050   -0.71    103.81   
     8. A(O   0,H   1,H   5)          153.96  0.000844   -0.39    153.57   
     9. A(O   3,H   1,H   5)           23.24 -0.003247   -0.19     23.05   
    10. A(H   1,O   3,H   4)          138.48  0.000193   -0.32    138.16   
    11. A(H   1,O   3,H   5)          108.54  0.002875    0.11    108.65   
    12. A(H   4,O   3,H   5)          104.52 -0.002380    0.10    104.62   
    13. A(H   1,H   5,O   3)           48.23  0.000372    0.08     48.30   
    14. D(H   5,H   1,O   0,H   2)    159.05  0.000344   -0.09    158.96   
    15. D(H   5,O   3,O   0,H   2)    160.14 -0.000030   -0.33    159.81   
    16. D(H   4,O   3,H   1,H   5)    141.05  0.000898   -0.14    140.91   
    17. D(H   4,O   3,O   0,H   2)    -59.21  0.000306   -0.66    -59.87   
    18. D(H   1,H   5,O   3,H   4)   -154.50 -0.000928    0.27   -154.23   
    19. D(O   3,H   5,H   1,O   0)   -178.39 -0.000180   -0.27   -178.66   
    ----------------------------------------------------------------------------

         *************************************************************
         *                GEOMETRY OPTIMIZATION CYCLE   2            *
         *************************************************************
---------------------------------
CARTESIAN COORDINATES (ANGSTROEM)
---------------------------------
  O      1.198331   -0.487017    1.055049
  H      0.491091   -0.201626    0.434139
  H      2.011973   -0.421665    0.526045
  O     -0.915255    0.270770   -0.684619
  H     -1.193655    1.038182   -1.215507
  H     -1.742773   -0.083216   -0.311336

----------------------------
CARTESIAN COORDINATES (A.U.)
----------------------------
  NO LB      ZA    FRAG    MASS        X           Y           Z
   0 O     8.0000    0    15.999          2.264517336645689         -0.920328656126236          1.993753293597198
   1 H     1.0000    0     1.008          0.928027689256702         -0.381017943596210          0.820403143217805
   2 H     1.0000    0     1.008          3.802078513051799         -0.796831777907513          0.994081062126880
   3 O     8.0000    0    15.999         -1.729581164155100          0.511680453269873         -1.293741853983632
   4 H     1.0000    0     1.008         -2.255680338038332          1.961879500526261         -2.296975768106335
   5 H     1.0000    0     1.008         -3.293362816920586         -0.157255685274513         -0.588338984179672

--------------------------------
INTERNAL COORDINATES (ANGSTROEM)
--------------------------------
 O      0   0   0   0.000000     0.000     0.000
 H      1   0   0   0.983446     0.000     0.000
 H      1   2   0   0.972692   103.809     0.000
 O      2   1   3   1.858113   176.575   150.136
 H      4   2   1   0.973792   138.158   150.951
 H      4   2   1   0.974388   108.649    10.041

---------------------------
INTERNAL COORDINATES (A.U.)
---------------------------
 O      0   0   0   0.000000     0.000     0.000
 H      1   0   0   1.858443     0.000     0.000
 H      1   2   0   1.838121   103.809     0.000
 O      2   1   3   3.511325   176.575   150.136
 H      4   2   1   1.840200   138.158   150.951
 H      4   2   1   1.841326   108.649    10.041

smp-n102.crc.pitt.edu.360020hfi_wait_for_device: The /dev/hfi1_0 device failed to appear after 15.0 seconds: Connection timed out
smp-n102.crc.pitt.edu.360024hfi_wait_for_device: The /dev/hfi1_0 device failed to appear after 15.0 seconds: Connection timed out
smp-n102.crc.pitt.edu.360021hfi_wait_for_device: The /dev/hfi1_0 device failed to appear after 15.0 seconds: Connection timed out
smp-n102.crc.pitt.edu.360025hfi_wait_for_device: The /dev/hfi1_0 device failed to appear after 15.0 seconds: Connection timed out
smp-n102.crc.pitt.edu.360030hfi_wait_for_device: The /dev/hfi1_0 device failed to appear after 15.0 seconds: Connection timed out
smp-n102.crc.pitt.edu.360031hfi_wait_for_device: The /dev/hfi1_0 device failed to appear after 15.0 seconds: Connection timed out
smp-n102.crc.pitt.edu.360022hfi_wait_for_device: The /dev/hfi1_0 device failed to appear after 15.0 seconds: Connection timed out
smp-n102.crc.pitt.edu.360023hfi_wait_for_device: The /dev/hfi1_0 device failed to appear after 15.0 seconds: Connection timed out
smp-n102.crc.pitt.edu.360028hfi_wait_for_device: The /dev/hfi1_0 device failed to appear after 15.0 seconds: Connection timed out
smp-n102.crc.pitt.edu.360029hfi_wait_for_device: The /dev/hfi1_0 device failed to appear after 15.0 seconds: Connection timed out
smp-n102.crc.pitt.edu.360026hfi_wait_for_device: The /dev/hfi1_0 device failed to appear after 15.0 seconds: Connection timed out
smp-n102.crc.pitt.edu.360027hfi_wait_for_device: The /dev/hfi1_0 device failed to appear after 15.0 seconds: Connection timed out


           ************************************************************
           *        Program running with 12 parallel MPI-processes    *
           *              working on a common directory               *
           ************************************************************
 One Electron integrals                  ... done
 Pre-screening matrix                    ... done
           ************************************************************
           *              Shut down parallel processing               *
           ************************************************************
smp-n102.crc.pitt.edu.360074hfi_wait_for_device: The /dev/hfi1_0 device failed to appear after 15.0 seconds: Connection timed out
smp-n102.crc.pitt.edu.360076hfi_wait_for_device: The /dev/hfi1_0 device failed to appear after 15.0 seconds: Connection timed out
smp-n102.crc.pitt.edu.360077hfi_wait_for_device: The /dev/hfi1_0 device failed to appear after 15.0 seconds: Connection timed out
smp-n102.crc.pitt.edu.360075hfi_wait_for_device: The /dev/hfi1_0 device failed to appear after 15.0 seconds: Connection timed out
smp-n102.crc.pitt.edu.360078hfi_wait_for_device: The /dev/hfi1_0 device failed to appear after 15.0 seconds: Connection timed out
smp-n102.crc.pitt.edu.360079hfi_wait_for_device: The /dev/hfi1_0 device failed to appear after 15.0 seconds: Connection timed out
smp-n102.crc.pitt.edu.360073hfi_wait_for_device: The /dev/hfi1_0 device failed to appear after 15.0 seconds: Connection timed out
smp-n102.crc.pitt.edu.360080hfi_wait_for_device: The /dev/hfi1_0 device failed to appear after 15.0 seconds: Connection timed out
smp-n102.crc.pitt.edu.360083hfi_wait_for_device: The /dev/hfi1_0 device failed to appear after 15.0 seconds: Connection timed out
smp-n102.crc.pitt.edu.360081hfi_wait_for_device: The /dev/hfi1_0 device failed to appear after 15.0 seconds: Connection timed out
smp-n102.crc.pitt.edu.360084hfi_wait_for_device: The /dev/hfi1_0 device failed to appear after 15.0 seconds: Connection timed out
smp-n102.crc.pitt.edu.360082hfi_wait_for_device: The /dev/hfi1_0 device failed to appear after 15.0 seconds: Connection timed out


           ************************************************************
           *        Program running with 12 parallel MPI-processes    *
           *              working on a common directory               *
           ************************************************************

Diagonalization of the overlap matrix:
Smallest eigenvalue                        ... 3.028e-02
Time for diagonalization                   ...    0.001 sec
Threshold for overlap eigenvalues          ... 1.000e-08
Number of eigenvalues below threshold      ... 0
Time for construction of square roots      ...    0.000 sec
Total time needed                          ...    0.001 sec

-------------------
DFT GRID GENERATION
-------------------

General Integration Accuracy     IntAcc      ...  4.340
Radial Grid Type                 RadialGrid  ... Gauss-Chebyshev
Angular Grid (max. acc.)         AngularGrid ... Lebedev-110
Angular grid pruning method      GridPruning ... 3 (G Style)
Weight generation scheme         WeightScheme... Becke
Basis function cutoff            BFCut       ...    1.0000e-11
Integration weight cutoff        WCut        ...    1.0000e-14
Grids for H and He will be reduced by one unit

# of grid points (after initial pruning)     ...   6608 (   0.0 sec)
# of grid points (after weights+screening)   ...   6486 (   0.0 sec)
nearest neighbour list constructed           ...    0.0 sec
Grid point re-assignment to atoms done       ...    0.0 sec
Grid point division into batches done        ...    0.0 sec
Reduced shell lists constructed in    0.0 sec

Total number of grid points                  ...     6486
Total number of batches                      ...      104
Average number of points per batch           ...       62
Average number of grid points per atom       ...     1081
Average number of shells per batch           ...    16.00 (66.67%)
Average number of basis functions per batch  ...    29.60 (61.67%)
Average number of large shells per batch     ...    12.60 (78.75%)
Average number of large basis fcns per batch ...    23.00 (77.70%)
Maximum spatial batch extension              ...  14.93, 15.12, 16.11 au
Average spatial batch extension              ...   0.54,  0.63,  0.60 au

Time for grid setup =    0.011 sec

--------------
SCF ITERATIONS
--------------
ITER       Energy         Delta-E        Max-DP      RMS-DP      [F,P]     Damp
               ***  Starting incremental Fock matrix formation  ***
  0   -152.7320838834   0.000000000000 0.00397790  0.00028338  0.0091493 0.7000
                      *** Initiating the SOSCF procedure ***
                      *** Re-Reading the Fockian *** 
                      *** Removing any level shift *** 
ITER      Energy       Delta-E        Grad      Rot      Max-DP    RMS-DP
  1   -152.73222900  -0.0001451147  0.000987  0.000987  0.011328  0.000795
               *** Restarting incremental Fock matrix formation ***
  2   -152.73253587  -0.0003068710  0.001442  0.001487  0.003877  0.000250
  3   -152.73251814   0.0000177262  0.002131  0.001020  0.002231  0.000161
  4   -152.73255192  -0.0000337784  0.000151  0.000100  0.000297  0.000017
  5   -152.73255205  -0.0000001320  0.000080  0.000034  0.000079  0.000006
  6   -152.73255210  -0.0000000419  0.000025  0.000023  0.000055  0.000004
  7   -152.73255209   0.0000000023  0.000026  0.000012  0.000037  0.000002
                 **** Energy Check signals convergence ****
              ***Rediagonalizing the Fockian in SOSCF/NRSCF***

               *****************************************************
               *                     SUCCESS                       *
               *           SCF CONVERGED AFTER   8 CYCLES          *
               *****************************************************

Setting up the final grid:

General Integration Accuracy     IntAcc      ...  4.670
Radial Grid Type                 RadialGrid  ... Gauss-Chebyshev
Angular Grid (max. acc.)         AngularGrid ... Lebedev-302
Angular grid pruning method      GridPruning ... 3 (G Style)
Weight generation scheme         WeightScheme... Becke
Basis function cutoff            BFCut       ...    1.0000e-11
Integration weight cutoff        WCut        ...    1.0000e-14
Grids for H and He will be reduced by one unit

# of grid points (after initial pruning)     ...  26000 (   0.0 sec)
# of grid points (after weights+screening)   ...  25422 (   0.0 sec)
nearest neighbour list constructed           ...    0.0 sec
Grid point re-assignment to atoms done       ...    0.0 sec
Grid point division into batches done        ...    0.1 sec
Reduced shell lists constructed in    0.1 sec

Total number of grid points                  ...    25422
Total number of batches                      ...      400
Average number of points per batch           ...       63
Average number of grid points per atom       ...     4237
Average number of shells per batch           ...    13.46 (56.07%)
Average number of basis functions per batch  ...    25.00 (52.08%)
Average number of large shells per batch     ...    10.51 (78.13%)
Average number of large basis fcns per batch ...    19.09 (76.34%)
Maximum spatial batch extension              ...  16.88, 13.49, 12.47 au
Average spatial batch extension              ...   0.44,  0.44,  0.42 au

Final grid set up in    0.1 sec
Final integration                            ... done (   0.0 sec)
Change in XC energy                          ...     0.000368068
Integrated number of electrons               ...    20.000001312
Previous integrated no of electrons          ...    19.999840504
Total Energy       :         -152.73218403 Eh           -4156.05402 eV
  Last Energy change         ...   -7.1510e-09  Tolerance :   1.0000e-08
  Last MAX-Density change    ...    1.7796e-06  Tolerance :   1.0000e-07
             **** THE GBW FILE WAS UPDATED (2_BP86_2_h2o.gbw) ****
             **** DENSITY FILE WAS UPDATED (2_BP86_2_h2o.scfp.tmp) ****
             **** ENERGY FILE WAS UPDATED (2_BP86_2_h2o.en.tmp) ****
Total SCF time: 0 days 0 hours 0 min 1 sec 
           ************************************************************
           *              Shut down parallel processing               *
           ************************************************************

Entering the calculation of the dispersion correction...

Checking the input atom types...

Done


-------------------------------------------------------------------------------
                          DFT DISPERSION CORRECTION                            
                                                                               
                                DFTD3 V2.1  Rev 6                               
                          USING Becke-Johnson damping                          
-------------------------------------------------------------------------------
-------------------------   ----------------
Dispersion correction           -0.001849153
-------------------------   ----------------


-------------------------   --------------------
FINAL SINGLE POINT ENERGY      -152.734033185415
-------------------------   --------------------

smp-n102.crc.pitt.edu.360146hfi_wait_for_device: The /dev/hfi1_0 device failed to appear after 15.0 seconds: Connection timed out
smp-n102.crc.pitt.edu.360144hfi_wait_for_device: The /dev/hfi1_0 device failed to appear after 15.0 seconds: Connection timed out
smp-n102.crc.pitt.edu.360160hfi_wait_for_device: The /dev/hfi1_0 device failed to appear after 15.0 seconds: Connection timed out
smp-n102.crc.pitt.edu.360161hfi_wait_for_device: The /dev/hfi1_0 device failed to appear after 15.0 seconds: Connection timed out
smp-n102.crc.pitt.edu.360152hfi_wait_for_device: The /dev/hfi1_0 device failed to appear after 15.0 seconds: Connection timed out
smp-n102.crc.pitt.edu.360157hfi_wait_for_device: The /dev/hfi1_0 device failed to appear after 15.0 seconds: Connection timed out
smp-n102.crc.pitt.edu.360150hfi_wait_for_device: The /dev/hfi1_0 device failed to appear after 15.0 seconds: Connection timed out
smp-n102.crc.pitt.edu.360155hfi_wait_for_device: The /dev/hfi1_0 device failed to appear after 15.0 seconds: Connection timed out
smp-n102.crc.pitt.edu.360166hfi_wait_for_device: The /dev/hfi1_0 device failed to appear after 15.0 seconds: Connection timed out
smp-n102.crc.pitt.edu.360168hfi_wait_for_device: The /dev/hfi1_0 device failed to appear after 15.0 seconds: Connection timed out
smp-n102.crc.pitt.edu.360139hfi_wait_for_device: The /dev/hfi1_0 device failed to appear after 15.0 seconds: Connection timed out
smp-n102.crc.pitt.edu.360164hfi_wait_for_device: The /dev/hfi1_0 device failed to appear after 15.0 seconds: Connection timed out


           ************************************************************
           *        Program running with 12 parallel MPI-processes    *
           *              working on a common directory               *
           ************************************************************
------------------------------------------------------------------------------
                         ORCA SCF GRADIENT CALCULATION
------------------------------------------------------------------------------

Gradient of the Kohn-Sham DFT energy:
Kohn-Sham wavefunction type      ... RKS
Hartree-Fock exchange scaling    ...    0.000
Number of operators              ...    1
Number of atoms                  ...    6
Basis set dimensions             ...   48
Integral neglect threshold       ... 2.5e-11
Integral primitive cutoff        ... 2.5e-12

Nuclear repulsion gradient       ... done
One Electron Gradient            ... done
Pre-screening matrix             ... done
RI-J gradient                    ... done
Exchange-correlation gradient    ... done
Dispersion correction            ... 
Entering the calculation of the dispersion correction...

Checking the input atom types...

Done
done

------------------
CARTESIAN GRADIENT
------------------

   1   O   :    0.001068954    0.001430042   -0.003976958
   2   H   :   -0.002510149   -0.001895334    0.001235117
   3   H   :    0.000912205   -0.000525809    0.002399361
   4   O   :   -0.000361325    0.002601488    0.001378026
   5   H   :    0.000179992   -0.000712209   -0.001418741
   6   H   :    0.000710322   -0.000898178    0.000383195

Norm of the cartesian gradient     ...    0.007077845
RMS gradient                       ...    0.001668264
MAX gradient                       ...    0.003976958

-------
TIMINGS
-------

Total SCF gradient time            ...        0.223 sec

One electron gradient       ....       0.001 sec  (  0.4%)
Prescreening matrices       ....       0.004 sec  (  1.7%)
RI-J Coulomb gradient       ....       0.059 sec  ( 26.6%)
XC gradient                 ....       0.033 sec  ( 14.9%)
           ************************************************************
           *              Shut down parallel processing               *
           ************************************************************
------------------------------------------------------------------------------
                         ORCA GEOMETRY RELAXATION STEP
------------------------------------------------------------------------------

Reading the OPT-File                    .... done
Getting information on internals        .... done
Copying old internal coords+grads       .... done
Making the new internal coordinates     .... (new redundants).... done
Validating the new internal coordinates .... (new redundants).... done
Calculating the B-matrix                .... done
Calculating the G,G- and P matrices     .... done
Transforming gradient to internals      .... done
Projecting the internal gradient        .... done
Number of atoms                         ....   6
Number of internal coordinates          ....  19
Current Energy                          ....  -152.734033185 Eh
Current gradient norm                   ....     0.007077845 Eh/bohr
Maximum allowed component of the step   ....  0.300
Current trust radius                    ....  0.300
Updating the Hessian (BFGS)             .... done
Forming the augmented Hessian           .... done
Diagonalizing the augmented Hessian     .... done
Last element of RFO vector              ....  0.998909568
Lowest eigenvalues of augmented Hessian:
 -0.000111471  0.001503904  0.013037810  0.060440330  0.125709761
Length of the computed step             ....  0.046737946
The final length of the internal step   ....  0.046737946
Converting the step to cartesian space:
 Initial RMS(Int)=    0.0107224203
Transforming coordinates:
 Iter   0:  RMS(Cart)=    0.0070409460 RMS(Int)=    0.0107032319
 Iter   1:  RMS(Cart)=    0.0000446723 RMS(Int)=    0.0000598585
 Iter   2:  RMS(Cart)=    0.0000005633 RMS(Int)=    0.0000005774
 Iter   3:  RMS(Cart)=    0.0000000080 RMS(Int)=    0.0000000087
done
Storing new coordinates                 .... done

                                .--------------------.
          ----------------------|Geometry convergence|---------------------
          Item                value                 Tolerance   Converged
          -----------------------------------------------------------------
          Energy change      -0.00161341            0.00000500      NO
          RMS gradient        0.00116039            0.00010000      NO
          MAX gradient        0.00465310            0.00030000      NO
          RMS step            0.01072242            0.00200000      NO
          MAX step            0.02417574            0.00400000      NO
          ....................................................
          Max(Bonds)      0.0128      Max(Angles)    0.88
          Max(Dihed)        1.33      Max(Improp)    0.00
          -----------------------------------------------------------------

The optimization has not yet converged - more geometry cycles are needed


    ---------------------------------------------------------------------------
                         Redundant Internal Coordinates
                            (Angstroem and degrees)

        Definition                    Value    dE/dq     Step     New-Value
    ----------------------------------------------------------------------------
     1. B(H   1,O   0)                0.9834  0.000163  0.0006    0.9841   
     2. B(H   2,O   0)                0.9727 -0.000568  0.0011    0.9737   
     3. B(O   3,H   1)                1.8581  0.000111  0.0102    1.8683   
     4. B(H   4,O   3)                0.9738  0.000177  0.0003    0.9741   
     5. B(H   5,H   1)                2.3579 -0.000578  0.0128    2.3707   
     6. B(H   5,O   3)                0.9744  0.000358  0.0005    0.9749   
     7. A(H   1,O   0,H   2)          103.81  0.004653   -0.88    102.93   
     8. A(O   0,H   1,H   5)          153.57  0.000487   -0.30    153.27   
     9. A(O   3,H   1,H   5)           23.05  0.000234   -0.16     22.89   
    10. A(H   1,O   3,H   4)          138.16  0.000790   -0.22    137.93   
    11. A(H   1,O   3,H   5)          108.65 -0.000668    0.24    108.89   
    12. A(H   4,O   3,H   5)          104.62  0.000235   -0.23    104.39   
    13. A(H   1,H   5,O   3)           48.30  0.000434   -0.09     48.21   
    14. D(H   5,H   1,O   0,H   2)    158.96  0.000173   -0.09    158.87   
    15. D(H   5,O   3,O   0,H   2)    159.81 -0.000157   -0.63    159.18   
    16. D(H   4,O   3,H   1,H   5)    140.91  0.000619   -0.45    140.45   
    17. D(H   4,O   3,O   0,H   2)    -59.87  0.000565   -1.33    -61.20   
    18. D(H   1,H   5,O   3,H   4)   -154.23 -0.000764    0.36   -153.87   
    19. D(O   3,H   5,H   1,O   0)   -178.66 -0.000361   -0.66   -179.32   
    ----------------------------------------------------------------------------

         *************************************************************
         *                GEOMETRY OPTIMIZATION CYCLE   3            *
         *************************************************************
---------------------------------
CARTESIAN COORDINATES (ANGSTROEM)
---------------------------------
  O      1.202047   -0.484355    1.062685
  H      0.498898   -0.201251    0.435140
  H      2.011147   -0.426324    0.524003
  O     -0.917771    0.270227   -0.687964
  H     -1.197995    1.040682   -1.214034
  H     -1.746612   -0.083552   -0.316059

----------------------------
CARTESIAN COORDINATES (A.U.)
----------------------------
  NO LB      ZA    FRAG    MASS        X           Y           Z
   0 O     8.0000    0    15.999          2.271539325033037         -0.915299018045975          2.008183434996973
   1 H     1.0000    0     1.008          0.942780805005546         -0.380309020988107          0.822295850623923
   2 H     1.0000    0     1.008          3.800516633958522         -0.805635898427812          0.990221874591738
   3 O     8.0000    0    15.999         -1.734335923346050          0.510655002368419         -1.300062928561583
   4 H     1.0000    0     1.008         -2.263882407480901          1.966604908800048         -2.294192495888616
   5 H     1.0000    0     1.008         -3.300619213329981         -0.157890082814912         -0.597264843090192

--------------------------------
INTERNAL COORDINATES (ANGSTROEM)
--------------------------------
 O      0   0   0   0.000000     0.000     0.000
 H      1   0   0   0.984062     0.000     0.000
 H      1   2   0   0.973750   102.932     0.000
 O      2   1   3   1.868316   176.157   154.926
 H      4   2   1   0.974103   137.934   145.012
 H      4   2   1   0.974911   108.890     4.557

---------------------------
INTERNAL COORDINATES (A.U.)
---------------------------
 O      0   0   0   0.000000     0.000     0.000
 H      1   0   0   1.859608     0.000     0.000
 H      1   2   0   1.840120   102.932     0.000
 O      2   1   3   3.530606   176.157   154.926
 H      4   2   1   1.840789   137.934   145.012
 H      4   2   1   1.842314   108.890     4.557

smp-n102.crc.pitt.edu.360182hfi_wait_for_device: The /dev/hfi1_0 device failed to appear after 15.0 seconds: Connection timed out
smp-n102.crc.pitt.edu.360186hfi_wait_for_device: The /dev/hfi1_0 device failed to appear after 15.0 seconds: Connection timed out
smp-n102.crc.pitt.edu.360192hfi_wait_for_device: The /dev/hfi1_0 device failed to appear after 15.0 seconds: Connection timed out
smp-n102.crc.pitt.edu.360184hfi_wait_for_device: The /dev/hfi1_0 device failed to appear after 15.0 seconds: Connection timed out
smp-n102.crc.pitt.edu.360190hfi_wait_for_device: The /dev/hfi1_0 device failed to appear after 15.0 seconds: Connection timed out
smp-n102.crc.pitt.edu.360194hfi_wait_for_device: The /dev/hfi1_0 device failed to appear after 15.0 seconds: Connection timed out
smp-n102.crc.pitt.edu.360188hfi_wait_for_device: The /dev/hfi1_0 device failed to appear after 15.0 seconds: Connection timed out
smp-n102.crc.pitt.edu.360201hfi_wait_for_device: The /dev/hfi1_0 device failed to appear after 15.0 seconds: Connection timed out
smp-n102.crc.pitt.edu.360196hfi_wait_for_device: The /dev/hfi1_0 device failed to appear after 15.0 seconds: Connection timed out
smp-n102.crc.pitt.edu.360197hfi_wait_for_device: The /dev/hfi1_0 device failed to appear after 15.0 seconds: Connection timed out
smp-n102.crc.pitt.edu.360199hfi_wait_for_device: The /dev/hfi1_0 device failed to appear after 15.0 seconds: Connection timed out
smp-n102.crc.pitt.edu.360204hfi_wait_for_device: The /dev/hfi1_0 device failed to appear after 15.0 seconds: Connection timed out


           ************************************************************
           *        Program running with 12 parallel MPI-processes    *
           *              working on a common directory               *
           ************************************************************
 One Electron integrals                  ... done
 Pre-screening matrix                    ... done
           ************************************************************
           *              Shut down parallel processing               *
           ************************************************************
smp-n102.crc.pitt.edu.360250hfi_wait_for_device: The /dev/hfi1_0 device failed to appear after 15.0 seconds: Connection timed out
smp-n102.crc.pitt.edu.360256hfi_wait_for_device: The /dev/hfi1_0 device failed to appear after 15.0 seconds: Connection timed out
smp-n102.crc.pitt.edu.360255hfi_wait_for_device: The /dev/hfi1_0 device failed to appear after 15.0 seconds: Connection timed out
smp-n102.crc.pitt.edu.360264hfi_wait_for_device: The /dev/hfi1_0 device failed to appear after 15.0 seconds: Connection timed out
smp-n102.crc.pitt.edu.360252hfi_wait_for_device: The /dev/hfi1_0 device failed to appear after 15.0 seconds: Connection timed out
smp-n102.crc.pitt.edu.360262hfi_wait_for_device: The /dev/hfi1_0 device failed to appear after 15.0 seconds: Connection timed out
smp-n102.crc.pitt.edu.360260hfi_wait_for_device: The /dev/hfi1_0 device failed to appear after 15.0 seconds: Connection timed out
smp-n102.crc.pitt.edu.360265hfi_wait_for_device: The /dev/hfi1_0 device failed to appear after 15.0 seconds: Connection timed out
smp-n102.crc.pitt.edu.360246hfi_wait_for_device: The /dev/hfi1_0 device failed to appear after 15.0 seconds: Connection timed out
smp-n102.crc.pitt.edu.360267hfi_wait_for_device: The /dev/hfi1_0 device failed to appear after 15.0 seconds: Connection timed out
smp-n102.crc.pitt.edu.360269hfi_wait_for_device: The /dev/hfi1_0 device failed to appear after 15.0 seconds: Connection timed out
smp-n102.crc.pitt.edu.360272hfi_wait_for_device: The /dev/hfi1_0 device failed to appear after 15.0 seconds: Connection timed out


           ************************************************************
           *        Program running with 12 parallel MPI-processes    *
           *              working on a common directory               *
           ************************************************************

Diagonalization of the overlap matrix:
Smallest eigenvalue                        ... 3.032e-02
Time for diagonalization                   ...    0.001 sec
Threshold for overlap eigenvalues          ... 1.000e-08
Number of eigenvalues below threshold      ... 0
Time for construction of square roots      ...    0.000 sec
Total time needed                          ...    0.001 sec

-------------------
DFT GRID GENERATION
-------------------

General Integration Accuracy     IntAcc      ...  4.340
Radial Grid Type                 RadialGrid  ... Gauss-Chebyshev
Angular Grid (max. acc.)         AngularGrid ... Lebedev-110
Angular grid pruning method      GridPruning ... 3 (G Style)
Weight generation scheme         WeightScheme... Becke
Basis function cutoff            BFCut       ...    1.0000e-11
Integration weight cutoff        WCut        ...    1.0000e-14
Grids for H and He will be reduced by one unit

# of grid points (after initial pruning)     ...   6608 (   0.0 sec)
# of grid points (after weights+screening)   ...   6487 (   0.0 sec)
nearest neighbour list constructed           ...    0.0 sec
Grid point re-assignment to atoms done       ...    0.0 sec
Grid point division into batches done        ...    0.0 sec
Reduced shell lists constructed in    0.0 sec

Total number of grid points                  ...     6487
Total number of batches                      ...      104
Average number of points per batch           ...       62
Average number of grid points per atom       ...     1081
Average number of shells per batch           ...    16.00 (66.67%)
Average number of basis functions per batch  ...    29.60 (61.67%)
Average number of large shells per batch     ...    12.60 (78.75%)
Average number of large basis fcns per batch ...    23.00 (77.70%)
Maximum spatial batch extension              ...  14.94, 15.12, 16.14 au
Average spatial batch extension              ...   0.55,  0.64,  0.60 au

Time for grid setup =    0.012 sec

--------------
SCF ITERATIONS
--------------
ITER       Energy         Delta-E        Max-DP      RMS-DP      [F,P]     Damp
               ***  Starting incremental Fock matrix formation  ***
                      *** Initiating the SOSCF procedure ***
                      *** Re-Reading the Fockian *** 
                      *** Removing any level shift *** 
ITER      Energy       Delta-E        Grad      Rot      Max-DP    RMS-DP
  0   -152.73259115 -152.7325911498  0.001421  0.001421  0.003831  0.000269
               *** Restarting incremental Fock matrix formation ***
  1   -152.73262613  -0.0000349794  0.000252  0.000860  0.000967  0.000076
  2   -152.73262766  -0.0000015285  0.000167  0.000218  0.000409  0.000031
  3   -152.73262764   0.0000000211  0.000165  0.000189  0.000270  0.000021
  4   -152.73262792  -0.0000002817  0.000010  0.000017  0.000026  0.000002
  5   -152.73262792  -0.0000000000  0.000012  0.000005  0.000015  0.000001
                 **** Energy Check signals convergence ****
              ***Rediagonalizing the Fockian in SOSCF/NRSCF***

               *****************************************************
               *                     SUCCESS                       *
               *           SCF CONVERGED AFTER   6 CYCLES          *
               *****************************************************

Setting up the final grid:

General Integration Accuracy     IntAcc      ...  4.670
Radial Grid Type                 RadialGrid  ... Gauss-Chebyshev
Angular Grid (max. acc.)         AngularGrid ... Lebedev-302
Angular grid pruning method      GridPruning ... 3 (G Style)
Weight generation scheme         WeightScheme... Becke
Basis function cutoff            BFCut       ...    1.0000e-11
Integration weight cutoff        WCut        ...    1.0000e-14
Grids for H and He will be reduced by one unit

# of grid points (after initial pruning)     ...  26000 (   0.0 sec)
# of grid points (after weights+screening)   ...  25424 (   0.0 sec)
nearest neighbour list constructed           ...    0.0 sec
Grid point re-assignment to atoms done       ...    0.0 sec
Grid point division into batches done        ...    0.1 sec
Reduced shell lists constructed in    0.1 sec

Total number of grid points                  ...    25424
Total number of batches                      ...      401
Average number of points per batch           ...       63
Average number of grid points per atom       ...     4237
Average number of shells per batch           ...    13.46 (56.07%)
Average number of basis functions per batch  ...    24.71 (51.49%)
Average number of large shells per batch     ...    10.51 (78.13%)
Average number of large basis fcns per batch ...    19.09 (77.23%)
[...]
Time for construction of square roots      ...    0.000 sec
Total time needed                          ...    0.001 sec

---------------------
INITIAL GUESS: MOREAD
---------------------
Guess MOs are being read from file: 2_BP86_2_h2o.gbw
Input Geometry matches current geometry (good)
Input basis set matches current basis set (good)
MOs were renormalized
MOs were reorthogonalized (Schmidt)
                      ------------------
                      INITIAL GUESS DONE (   0.0 sec)
                      ------------------
-------------------
DFT GRID GENERATION
-------------------

General Integration Accuracy     IntAcc      ...  4.340
Radial Grid Type                 RadialGrid  ... Gauss-Chebyshev
Angular Grid (max. acc.)         AngularGrid ... Lebedev-110
Angular grid pruning method      GridPruning ... 3 (G Style)
Weight generation scheme         WeightScheme... Becke
Basis function cutoff            BFCut       ...    1.0000e-11
Integration weight cutoff        WCut        ...    1.0000e-14
Grids for H and He will be reduced by one unit

# of grid points (after initial pruning)     ...   6608 (   0.0 sec)
# of grid points (after weights+screening)   ...   6472 (   0.0 sec)
nearest neighbour list constructed           ...    0.0 sec
Grid point re-assignment to atoms done       ...    0.0 sec
Grid point division into batches done        ...    0.0 sec
Reduced shell lists constructed in    0.0 sec

Total number of grid points                  ...     6472
Total number of batches                      ...      104
Average number of points per batch           ...       62
Average number of grid points per atom       ...     1079
Average number of shells per batch           ...    16.70 (69.58%)
Average number of basis functions per batch  ...    31.50 (65.62%)
Average number of large shells per batch     ...    13.30 (79.64%)
Average number of large basis fcns per batch ...    24.30 (77.14%)
Maximum spatial batch extension              ...  15.79, 15.30, 12.95 au
Average spatial batch extension              ...   0.52,  0.64,  0.52 au

Time for grid setup =    0.011 sec

--------------
SCF ITERATIONS
--------------
ITER       Energy         Delta-E        Max-DP      RMS-DP      [F,P]     Damp
               ***  Starting incremental Fock matrix formation  ***
                      *** Initiating the SOSCF procedure ***
                      *** Re-Reading the Fockian *** 
                      *** Removing any level shift *** 
ITER      Energy       Delta-E        Grad      Rot      Max-DP    RMS-DP
  0   -152.73441014 -152.7344101356  0.000234  0.000234  0.000856  0.000037
               *** Restarting incremental Fock matrix formation ***
  1   -152.73441094  -0.0000008033  0.000040  0.000095  0.000193  0.000011
  2   -152.73441097  -0.0000000314  0.000041  0.000042  0.000085  0.000006
  3   -152.73441097  -0.0000000013  0.000030  0.000037  0.000058  0.000004
                  ***Gradient check signals convergence***
              ***Rediagonalizing the Fockian in SOSCF/NRSCF***

               *****************************************************
               *                     SUCCESS                       *
               *           SCF CONVERGED AFTER   4 CYCLES          *
               *****************************************************

Setting up the final grid:

General Integration Accuracy     IntAcc      ...  4.670
Radial Grid Type                 RadialGrid  ... Gauss-Chebyshev
Angular Grid (max. acc.)         AngularGrid ... Lebedev-302
Angular grid pruning method      GridPruning ... 3 (G Style)
Weight generation scheme         WeightScheme... Becke
Basis function cutoff            BFCut       ...    1.0000e-11
Integration weight cutoff        WCut        ...    1.0000e-14
Grids for H and He will be reduced by one unit

# of grid points (after initial pruning)     ...  26000 (   0.0 sec)
# of grid points (after weights+screening)   ...  25372 (   0.0 sec)
nearest neighbour list constructed           ...    0.0 sec
Grid point re-assignment to atoms done       ...    0.0 sec
Grid point division into batches done        ...    0.1 sec
Reduced shell lists constructed in    0.1 sec

Total number of grid points                  ...    25372
Total number of batches                      ...      400
Average number of points per batch           ...       63
Average number of grid points per atom       ...     4229
Average number of shells per batch           ...    14.74 (61.43%)
Average number of basis functions per batch  ...    27.54 (57.38%)
Average number of large shells per batch     ...    11.94 (81.01%)
Average number of large basis fcns per batch ...    21.71 (78.84%)
Maximum spatial batch extension              ...  13.98, 15.73, 14.91 au
Average spatial batch extension              ...   0.39,  0.41,  0.37 au

Final grid set up in    0.1 sec
Final integration                            ... done (   0.0 sec)
Change in XC energy                          ...    -0.000211160
Integrated number of electrons               ...    20.000018806
Previous integrated no of electrons          ...    20.000773234

----------------
TOTAL SCF ENERGY
----------------

Total Energy       :         -152.73462214 Eh           -4156.12036 eV

Components:
Nuclear Repulsion  :           36.96996478 Eh            1006.00389 eV
Electronic Energy  :         -189.70458692 Eh           -5162.12425 eV

One Electron Energy:         -283.30593960 Eh           -7709.14654 eV
Two Electron Energy:           93.60135268 Eh            2547.02229 eV

Virial components:
Potential Energy   :         -304.28159516 Eh           -8279.92315 eV
Kinetic Energy     :          151.54697302 Eh            4123.80279 eV
Virial Ratio       :            2.00783684


DFT components:
N(Alpha)           :       10.000009403209 electrons
N(Beta)            :       10.000009403209 electrons
N(Total)           :       20.000018806418 electrons
E(X)               :      -17.946742508554 Eh       
E(C)               :       -0.731276322228 Eh       
E(XC)              :      -18.678018830782 Eh       

---------------
SCF CONVERGENCE
---------------

  Last Energy change         ...   -8.9435e-09  Tolerance :   1.0000e-08
  Last MAX-Density change    ...    5.3220e-06  Tolerance :   1.0000e-07
  Last RMS-Density change    ...    4.2103e-07  Tolerance :   5.0000e-09
  Last Orbital Gradient      ...    2.1870e-06  Tolerance :   1.0000e-05
  Last Orbital Rotation      ...    4.0394e-06  Tolerance :   1.0000e-05

             **** THE GBW FILE WAS UPDATED (2_BP86_2_h2o.gbw) ****
             **** DENSITY FILE WAS UPDATED (2_BP86_2_h2o.scfp.tmp) ****
             **** ENERGY FILE WAS UPDATED (2_BP86_2_h2o.en.tmp) ****
----------------
ORBITAL ENERGIES
----------------

  NO   OCC          E(Eh)            E(eV) 
   0   2.0000     -18.803136      -511.6593 
   1   2.0000     -18.730149      -509.6733 
   2   2.0000      -0.930286       -25.3144 
   3   2.0000      -0.858801       -23.3692 
   4   2.0000      -0.491442       -13.3728 
   5   2.0000      -0.429137       -11.6774 
   6   2.0000      -0.353641        -9.6231 
   7   2.0000      -0.296548        -8.0695 
   8   2.0000      -0.265932        -7.2364 
   9   2.0000      -0.206936        -5.6310 
  10   0.0000       0.006063         0.1650 
  11   0.0000       0.073304         1.9947 
  12   0.0000       0.086258         2.3472 
  13   0.0000       0.195689         5.3250 
  14   0.0000       0.477791        13.0013 
  15   0.0000       0.533985        14.5305 
  16   0.0000       0.558016        15.1844 
  17   0.0000       0.577515        15.7150 
  18   0.0000       0.809982        22.0407 
  19   0.0000       0.891403        24.2563 
  20   0.0000       0.893612        24.3164 
  21   0.0000       0.918153        24.9842 
  22   0.0000       0.928193        25.2574 
  23   0.0000       0.990410        26.9504 
  24   0.0000       1.030037        28.0287 
  25   0.0000       1.233061        33.5533 
  26   0.0000       1.246766        33.9262 
  27   0.0000       1.326594        36.0984 
  28   0.0000       1.355038        36.8724 
  29   0.0000       1.383912        37.6581 
  30   0.0000       1.471489        40.0413 
  31   0.0000       1.502273        40.8789 
  32   0.0000       1.693085        46.0712 
  33   0.0000       1.780108        48.4392 
  34   0.0000       2.069642        56.3178 
  35   0.0000       2.079718        56.5920 
  36   0.0000       2.153705        58.6053 
  37   0.0000       2.366643        64.3996 
  38   0.0000       2.845034        77.4173 
  39   0.0000       2.846703        77.4627 
  40   0.0000       2.892891        78.7196 
  41   0.0000       2.918361        79.4126 
  42   0.0000       3.035368        82.5966 
  43   0.0000       3.114655        84.7541 
  44   0.0000       3.361486        91.4707 
  45   0.0000       3.423514        93.1586 
  46   0.0000       3.684065       100.2485 
  47   0.0000       3.764420       102.4351 

                    ********************************
                    * MULLIKEN POPULATION ANALYSIS *
                    ********************************

-----------------------
MULLIKEN ATOMIC CHARGES
-----------------------
   0 O :   -0.337329
   1 H :    0.095780
   2 H :    0.146105
   3 O :   -0.253320
   4 H :    0.174182
   5 H :    0.174581
Sum of atomic charges:   -0.0000000

--------------------------------
MULLIKEN REDUCED ORBITAL CHARGES
--------------------------------
  0 O s       :     3.691750  s :     3.691750
      pz      :     1.549251  p :     4.635809
      px      :     1.303203
      py      :     1.783355
      dz2     :     0.002070  d :     0.009770
      dxz     :     0.004196
      dyz     :     0.001665
      dx2y2   :     0.000293
      dxy     :     0.001547
  1 H s       :     0.832582  s :     0.832582
      pz      :     0.027193  p :     0.071637
      px      :     0.026634
      py      :     0.017810
  2 H s       :     0.785195  s :     0.785195
      pz      :     0.018706  p :     0.068700
      px      :     0.026928
      py      :     0.023067
  3 O s       :     3.703062  s :     3.703062
      pz      :     1.656120  p :     4.540169
      px      :     1.612651
      py      :     1.271398
      dz2     :     0.001823  d :     0.010089
      dxz     :     0.003229
      dyz     :     0.001228
      dx2y2   :     0.003334
      dxy     :     0.000475
  4 H s       :     0.756839  s :     0.756839
      pz      :     0.017724  p :     0.068979
      px      :     0.017884
      py      :     0.033372
  5 H s       :     0.756591  s :     0.756591
      pz      :     0.025891  p :     0.068828
      px      :     0.024767
      py      :     0.018170


                     *******************************
                     * LOEWDIN POPULATION ANALYSIS *
                     *******************************

----------------------
LOEWDIN ATOMIC CHARGES
----------------------
   0 O :   -0.187907
   1 H :    0.028997
   2 H :    0.070873
   3 O :   -0.095118
   4 H :    0.091443
   5 H :    0.091711

-------------------------------
LOEWDIN REDUCED ORBITAL CHARGES
-------------------------------
  0 O s       :     3.453122  s :     3.453122
      pz      :     1.598931  p :     4.716755
      px      :     1.356833
      py      :     1.760991
      dz2     :     0.002590  d :     0.018029
      dxz     :     0.008817
      dyz     :     0.001768
      dx2y2   :     0.000954
      dxy     :     0.003900
  1 H s       :     0.775380  s :     0.775380
      pz      :     0.084451  p :     0.195623
      px      :     0.066070
      py      :     0.045102
  2 H s       :     0.756003  s :     0.756003
      pz      :     0.048186  p :     0.173124
      px      :     0.062434
      py      :     0.062504
  3 O s       :     3.448971  s :     3.448971
      pz      :     1.661618  p :     4.627516
      px      :     1.622754
      py      :     1.343144
      dz2     :     0.002699  d :     0.018631
      dxz     :     0.006182
      dyz     :     0.001675
      dx2y2   :     0.007399
      dxy     :     0.000676
  4 H s       :     0.737198  s :     0.737198
      pz      :     0.042696  p :     0.171359
      px      :     0.041605
      py      :     0.087058
  5 H s       :     0.736949  s :     0.736949
      pz      :     0.069863  p :     0.171340
      px      :     0.068672
      py      :     0.032804


                      *****************************
                      * MAYER POPULATION ANALYSIS *
                      *****************************

  NA   - Mulliken gross atomic population
  ZA   - Total nuclear charge
  QA   - Mulliken gross atomic charge
  VA   - Mayer's total valence
  BVA  - Mayer's bonded valence
  FA   - Mayer's free valence

  ATOM       NA         ZA         QA         VA         BVA        FA
  0 O      8.3373     8.0000    -0.3373     1.9761     1.9761    -0.0000
  1 H      0.9042     1.0000     0.0958     1.1282     1.1282     0.0000
  2 H      0.8539     1.0000     0.1461     1.0103     1.0103    -0.0000
  3 O      8.2533     8.0000    -0.2533     2.1682     2.1682    -0.0000
  4 H      0.8258     1.0000     0.1742     1.0051     1.0051    -0.0000
  5 H      0.8254     1.0000     0.1746     1.0040     1.0040    -0.0000

  Mayer bond orders larger than 0.1
B(  0-O ,  1-H ) :   0.9452 B(  0-O ,  2-H ) :   1.0073 B(  1-H ,  3-O ) :   0.1779 
B(  3-O ,  4-H ) :   0.9906 B(  3-O ,  5-H ) :   0.9898 

-------
TIMINGS
-------

Total SCF time: 0 days 0 hours 0 min 0 sec 

Total time                  ....       0.541 sec
Sum of individual times     ....       0.538 sec  ( 99.5%)

Fock matrix formation       ....       0.356 sec  ( 65.8%)
  Coulomb formation         ....       0.330 sec  ( 92.6% of F)
  Split-RI-J                ....       0.328 sec  ( 92.1% of F)
  XC integration            ....       0.025 sec  (  7.0% of F)
    Basis function eval.    ....       0.006 sec  ( 24.0% of XC)
    Density eval.           ....       0.003 sec  ( 11.1% of XC)
    XC-Functional eval.     ....       0.004 sec  ( 14.3% of XC)
    XC-Potential eval.      ....       0.003 sec  ( 13.8% of XC)
Diagonalization             ....       0.000 sec  (  0.1%)
Density matrix formation    ....       0.049 sec  (  9.1%)
Population analysis         ....       0.001 sec  (  0.2%)
Initial guess               ....       0.001 sec  (  0.2%)
Orbital Transformation      ....       0.000 sec  (  0.0%)
Orbital Orthonormalization  ....       0.001 sec  (  0.1%)
DIIS solution               ....       0.000 sec  (  0.0%)
SOSCF solution              ....       0.026 sec  (  4.8%)
Grid generation             ....       0.104 sec  ( 19.3%)
           ************************************************************
           *              Shut down parallel processing               *
           ************************************************************

Entering the calculation of the dispersion correction...

Checking the input atom types...

Done


-------------------------------------------------------------------------------
                          DFT DISPERSION CORRECTION                            
                                                                               
                                DFTD3 V2.1  Rev 6                               
                          USING Becke-Johnson damping                          
-------------------------------------------------------------------------------
The BP86 functional is recognized
Active option DFTDOPT                   ...         4   

molecular C6(AA) [au] = 178.155369 


            DFT-D V3
 parameters
 s6 scaling factor         :     1.0000 
 a1 scaling factor         :     0.3946 
 s8 scaling factor         :     3.2822 
 a2 scaling factor         :     4.8516 
 ad hoc parameters k1-k3   :    16.0000     1.3333    -4.0000 

 Edisp/kcal,au: -1.227192273753  -0.001955655163 
 E6   /kcal   :  -0.547131685 
 E8   /kcal   :  -0.680060588 
 % E8         :  55.415977018 

-------------------------   ----------------
Dispersion correction           -0.001955655
-------------------------   ----------------


-------------------------   --------------------
FINAL SINGLE POINT ENERGY      -152.736577795576
-------------------------   --------------------

                                *** OPTIMIZATION RUN DONE ***

                            ***************************************
                            *     ORCA property calculations      *
                            ***************************************

                                    ---------------------
                                    Active property flags
                                    ---------------------
   (+) Dipole Moment


------------------------------------------------------------------------------
                       ORCA ELECTRIC PROPERTIES CALCULATION
------------------------------------------------------------------------------

Dipole Moment Calculation                       ... on
Quadrupole Moment Calculation                   ... off
Polarizability Calculation                      ... off
GBWName                                         ... 2_BP86_2_h2o.gbw
Electron density file                           ... 2_BP86_2_h2o.scfp.tmp

-------------
DIPOLE MOMENT
-------------
                                X             Y             Z
Electronic contribution:     -0.14913       0.02083      -0.11066
Nuclear contribution   :     -0.45004       0.14172      -0.28166
                        -----------------------------------------
Total Dipole Moment    :     -0.59917       0.16255      -0.39231
                        -----------------------------------------
Magnitude (a.u.)       :      0.73440
Magnitude (Debye)      :      1.86669

smp-n102.crc.pitt.edu.363247hfi_wait_for_device: The /dev/hfi1_0 device failed to appear after 15.0 seconds: Connection timed out
smp-n102.crc.pitt.edu.363245hfi_wait_for_device: The /dev/hfi1_0 device failed to appear after 15.0 seconds: Connection timed out
smp-n102.crc.pitt.edu.363249hfi_wait_for_device: The /dev/hfi1_0 device failed to appear after 15.0 seconds: Connection timed out
smp-n102.crc.pitt.edu.363248hfi_wait_for_device: The /dev/hfi1_0 device failed to appear after 15.0 seconds: Connection timed out
smp-n102.crc.pitt.edu.363251hfi_wait_for_device: The /dev/hfi1_0 device failed to appear after 15.0 seconds: Connection timed out
smp-n102.crc.pitt.edu.363250hfi_wait_for_device: The /dev/hfi1_0 device failed to appear after 15.0 seconds: Connection timed out
smp-n102.crc.pitt.edu.363252hfi_wait_for_device: The /dev/hfi1_0 device failed to appear after 15.0 seconds: Connection timed out
smp-n102.crc.pitt.edu.363253hfi_wait_for_device: The /dev/hfi1_0 device failed to appear after 15.0 seconds: Connection timed out
smp-n102.crc.pitt.edu.363255hfi_wait_for_device: The /dev/hfi1_0 device failed to appear after 15.0 seconds: Connection timed out
smp-n102.crc.pitt.edu.363256hfi_wait_for_device: The /dev/hfi1_0 device failed to appear after 15.0 seconds: Connection timed out
smp-n102.crc.pitt.edu.363246hfi_wait_for_device: The /dev/hfi1_0 device failed to appear after 15.0 seconds: Connection timed out
smp-n102.crc.pitt.edu.363254hfi_wait_for_device: The /dev/hfi1_0 device failed to appear after 15.0 seconds: Connection timed out

Timings for individual modules:

Sum of individual times         ...     1169.983 sec (=  19.500 min)
GTO integral calculation        ...      386.348 sec (=   6.439 min)  33.0 %
SCF iterations                  ...      409.427 sec (=   6.824 min)  35.0 %
SCF Gradient evaluation         ...      373.744 sec (=   6.229 min)  31.9 %
Geometry relaxation             ...        0.463 sec (=   0.008 min)   0.0 %
                             ****ORCA TERMINATED NORMALLY****
TOTAL RUN TIME: 0 days 0 hours 19 minutes 46 seconds 401 msec
cp: cannot stat ‘/scratch/slurm-1318607/*.{prop}’: No such file or directory
