
                                 *****************
                                 * O   R   C   A *
                                 *****************

           --- An Ab Initio, DFT and Semiempirical electronic structure package ---

                  #######################################################
                  #                        -***-                        #
                  #  Department of molecular theory and spectroscopy    #
                  #              Directorship: Frank Neese              #
                  # Max Planck Institute for Chemical Energy Conversion #
                  #                  D-45470 Muelheim/Ruhr              #
                  #                       Germany                       #
                  #                                                     #
                  #                  All rights reserved                #
                  #                        -***-                        #
                  #######################################################


                         Program Version 3.0.3 - RELEASE   -


 With contributions from (in alphabetic order):
   Ute Becker             : Parallelization
   Dmytro Bykov           : SCF Hessian
   Dmitry Ganyushin       : Spin-Orbit,Spin-Spin,Magnetic field MRCI
   Andreas Hansen         : Spin unrestricted coupled pair/coupled cluster methods
   Dimitrios Liakos       : Extrapolation schemes; parallel MDCI
   Robert Izsak           : Overlap fitted RIJCOSX, COSX-SCS-MP3
   Christian Kollmar      : KDIIS, OOCD, Brueckner-CCSD(T), CCSD density
   Simone Kossmann        : Meta GGA functionals, TD-DFT gradient, OOMP2, MP2 Hessian
   Taras Petrenko         : DFT Hessian,TD-DFT gradient, ASA and ECA modules, normal mode analysis, Resonance Raman, ABS, FL, XAS/XES, NRVS
   Christoph Reimann      : Effective Core Potentials
   Michael Roemelt        : Restricted open shell CIS
   Christoph Riplinger    : Improved optimizer, TS searches, QM/MM, DLPNO-CCSD
   Barbara Sandhoefer     : DKH picture change effects
   Igor Schapiro          : Molecular dynamics
   Kantharuban Sivalingam : CASSCF convergence, NEVPT2
   Boris Wezisla          : Elementary symmetry handling
   Frank Wennmohs         : Technical directorship


 We gratefully acknowledge several colleagues who have allowed us to
 interface, adapt or use parts of their codes:
   Stefan Grimme, W. Hujo, H. Kruse, T. Risthaus : VdW corrections, initial TS optimization,
                                                   DFT functionals, gCP
   Ed Valeev                                     : LibInt (2-el integral package), F12 methods
   Garnet Chan, S. Sharma, R. Olivares           : DMRG
   Ulf Ekstrom                                   : XCFun DFT Library
   Mihaly Kallay                                 : mrcc  (arbitrary order and MRCC methods)
   Andreas Klamt, Michael Diedenhofen            : otool_cosmo (COSMO solvation model)
   Frank Weinhold                                : gennbo (NPA and NBO analysis)
   Christopher J. Cramer and Donald G. Truhlar   : smd solvation model


 Your calculation uses the libint2 library for the computation of 2-el integrals
 For citations please refer to: http://libint.valeyev.net

 This ORCA versions uses:
   CBLAS   interface :  Fast vector & matrix operations
   LAPACKE interface :  Fast linear algebra routines
   SCALAPACK package :  Parallel linear algebra routines


Your calculation utilizes the basis: Ahlrichs-VDZ
Cite in your paper:
H - Kr: A. Schaefer, H. Horn and R. Ahlrichs, J. Chem. Phys. 97, 2571 (1992).

Your calculation utilizes the basis: Ahlrichs SVPalls1+f
Cite in your paper:
Rb - Xe: A. Schaefer, C. Huber and R. Ahlrichs, J. Chem. Phys. 100, 5829 (1994).

Your calculation utilizes the atom-pairwise dispersion correction
with the Becke-Johnson damping scheme (D3BJ)
Cite in your paper:
S.Grimme, S.Ehrlich, L.Goerigk, J Comput Chem, (2011), 32, 1456–1465 
S.Grimme, J.Antony, S.Ehrlich and H.Krieg, J.Chem.Phys., 132, (2010), 154104 
   

================================================================================
                                        WARNINGS
                       Please study these warnings very carefully!
================================================================================

WARNING: The RI method has been chosen with no auxiliary basis (AUX or GTOAUX in BASIS block)
        Standard SV/J expansion basis used (GTOAUX=VDZ_J)

Now building the actual basis set

WARNING: Geometry Optimization
  ===> : Switching off AutoStart
         For restart on a previous wavefunction, please use MOREAD


INFO   : the flag for use of LIBINT has been found!

================================================================================
                                       INPUT FILE
================================================================================
NAME = 2_BP86_SMD_2_h2o_rst.inp
|  1> ! BP86 Def2-SVP TightSCF Opt D3BJ COSMO
|  2> 
|  3> %pal nprocs 12 end
|  4> 
|  5> %scf
|  6>         maxiter 800
|  7> end
|  8> 
|  9> %cosmo
| 10> 	SMD true
| 11>         solvent "WATER"
| 12> end
| 13> 
| 14> * xyz  0  1
| 15>   O      1.166275   -0.476042    1.026492
| 16>   H      0.473738   -0.199145    0.426532
| 17>   H      1.970635   -0.408638    0.512007
| 18>   O     -0.891056    0.264661   -0.667138
| 19>   H     -1.164833    1.016691   -1.192237
| 20>   H     -1.705046   -0.082099   -0.301885
| 21> **                         ****END OF INPUT****
================================================================================

                       *****************************
                       * Geometry Optimization Run *
                       *****************************

Geometry optimization settings:
Update method            Update   .... BFGS
Choice of coordinates    CoordSys .... Redundant Internals
Initial Hessian          InHess   .... Almoef's Model

Convergence Tolerances:
Energy Change            TolE     ....  5.0000e-06 Eh
Max. Gradient            TolMAXG  ....  3.0000e-04 Eh/bohr
RMS Gradient             TolRMSG  ....  1.0000e-04 Eh/bohr
Max. Displacement        TolMAXD  ....  4.0000e-03 bohr
RMS Displacement         TolRMSD  ....  2.0000e-03 bohr

------------------------------------------------------------------------------
                        ORCA OPTIMIZATION COORDINATE SETUP
------------------------------------------------------------------------------

The optimization will be done in new redundant internal coordinates
Making redundant internal coordinates   ...  (new redundants) done
Evaluating the initial hessian          ...  (Almloef) done
Evaluating the coordinates              ...  done
Calculating the B-matrix                .... done
Calculating the G-matrix                .... done
Diagonalizing the G-matrix              .... done
The first mode is                       ....    7
The number of degrees of freedom        ....   12

    -----------------------------------------------------------------
                    Redundant Internal Coordinates


    -----------------------------------------------------------------
         Definition                    Initial Value    Approx d2E/dq
    -----------------------------------------------------------------
      1. B(H   1,O   0)                  0.9572         0.525333   
      2. B(H   2,O   0)                  0.9572         0.525331   
      3. B(O   3,H   1)                  1.8094         0.022952   
      4. B(H   4,O   3)                  0.9572         0.525332   
      5. B(H   5,H   1)                  2.3003         0.000808   
      6. B(H   5,O   3)                  0.9572         0.525332   
      7. A(H   1,O   0,H   2)          104.5199         0.322920   
      8. A(O   0,H   1,H   5)          153.9591         0.132688   
      9. A(O   3,H   1,H   5)           23.2366         0.110510   
     10. A(H   1,O   3,H   4)          138.4789         0.204169   
     11. A(H   1,O   3,H   5)          108.5376         0.204169   
     12. A(H   4,O   3,H   5)          104.5200         0.322920   
     13. A(H   1,H   5,O   3)           48.2258         0.132688   
     14. D(H   5,H   1,O   0,H   2)    159.0456         0.355143   
     15. D(H   5,O   3,O   0,H   2)    160.1444         0.001501   
     16. D(H   4,O   3,H   1,H   5)    141.0459         0.001812   
     17. D(H   4,O   3,O   0,H   2)    -59.2135         0.001501   
     18. D(H   1,H   5,O   3,H   4)   -154.5000         0.355142   
     19. D(O   3,H   5,H   1,O   0)   -178.3878         0.001506   
    -----------------------------------------------------------------

Number of atoms                         .... 6
Number of degrees of freedom            .... 19

         *************************************************************
         *                GEOMETRY OPTIMIZATION CYCLE   1            *
         *************************************************************
---------------------------------
CARTESIAN COORDINATES (ANGSTROEM)
---------------------------------
  O      1.166275   -0.476042    1.026492
  H      0.473738   -0.199145    0.426532
  H      1.970635   -0.408638    0.512007
  O     -0.891056    0.264661   -0.667138
  H     -1.164833    1.016691   -1.192237
  H     -1.705046   -0.082099   -0.301885

----------------------------
CARTESIAN COORDINATES (A.U.)
----------------------------
  NO LB      ZA    FRAG    MASS        X           Y           Z
   0 O     8.0000    0    15.999          2.203940346839008         -0.899589008244141          1.939788758661093
   1 H     1.0000    0     1.008          0.895235079231586         -0.376329510939748          0.806028667353699
   2 H     1.0000    0     1.008          3.723960459919906         -0.772213907913312          0.967553008650618
   3 O     8.0000    0    15.999         -1.683851809987335          0.500136808329732         -1.260708113531956
   4 H     1.0000    0     1.008         -2.201215361753893          1.921267552822531         -2.253001416727871
   5 H     1.0000    0     1.008         -3.222069985737895         -0.155144625868801         -0.570479973938817

--------------------------------
INTERNAL COORDINATES (ANGSTROEM)
--------------------------------
 O      0   0   0   0.000000     0.000     0.000
 H      1   0   0   0.957200     0.000     0.000
 H      1   2   0   0.957201   104.520     0.000
 O      2   1   3   1.809390   177.117   146.298
 H      4   2   1   0.957200   138.479   155.259
 H      4   2   1   0.957200   108.538    14.213

---------------------------
INTERNAL COORDINATES (A.U.)
---------------------------
 O      0   0   0   0.000000     0.000     0.000
 H      1   0   0   1.808845     0.000     0.000
 H      1   2   0   1.808847   104.520     0.000
 O      2   1   3   3.419252   177.117   146.298
 H      4   2   1   1.808846   138.479   155.259
 H      4   2   1   1.808846   108.538    14.213

---------------------
BASIS SET INFORMATION
---------------------
There are 2 groups of distinct atoms

 Group   1 Type O   : 7s4p1d contracted to 3s2p1d pattern {511/31/1}
 Group   2 Type H   : 4s1p contracted to 2s1p pattern {31/1}

Atom   0O    basis set group =>   1
Atom   1H    basis set group =>   2
Atom   2H    basis set group =>   2
Atom   3O    basis set group =>   1
Atom   4H    basis set group =>   2
Atom   5H    basis set group =>   2
-------------------------------
AUXILIARY BASIS SET INFORMATION
-------------------------------
There are 2 groups of distinct atoms

 Group   1 Type O   : 12s5p4d2f1g contracted to 6s4p3d1f1g pattern {711111/2111/211/2/1}
 Group   2 Type H   : 5s2p1d contracted to 3s1p1d pattern {311/2/1}

Atom   0O    basis set group =>   1
Atom   1H    basis set group =>   2
Atom   2H    basis set group =>   2
Atom   3O    basis set group =>   1
Atom   4H    basis set group =>   2
Atom   5H    basis set group =>   2
smp-n95.crc.pitt.edu.294971hfi_wait_for_device: The /dev/hfi1_0 device failed to appear after 15.0 seconds: Connection timed out
smp-n95.crc.pitt.edu.294985hfi_wait_for_device: The /dev/hfi1_0 device failed to appear after 15.0 seconds: Connection timed out
smp-n95.crc.pitt.edu.294989hfi_wait_for_device: The /dev/hfi1_0 device failed to appear after 15.0 seconds: Connection timed out
smp-n95.crc.pitt.edu.294970hfi_wait_for_device: The /dev/hfi1_0 device failed to appear after 15.0 seconds: Connection timed out
smp-n95.crc.pitt.edu.294975hfi_wait_for_device: The /dev/hfi1_0 device failed to appear after 15.0 seconds: Connection timed out
smp-n95.crc.pitt.edu.294978hfi_wait_for_device: The /dev/hfi1_0 device failed to appear after 15.0 seconds: Connection timed out
smp-n95.crc.pitt.edu.294983hfi_wait_for_device: The /dev/hfi1_0 device failed to appear after 15.0 seconds: Connection timed out
smp-n95.crc.pitt.edu.294976hfi_wait_for_device: The /dev/hfi1_0 device failed to appear after 15.0 seconds: Connection timed out
smp-n95.crc.pitt.edu.294980hfi_wait_for_device: The /dev/hfi1_0 device failed to appear after 15.0 seconds: Connection timed out
smp-n95.crc.pitt.edu.294972hfi_wait_for_device: The /dev/hfi1_0 device failed to appear after 15.0 seconds: Connection timed out
smp-n95.crc.pitt.edu.294984hfi_wait_for_device: The /dev/hfi1_0 device failed to appear after 15.0 seconds: Connection timed out
smp-n95.crc.pitt.edu.294986hfi_wait_for_device: The /dev/hfi1_0 device failed to appear after 15.0 seconds: Connection timed out


           ************************************************************
           *        Program running with 12 parallel MPI-processes    *
           *              working on a common directory               *
           ************************************************************
------------------------------------------------------------------------------
                           ORCA GTO INTEGRAL CALCULATION
                           -- RI-GTO INTEGRALS CHOSEN --
------------------------------------------------------------------------------

                         BASIS SET STATISTICS AND STARTUP INFO

Gaussian basis set:
 # of primitive gaussian shells          ...   44
 # of primitive gaussian functions       ...   76
 # of contracted shells                  ...   24
 # of contracted basis functions         ...   48
 Highest angular momentum                ...    2
 Maximum contraction depth               ...    5
Auxiliary gaussian basis set:
 # of primitive gaussian shells          ...   80
 # of primitive gaussian functions       ...  204
 # of contracted shells                  ...   50
 # of contracted aux-basis functions     ...  142
 Highest angular momentum                ...    4
 Maximum contraction depth               ...    7
Ratio of auxiliary to basis functions    ...  2.96
Integral package used                  ... LIBINT
 One Electron integrals                  ... done
 Ordering auxiliary basis shells         ... done
 Integral threshhold             Thresh  ...  2.500e-11
 Primitive cut-off               TCut    ...  2.500e-12
 Pre-screening matrix                    ... done
 Shell pair data                         ... 
 Ordering of the shell pairs             ... done (   0.000 sec) 298 of 300 pairs
 Determination of significant pairs      ... done (   0.000 sec)
 Creation of shell pair data             ... done (   0.000 sec)
 Storage of shell pair data              ... done (   0.000 sec)
 Shell pair data done in (   0.000 sec)
 Computing two index integrals           ... done
 Cholesky decomposition of the V-matrix  ... done


Timings:
 Total evaluation time                   ...   0.313 sec (  0.005 min)
 One electron matrix time                ...   0.110 sec (  0.002 min) = 35.0%
 Schwartz matrix evaluation time         ...   0.077 sec (  0.001 min) = 24.7%
 Two index repulsion integral time       ...   0.091 sec (  0.002 min) = 29.2%
 Cholesky decomposition of V             ...   0.020 sec (  0.000 min) =  6.4%
 Three index repulsion integral time     ...   0.000 sec (  0.000 min) =  0.0%

           ************************************************************
           *              Shut down parallel processing               *
           ************************************************************
smp-n95.crc.pitt.edu.295012hfi_wait_for_device: The /dev/hfi1_0 device failed to appear after 15.0 seconds: Connection timed out
smp-n95.crc.pitt.edu.295016hfi_wait_for_device: The /dev/hfi1_0 device failed to appear after 15.0 seconds: Connection timed out
smp-n95.crc.pitt.edu.295018hfi_wait_for_device: The /dev/hfi1_0 device failed to appear after 15.0 seconds: Connection timed out
smp-n95.crc.pitt.edu.295024hfi_wait_for_device: The /dev/hfi1_0 device failed to appear after 15.0 seconds: Connection timed out
smp-n95.crc.pitt.edu.295028hfi_wait_for_device: The /dev/hfi1_0 device failed to appear after 15.0 seconds: Connection timed out
smp-n95.crc.pitt.edu.295008hfi_wait_for_device: The /dev/hfi1_0 device failed to appear after 15.0 seconds: Connection timed out
smp-n95.crc.pitt.edu.295007hfi_wait_for_device: The /dev/hfi1_0 device failed to appear after 15.0 seconds: Connection timed out
smp-n95.crc.pitt.edu.295013hfi_wait_for_device: The /dev/hfi1_0 device failed to appear after 15.0 seconds: Connection timed out
smp-n95.crc.pitt.edu.295017hfi_wait_for_device: The /dev/hfi1_0 device failed to appear after 15.0 seconds: Connection timed out
smp-n95.crc.pitt.edu.295009hfi_wait_for_device: The /dev/hfi1_0 device failed to appear after 15.0 seconds: Connection timed out
smp-n95.crc.pitt.edu.295019hfi_wait_for_device: The /dev/hfi1_0 device failed to appear after 15.0 seconds: Connection timed out
smp-n95.crc.pitt.edu.295025hfi_wait_for_device: The /dev/hfi1_0 device failed to appear after 15.0 seconds: Connection timed out


           ************************************************************
           *        Program running with 12 parallel MPI-processes    *
           *              working on a common directory               *
           ************************************************************
-------------------------------------------------------------------------------
                                 ORCA SCF
-------------------------------------------------------------------------------

------------
SCF SETTINGS
------------
Hamiltonian:
 Density Functional     Method          .... DFT(GTOs)
 Exchange Functional    Exchange        .... B88
   X-Alpha parameter    XAlpha          ....  0.666667
   Becke's b parameter  XBeta           ....  0.004200
 Correlation Functional Correlation     .... P86
 LDA part of GGA corr.  LDAOpt          .... PW91-LDA
 Gradients option       PostSCFGGA      .... off
 RI-approximation to the Coulomb term is turned on
   Number of auxiliary basis functions  .... 142


General Settings:
 Integral files         IntName         .... 2_BP86_SMD_2_h2o_rst
 Hartree-Fock type      HFTyp           .... RHF
 Total Charge           Charge          ....    0
 Multiplicity           Mult            ....    1
 Number of Electrons    NEL             ....   20
 Basis Dimension        Dim             ....   48
 Nuclear Repulsion      ENuc            ....     37.5433623720 Eh

Convergence Acceleration:
 DIIS                   CNVDIIS         .... on
   Start iteration      DIISMaxIt       ....    12
   Startup error        DIISStart       ....  0.200000
   # of expansion vecs  DIISMaxEq       ....     5
   Bias factor          DIISBfac        ....   1.050
   Max. coefficient     DIISMaxC        ....  10.000
 Newton-Raphson         CNVNR           .... off
 SOSCF                  CNVSOSCF        .... on
   Start iteration      SOSCFMaxIt      ....   150
   Startup grad/error   SOSCFStart      ....  0.003300
 Level Shifting         CNVShift        .... on
   Level shift para.    LevelShift      ....    0.2500
   Turn off err/grad.   ShiftErr        ....    0.0010
 Zerner damping         CNVZerner       .... off
 Static damping         CNVDamp         .... on
   Fraction old density DampFac         ....    0.7000
   Max. Damping (<1)    DampMax         ....    0.9800
   Min. Damping (>=0)   DampMin         ....    0.0000
   Turn off err/grad.   DampErr         ....    0.1000
 Fernandez-Rico         CNVRico         .... off

SCF Procedure:
 Maximum # iterations   MaxIter         ....   800
 SCF integral mode      SCFMode         .... Direct
   Integral package                     .... LIBINT
 Reset frequeny         DirectResetFreq ....    20
 Integral Threshold     Thresh          ....  2.500e-11 Eh
 Primitive CutOff       TCut            ....  2.500e-12 Eh

Convergence Tolerance:
 Convergence Check Mode ConvCheckMode   .... Total+1el-Energy
 Energy Change          TolE            ....  1.000e-08 Eh
 1-El. energy change                    ....  1.000e-05 Eh
 Orbital Gradient       TolG            ....  1.000e-05
 Orbital Rotation angle TolX            ....  1.000e-05
 DIIS Error             TolErr          ....  5.000e-07


Diagonalization of the overlap matrix:
Smallest eigenvalue                        ... 2.825e-02
Time for diagonalization                   ...    0.001 sec
Threshold for overlap eigenvalues          ... 1.000e-08
Number of eigenvalues below threshold      ... 0
Time for construction of square roots      ...    0.015 sec
Total time needed                          ...    0.015 sec

-------------------
DFT GRID GENERATION
-------------------

General Integration Accuracy     IntAcc      ...  4.340
Radial Grid Type                 RadialGrid  ... Gauss-Chebyshev
Angular Grid (max. acc.)         AngularGrid ... Lebedev-110
Angular grid pruning method      GridPruning ... 3 (G Style)
Weight generation scheme         WeightScheme... Becke
Basis function cutoff            BFCut       ...    1.0000e-11
Integration weight cutoff        WCut        ...    1.0000e-14
Grids for H and He will be reduced by one unit

# of grid points (after initial pruning)     ...   6608 (   0.0 sec)
# of grid points (after weights+screening)   ...   6481 (   0.1 sec)
nearest neighbour list constructed           ...    0.0 sec
Grid point re-assignment to atoms done       ...    0.0 sec
Grid point division into batches done        ...    0.0 sec
Reduced shell lists constructed in    0.0 sec

Total number of grid points                  ...     6481
Total number of batches                      ...      104
Average number of points per batch           ...       62
Average number of grid points per atom       ...     1080
Average number of shells per batch           ...    16.30 (67.92%)
Average number of basis functions per batch  ...    29.90 (62.29%)
Average number of large shells per batch     ...    12.70 (77.91%)
Average number of large basis fcns per batch ...    23.10 (77.26%)
Maximum spatial batch extension              ...  14.83, 15.12, 16.03 au
Average spatial batch extension              ...   0.54,  0.66,  0.60 au

Time for grid setup =    0.259 sec

------------------------------
INITIAL GUESS: MODEL POTENTIAL
------------------------------
Loading Hartree-Fock densities                     ... done
Calculating cut-offs                               ... done
Setting up the integral package                    ... done
Initializing the effective Hamiltonian             ... done
Starting the Coulomb interaction                   ... done (   0.0 sec)
Reading the grid                                   ... done
Mapping shells                                     ... done
Starting the XC term evaluation                    ... done (   0.0 sec)
  promolecular density results
     # of electrons  =     19.992896097
     EX              =    -17.577814756
     EC              =     -0.712349608
     EX+EC           =    -18.290164364
Transforming the Hamiltonian                       ... done (   0.0 sec)
Diagonalizing the Hamiltonian                      ... done (   0.0 sec)
Back transforming the eigenvectors                 ... done (   0.0 sec)
Now organizing SCF variables                       ... done
                      ------------------
                      INITIAL GUESS DONE (   0.4 sec)
                      ------------------

--------------------
COSMO INITIALIZATION
--------------------

Epsilon                                      ...   78.3550
Refractive Index                             ...    1.3300
Potential Evaluation                         ...  ANALYTIC
Technical COSMO parameters:
  rsolv                                      ...    1.3000
  routf                                      ...    0.8500
  disex                                      ...   10.0000
  nppa                                       ... 1082   
  nspa                                       ...   92   
Solvent:                                     ... WATER
Solvent:                                     ... WATER
SMD-CDS solvent descriptors:
  Soln                                       ...    1.3328
  Soln25                                     ...    1.3323
  Sola                                       ...    0.0000
  Solb                                       ...    0.0000
  Solg                                       ...    0.0000
  Solc                                       ...    0.0000
  Solh                                       ...    0.0000
Radii:
 Radius for O  used is    2.8724 Bohr (=   1.5200 Ang.)
 Radius for H  used is    2.2677 Bohr (=   1.2000 Ang.)
Initializing COSMO package            ... done
Setting COSMO radii                   ... done
Setting atoms and making cavity       ...  USING 1082 GRID
done
Cholesky decomposition of A           ... done
--------------
SCF ITERATIONS
--------------
ITER       Energy         Delta-E        Max-DP      RMS-DP      [F,P]     Damp
               ***  Starting incremental Fock matrix formation  ***
  0   -152.6075925338   0.000000000000 0.09382662  0.00631568  0.2950447 0.7000
  1   -152.6823052428  -0.074712708979 0.04923899  0.00332107  0.1141526 0.7000
                               ***Turning on DIIS***
  2   -152.7048000186  -0.022494775752 0.04517270  0.00311809  0.0196996 0.0000
  3   -152.7480284462  -0.043228427671 0.02513563  0.00180744  0.0635471 0.0000
  4   -152.7547261693  -0.006697723035 0.00577487  0.00043551  0.0129155 0.0000
                      *** Initiating the SOSCF procedure ***
                           *** Shutting down DIIS ***
                      *** Re-Reading the Fockian *** 
                      *** Removing any level shift *** 
ITER      Energy       Delta-E        Grad      Rot      Max-DP    RMS-DP
  5   -152.75500589  -0.0002797218  0.000901  0.000901  0.001690  0.000133
               *** Restarting incremental Fock matrix formation ***
  6   -152.75501854  -0.0000126499  0.000425  0.000904  0.001622  0.000110
  7   -152.75501653   0.0000020087  0.000798  0.000316  0.000985  0.000056
  8   -152.75502101  -0.0000044812  0.000030  0.000058  0.000092  0.000006
  9   -152.75502101   0.0000000031  0.000043  0.000023  0.000050  0.000003
                  ***Gradient check signals convergence***
              ***Rediagonalizing the Fockian in SOSCF/NRSCF***

               *****************************************************
               *                     SUCCESS                       *
               *           SCF CONVERGED AFTER  10 CYCLES          *
               *****************************************************

Setting up the final grid:

General Integration Accuracy     IntAcc      ...  4.670
Radial Grid Type                 RadialGrid  ... Gauss-Chebyshev
Angular Grid (max. acc.)         AngularGrid ... Lebedev-302
Angular grid pruning method      GridPruning ... 3 (G Style)
Weight generation scheme         WeightScheme... Becke
Basis function cutoff            BFCut       ...    1.0000e-11
Integration weight cutoff        WCut        ...    1.0000e-14
Grids for H and He will be reduced by one unit

# of grid points (after initial pruning)     ...  26000 (   0.0 sec)
# of grid points (after weights+screening)   ...  25409 (   0.2 sec)
nearest neighbour list constructed           ...    0.0 sec
Grid point re-assignment to atoms done       ...    0.0 sec
Grid point division into batches done        ...    0.1 sec
Reduced shell lists constructed in    0.1 sec

Total number of grid points                  ...    25409
Total number of batches                      ...      399
Average number of points per batch           ...       63
Average number of grid points per atom       ...     4235
Average number of shells per batch           ...    13.60 (56.67%)
Average number of basis functions per batch  ...    25.26 (52.62%)
Average number of large shells per batch     ...    10.57 (77.73%)
Average number of large basis fcns per batch ...    19.20 (76.02%)
Maximum spatial batch extension              ...  16.88, 13.45, 12.44 au
Average spatial batch extension              ...   0.43,  0.43,  0.41 au

Final grid set up in    0.7 sec
Final integration                            ... done (   0.2 sec)
Change in XC energy                          ...     0.000257543
Integrated number of electrons               ...    20.000003408
Previous integrated no of electrons          ...    19.999248931
   2.20090912059681      -0.955114268610338        2.03168979471148     
  3.205007341333614E-003  0.241497304996985       1.327140003228452E-002
Total Energy after outlying charge correction =   -152.755590394 Eh

SMD CDS free energy correction energy :                 2.39100     Kcal/mol
Total Energy after SMD CDS correction =              -152.750953180 Eh

----------------
TOTAL SCF ENERGY
----------------

Total Energy       :         -152.75095318 Eh           -4156.56475 eV
Total Energy       :         -152.75095318 Eh           -4156.56475 eV
COSMO(ediel)       :           -0.02734820 Eh              -0.74418 eV
SMD CDS (Gcds)     :            0.00381030 Eh               0.10368 eV

Components:
Nuclear Repulsion  :           37.54336237 Eh            1021.60683 eV
Electronic Energy  :         -190.29431555 Eh           -5178.17158 eV

One Electron Energy:         -284.65928427 Eh           -7745.97292 eV
Two Electron Energy:           94.36496872 Eh            2567.80134 eV

Virial components:
Potential Energy   :         -304.35686278 Eh           -8281.97128 eV
Kinetic Energy     :          151.60590960 Eh            4125.40653 eV
Virial Ratio       :            2.00755276


DFT components:
N(Alpha)           :       10.000001704007 electrons
N(Beta)            :       10.000001704007 electrons
N(Total)           :       20.000003408013 electrons
E(X)               :      -17.993772400866 Eh       
E(C)               :       -0.734763307386 Eh       
E(XC)              :      -18.728535708252 Eh       

---------------
SCF CONVERGENCE
---------------

  Last Energy change         ...   -1.2572e-08  Tolerance :   1.0000e-08
  Last MAX-Density change    ...    7.0200e-06  Tolerance :   1.0000e-07
  Last RMS-Density change    ...    5.9951e-07  Tolerance :   5.0000e-09
  Last Orbital Gradient      ...    2.1352e-06  Tolerance :   1.0000e-05
  Last Orbital Rotation      ...    6.2420e-06  Tolerance :   1.0000e-05

             **** THE GBW FILE WAS UPDATED (2_BP86_SMD_2_h2o_rst.gbw) ****
             **** DENSITY FILE WAS UPDATED (2_BP86_SMD_2_h2o_rst.scfp.tmp) ****
             **** ENERGY FILE WAS UPDATED (2_BP86_SMD_2_h2o_rst.en.tmp) ****
----------------
ORBITAL ENERGIES
----------------

  NO   OCC          E(Eh)            E(eV) 
   0   2.0000     -18.775069      -510.8956 
   1   2.0000     -18.741627      -509.9856 
   2   2.0000      -0.909545       -24.7500 
   3   2.0000      -0.879236       -23.9252 
   4   2.0000      -0.474446       -12.9103 
   5   2.0000      -0.450459       -12.2576 
   6   2.0000      -0.345398        -9.3988 
   7   2.0000      -0.298813        -8.1311 
   8   2.0000      -0.256340        -6.9754 
   9   2.0000      -0.229879        -6.2553 
  10   0.0000       0.044834         1.2200 
  11   0.0000       0.090884         2.4731 
  12   0.0000       0.132576         3.6076 
  13   0.0000       0.218953         5.9580 
  14   0.0000       0.515509        14.0277 
  15   0.0000       0.528677        14.3860 
  16   0.0000       0.594348        16.1730 
  17   0.0000       0.603228        16.4147 
  18   0.0000       0.813443        22.1349 
  19   0.0000       0.846023        23.0215 
  20   0.0000       0.876688        23.8559 
  21   0.0000       0.919963        25.0335 
  22   0.0000       0.974985        26.5307 
  23   0.0000       0.995938        27.1008 
  24   0.0000       1.034095        28.1391 
  25   0.0000       1.249113        33.9901 
  26   0.0000       1.293959        35.2104 
  27   0.0000       1.307108        35.5682 
  28   0.0000       1.358900        36.9776 
  29   0.0000       1.439091        39.1597 
  30   0.0000       1.508739        41.0549 
  31   0.0000       1.542427        41.9716 
  32   0.0000       1.717270        46.7293 
  33   0.0000       1.799152        48.9574 
  34   0.0000       2.150437        58.5164 
  35   0.0000       2.188428        59.5502 
  36   0.0000       2.194855        59.7250 
  37   0.0000       2.416037        65.7437 
  38   0.0000       2.863039        77.9073 
  39   0.0000       2.882679        78.4417 
  40   0.0000       2.907379        79.1138 
  41   0.0000       2.934563        79.8535 
  42   0.0000       3.092086        84.1399 
  43   0.0000       3.118243        84.8517 
  44   0.0000       3.411342        92.8273 
  45   0.0000       3.440395        93.6179 
  46   0.0000       3.733549       101.5950 
  47   0.0000       3.759055       102.2891 

                    ********************************
                    * MULLIKEN POPULATION ANALYSIS *
                    ********************************

-----------------------
MULLIKEN ATOMIC CHARGES
-----------------------
   0 O :   -0.395517
   1 H :    0.122378
   2 H :    0.182836
   3 O :   -0.310077
   4 H :    0.198693
   5 H :    0.201688
Sum of atomic charges:    0.0000000

--------------------------------
MULLIKEN REDUCED ORBITAL CHARGES
--------------------------------
  0 O s       :     3.651934  s :     3.651934
      pz      :     1.603855  p :     4.734572
      px      :     1.214771
      py      :     1.915946
      dz2     :     0.001029  d :     0.009012
      dxz     :     0.005433
      dyz     :     0.001332
      dx2y2   :     0.000712
      dxy     :     0.000506
  1 H s       :     0.804662  s :     0.804662
      pz      :     0.024140  p :     0.072960
      px      :     0.029190
      py      :     0.019631
  2 H s       :     0.749154  s :     0.749154
      pz      :     0.020172  p :     0.068010
      px      :     0.029785
      py      :     0.018053
  3 O s       :     3.661066  s :     3.661066
      pz      :     1.674700  p :     4.640427
      px      :     1.453143
      py      :     1.512585
      dz2     :     0.000621  d :     0.008583
      dxz     :     0.002006
      dyz     :     0.001235
      dx2y2   :     0.002548
      dxy     :     0.002173
  4 H s       :     0.732585  s :     0.732585
      pz      :     0.023278  p :     0.068721
      px      :     0.016131
      py      :     0.029312
  5 H s       :     0.729600  s :     0.729600
      pz      :     0.020822  p :     0.068713
      px      :     0.028250
      py      :     0.019641


                     *******************************
                     * LOEWDIN POPULATION ANALYSIS *
                     *******************************

----------------------
LOEWDIN ATOMIC CHARGES
----------------------
   0 O :   -0.203171
   1 H :    0.020770
   2 H :    0.084515
   3 O :   -0.105836
   4 H :    0.102104
   5 H :    0.101619

-------------------------------
LOEWDIN REDUCED ORBITAL CHARGES
-------------------------------
  0 O s       :     3.410079  s :     3.410079
      pz      :     1.640989  p :     4.775888
      px      :     1.278709
      py      :     1.856191
      dz2     :     0.000433  d :     0.017205
      dxz     :     0.011655
      dyz     :     0.001164
      dx2y2   :     0.002799
      dxy     :     0.001154
  1 H s       :     0.768005  s :     0.768005
      pz      :     0.075845  p :     0.211225
      px      :     0.074475
      py      :     0.060905
  2 H s       :     0.734616  s :     0.734616
      pz      :     0.059095  p :     0.180869
      px      :     0.068304
      py      :     0.053471
  3 O s       :     3.395516  s :     3.395516
      pz      :     1.651267  p :     4.693150
      px      :     1.514487
      py      :     1.527397
      dz2     :     0.000872  d :     0.017171
      dxz     :     0.003680
      dyz     :     0.003833
      dx2y2   :     0.004732
      dxy     :     0.004054
  4 H s       :     0.718638  s :     0.718638
      pz      :     0.062282  p :     0.179258
      px      :     0.041760
      py      :     0.075216
  5 H s       :     0.718746  s :     0.718746
      pz      :     0.052254  p :     0.179635
      px      :     0.082454
      py      :     0.044927


                      *****************************
                      * MAYER POPULATION ANALYSIS *
                      *****************************

  NA   - Mulliken gross atomic population
  ZA   - Total nuclear charge
  QA   - Mulliken gross atomic charge
  VA   - Mayer's total valence
  BVA  - Mayer's bonded valence
  FA   - Mayer's free valence

  ATOM       NA         ZA         QA         VA         BVA        FA
  0 O      8.3955     8.0000    -0.3955     1.9612     1.9612    -0.0000
  1 H      0.8776     1.0000     0.1224     1.1229     1.1229    -0.0000
  2 H      0.8172     1.0000     0.1828     0.9976     0.9976    -0.0000
  3 O      8.3101     8.0000    -0.3101     2.1244     2.1244     0.0000
  4 H      0.8013     1.0000     0.1987     0.9956     0.9956     0.0000
  5 H      0.7983     1.0000     0.2017     0.9900     0.9900     0.0000

  Mayer bond orders larger than 0.1
B(  0-O ,  1-H ) :   0.9542 B(  0-O ,  2-H ) :   0.9941 B(  1-H ,  3-O ) :   0.1600 
B(  3-O ,  4-H ) :   0.9789 B(  3-O ,  5-H ) :   0.9789 

-------
TIMINGS
-------

Total SCF time: 0 days 0 hours 0 min 15 sec 

Total time                  ....      15.334 sec
Sum of individual times     ....      18.835 sec  (122.8%)

Fock matrix formation       ....      10.900 sec  ( 71.1%)
  Coulomb formation         ....       9.086 sec  ( 83.4% of F)
  Split-RI-J                ....       2.967 sec  ( 27.2% of F)
  XC integration            ....       0.987 sec  (  9.1% of F)
    Basis function eval.    ....       0.012 sec  (  1.2% of XC)
    Density eval.           ....       0.019 sec  (  1.9% of XC)
    XC-Functional eval.     ....       0.007 sec  (  0.7% of XC)
    XC-Potential eval.      ....       0.007 sec  (  0.7% of XC)
Diagonalization             ....       0.264 sec  (  1.7%)
Density matrix formation    ....       0.687 sec  (  4.5%)
Population analysis         ....       0.001 sec  (  0.0%)
Initial guess               ....       0.437 sec  (  2.8%)
Orbital Transformation      ....       0.000 sec  (  0.0%)
Orbital Orthonormalization  ....       0.000 sec  (  0.0%)
DIIS solution               ....       0.068 sec  (  0.4%)
SOSCF solution              ....       0.328 sec  (  2.1%)
Grid generation             ....       0.941 sec  (  6.1%)
COSMO(total)                ....       5.209 sec  ( 34.0%)
   Initialization           ....       0.491 sec  (  9.4% of COSMO)
   Potential evaluation     ....       1.824 sec  ( 35.0% of COSMO)
   Charge calculation       ....       0.451 sec  (  8.7% of COSMO)
   Fock-Matrix contrib.     ....       1.736 sec  ( 33.3% of COSMO)
   Outer-lying charge       ....       0.201 sec  (  3.9% of COSMO)
           ************************************************************
           *              Shut down parallel processing               *
           ************************************************************

Entering the calculation of the dispersion correction...

Checking the input atom types...

Done


-------------------------------------------------------------------------------
                          DFT DISPERSION CORRECTION                            
                                                                               
                                DFTD3 V2.1  Rev 6                               
                          USING Becke-Johnson damping                          
-------------------------------------------------------------------------------
The BP86 functional is recognized
Active option DFTDOPT                   ...         4   

molecular C6(AA) [au] = 178.075462 


            DFT-D V3
 parameters
 s6 scaling factor         :     1.0000 
 a1 scaling factor         :     0.3946 
 s8 scaling factor         :     3.2822 
 a2 scaling factor         :     4.8516 
 ad hoc parameters k1-k3   :    16.0000     1.3333    -4.0000 

 Edisp/kcal,au: -1.185173764186  -0.001888694413 
 E6   /kcal   :  -0.529123137 
 E8   /kcal   :  -0.656050628 
 % E8         :  55.354805124 

-------------------------   ----------------
Dispersion correction           -0.001888694
-------------------------   ----------------


-------------------------   --------------------
FINAL SINGLE POINT ENERGY      -152.752841873941
-------------------------   --------------------

smp-n95.crc.pitt.edu.295061hfi_wait_for_device: The /dev/hfi1_0 device failed to appear after 15.0 seconds: Connection timed out
smp-n95.crc.pitt.edu.295064hfi_wait_for_device: The /dev/hfi1_0 device failed to appear after 15.0 seconds: Connection timed out
smp-n95.crc.pitt.edu.295081hfi_wait_for_device: The /dev/hfi1_0 device failed to appear after 15.0 seconds: Connection timed out
smp-n95.crc.pitt.edu.295068hfi_wait_for_device: The /dev/hfi1_0 device failed to appear after 15.0 seconds: Connection timed out
smp-n95.crc.pitt.edu.295073hfi_wait_for_device: The /dev/hfi1_0 device failed to appear after 15.0 seconds: Connection timed out
smp-n95.crc.pitt.edu.295077hfi_wait_for_device: The /dev/hfi1_0 device failed to appear after 15.0 seconds: Connection timed out
smp-n95.crc.pitt.edu.295065hfi_wait_for_device: The /dev/hfi1_0 device failed to appear after 15.0 seconds: Connection timed out
smp-n95.crc.pitt.edu.295060hfi_wait_for_device: The /dev/hfi1_0 device failed to appear after 15.0 seconds: Connection timed out
smp-n95.crc.pitt.edu.295074hfi_wait_for_device: The /dev/hfi1_0 device failed to appear after 15.0 seconds: Connection timed out
smp-n95.crc.pitt.edu.295069hfi_wait_for_device: The /dev/hfi1_0 device failed to appear after 15.0 seconds: Connection timed out
smp-n95.crc.pitt.edu.295062hfi_wait_for_device: The /dev/hfi1_0 device failed to appear after 15.0 seconds: Connection timed out
smp-n95.crc.pitt.edu.295078hfi_wait_for_device: The /dev/hfi1_0 device failed to appear after 15.0 seconds: Connection timed out


           ************************************************************
           *        Program running with 12 parallel MPI-processes    *
           *              working on a common directory               *
           ************************************************************
------------------------------------------------------------------------------
                         ORCA SCF GRADIENT CALCULATION
------------------------------------------------------------------------------

smd grd 
Gradient of the Kohn-Sham DFT energy:
Kohn-Sham wavefunction type      ... RKS
Hartree-Fock exchange scaling    ...    0.000
Number of operators              ...    1
Number of atoms                  ...    6
Basis set dimensions             ...   48
Integral neglect threshold       ... 2.5e-11
Integral primitive cutoff        ... 2.5e-12

Nuclear repulsion gradient       ... done
One Electron Gradient            ... done
Pre-screening matrix             ... done
RI-J gradient                    ... done
Exchange-correlation gradient    ... done
Dispersion correction            ... 
Entering the calculation of the dispersion correction...

Checking the input atom types...

Done
done

------------------
CARTESIAN GRADIENT
------------------

   1   O   :   -0.006240227    0.011306881   -0.031374803
   2   H   :    0.019877207   -0.010843677    0.020045902
   3   H   :   -0.013897763   -0.001827295    0.011390295
   4   O   :   -0.022090646    0.011165208   -0.002379850
   5   H   :    0.005160842   -0.015547676    0.008876819
   6   H   :    0.017190586    0.005746558   -0.006558363

Norm of the cartesian gradient     ...    0.061065151
RMS gradient                       ...    0.014393194
MAX gradient                       ...    0.031374803

-------
TIMINGS
-------

Total SCF gradient time            ...        1.047 sec

One electron gradient       ....       0.029 sec  (  2.8%)
Prescreening matrices       ....       0.026 sec  (  2.5%)
RI-J Coulomb gradient       ....       0.190 sec  ( 18.1%)
XC gradient                 ....       0.073 sec  (  7.0%)
COSMO gradient              ....       0.178 sec  ( 17.0%)
   First term (A-Matrix)    ....       0.093 sec  (  8.9%)
   Second term (potential)  ....       0.085 sec  (  8.1%)
           ************************************************************
           *              Shut down parallel processing               *
           ************************************************************
------------------------------------------------------------------------------
                         ORCA GEOMETRY RELAXATION STEP
------------------------------------------------------------------------------

Reading the OPT-File                    .... done
Getting information on internals        .... done
Copying old internal coords+grads       .... done
Making the new internal coordinates     .... (new redundants).... done
Validating the new internal coordinates .... (new redundants).... done
Calculating the B-matrix                .... done
Calculating the G,G- and P matrices     .... done
Transforming gradient to internals      .... done
Projecting the internal gradient        .... done
Number of atoms                         ....   6
Number of internal coordinates          ....  19
Current Energy                          ....  -152.752841874 Eh
Current gradient norm                   ....     0.061065151 Eh/bohr
Maximum allowed component of the step   ....  0.300
Current trust radius                    ....  0.300
Evaluating the initial hessian          ....  (Almloef) done
Projecting the Hessian                  .... done
Forming the augmented Hessian           .... done
Diagonalizing the augmented Hessian     .... done
Last element of RFO vector              ....  0.995576636
Lowest eigenvalues of augmented Hessian:
 -0.003708623  0.001507563  0.012926676  0.060661791  0.126455284
Length of the computed step             ....  0.094370409
The final length of the internal step   ....  0.094370409
Converting the step to cartesian space:
 Initial RMS(Int)=    0.0216500566
Transforming coordinates:
 Iter   0:  RMS(Cart)=    0.0209852794 RMS(Int)=    0.0216255029
 Iter   1:  RMS(Cart)=    0.0001498618 RMS(Int)=    0.0001845228
 Iter   2:  RMS(Cart)=    0.0000025189 RMS(Int)=    0.0000043261
 Iter   3:  RMS(Cart)=    0.0000000653 RMS(Int)=    0.0000000935
done
Storing new coordinates                 .... done

                                .--------------------.
          ----------------------|Geometry convergence|---------------------
          Item                value                 Tolerance   Converged
          -----------------------------------------------------------------
          RMS gradient        0.00991066            0.00010000      NO
          MAX gradient        0.02983443            0.00030000      NO
          RMS step            0.02165006            0.00200000      NO
          MAX step            0.05639473            0.00400000      NO
          ....................................................
          Max(Bonds)      0.0298      Max(Angles)    0.69
          Max(Dihed)        1.22      Max(Improp)    0.00
          -----------------------------------------------------------------

The optimization has not yet converged - more geometry cycles are needed


    ---------------------------------------------------------------------------
                         Redundant Internal Coordinates
                            (Angstroem and degrees)

        Definition                    Value    dE/dq     Step     New-Value
    ----------------------------------------------------------------------------
     1. B(H   1,O   0)                0.9572 -0.029834  0.0298    0.9870   
     2. B(H   2,O   0)                0.9572 -0.017936  0.0179    0.9751   
     3. B(O   3,H   1)                1.8094  0.003668 -0.0023    1.8071   
     4. B(H   4,O   3)                0.9572 -0.018544  0.0185    0.9757   
     5. B(H   5,H   1)                2.3003 -0.004290  0.0141    2.3144   
     6. B(H   5,O   3)                0.9572 -0.015483  0.0188    0.9760   
     7. A(H   1,O   0,H   2)          104.52  0.003948   -0.69    103.83   
     8. A(O   0,H   1,H   5)          153.96  0.000042   -0.05    153.91   
     9. A(O   3,H   1,H   5)           23.24 -0.003535    0.29     23.53   
    10. A(H   1,O   3,H   4)          138.48  0.000072   -0.30    138.18   
    11. A(H   1,O   3,H   5)          108.54  0.001968    0.30    108.83   
    12. A(H   4,O   3,H   5)          104.52 -0.001305   -0.17    104.35   
    13. A(H   1,H   5,O   3)           48.23  0.001567   -0.59     47.64   
    14. D(H   5,H   1,O   0,H   2)    159.05  0.000273   -0.06    158.98   
    15. D(H   5,O   3,O   0,H   2)    160.14 -0.000249    0.93    161.07   
    16. D(H   4,O   3,H   1,H   5)    141.05  0.001293   -0.34    140.71   
    17. D(H   4,O   3,O   0,H   2)    -59.21  0.000214    0.87    -58.34   
    18. D(H   1,H   5,O   3,H   4)   -154.50 -0.000963    0.34   -154.16   
    19. D(O   3,H   5,H   1,O   0)   -178.39 -0.000268    1.22   -177.17   
    ----------------------------------------------------------------------------

         *************************************************************
         *                GEOMETRY OPTIMIZATION CYCLE   2            *
         *************************************************************
---------------------------------
CARTESIAN COORDINATES (ANGSTROEM)
---------------------------------
  O      1.180912   -0.487942    1.043119
  H      0.465085   -0.198423    0.428283
  H      1.993388   -0.405342    0.510240
  O     -0.894029    0.261861   -0.670135
  H     -1.167128    1.029690   -1.206736
  H     -1.728515   -0.084416   -0.300999

----------------------------
CARTESIAN COORDINATES (A.U.)
----------------------------
  NO LB      ZA    FRAG    MASS        X           Y           Z
   0 O     8.0000    0    15.999          2.231600411986753         -0.922076142976330          1.971209083608879
   1 H     1.0000    0     1.008          0.878882907073043         -0.374964773478615          0.809337372471025
   2 H     1.0000    0     1.008          3.766957358040345         -0.765984796673942          0.964213337058590
   3 O     8.0000    0    15.999         -1.689470358123158          0.494845035332929         -1.266371084167524
   4 H     1.0000    0     1.008         -2.205551857751372          1.945831299914967         -2.280401347329037
   5 H     1.0000    0     1.008         -3.266419732714234         -0.159523313932748         -0.568806431175167

--------------------------------
INTERNAL COORDINATES (ANGSTROEM)
--------------------------------
 O      0   0   0   0.000000     0.000     0.000
 H      1   0   0   0.987043     0.000     0.000
 H      1   2   0   0.975141   103.828     0.000
 O      2   1   3   1.807090   177.169   135.481
 H      4   2   1   0.975749   138.177   166.774
 H      4   2   1   0.975979   108.832    26.068

---------------------------
INTERNAL COORDINATES (A.U.)
---------------------------
 O      0   0   0   0.000000     0.000     0.000
 H      1   0   0   1.865240     0.000     0.000
 H      1   2   0   1.842750   103.828     0.000
 O      2   1   3   3.414905   177.169   135.481
 H      4   2   1   1.843898   138.177   166.774
 H      4   2   1   1.844333   108.832    26.068

smp-n95.crc.pitt.edu.295100hfi_wait_for_device: The /dev/hfi1_0 device failed to appear after 15.0 seconds: Connection timed out
smp-n95.crc.pitt.edu.295104hfi_wait_for_device: The /dev/hfi1_0 device failed to appear after 15.0 seconds: Connection timed out
smp-n95.crc.pitt.edu.295107hfi_wait_for_device: The /dev/hfi1_0 device failed to appear after 15.0 seconds: Connection timed out
smp-n95.crc.pitt.edu.295112hfi_wait_for_device: The /dev/hfi1_0 device failed to appear after 15.0 seconds: Connection timed out
smp-n95.crc.pitt.edu.295120hfi_wait_for_device: The /dev/hfi1_0 device failed to appear after 15.0 seconds: Connection timed out
smp-n95.crc.pitt.edu.295105hfi_wait_for_device: The /dev/hfi1_0 device failed to appear after 15.0 seconds: Connection timed out
smp-n95.crc.pitt.edu.295116hfi_wait_for_device: The /dev/hfi1_0 device failed to appear after 15.0 seconds: Connection timed out
smp-n95.crc.pitt.edu.295101hfi_wait_for_device: The /dev/hfi1_0 device failed to appear after 15.0 seconds: Connection timed out
smp-n95.crc.pitt.edu.295113hfi_wait_for_device: The /dev/hfi1_0 device failed to appear after 15.0 seconds: Connection timed out
smp-n95.crc.pitt.edu.295108hfi_wait_for_device: The /dev/hfi1_0 device failed to appear after 15.0 seconds: Connection timed out
smp-n95.crc.pitt.edu.295099hfi_wait_for_device: The /dev/hfi1_0 device failed to appear after 15.0 seconds: Connection timed out
smp-n95.crc.pitt.edu.295117hfi_wait_for_device: The /dev/hfi1_0 device failed to appear after 15.0 seconds: Connection timed out


           ************************************************************
           *        Program running with 12 parallel MPI-processes    *
           *              working on a common directory               *
           ************************************************************
 One Electron integrals                  ... done
 Pre-screening matrix                    ... done
           ************************************************************
           *              Shut down parallel processing               *
           ************************************************************
smp-n95.crc.pitt.edu.295130hfi_wait_for_device: The /dev/hfi1_0 device failed to appear after 15.0 seconds: Connection timed out
smp-n95.crc.pitt.edu.295146hfi_wait_for_device: The /dev/hfi1_0 device failed to appear after 15.0 seconds: Connection timed out
smp-n95.crc.pitt.edu.295142hfi_wait_for_device: The /dev/hfi1_0 device failed to appear after 15.0 seconds: Connection timed out
smp-n95.crc.pitt.edu.295126hfi_wait_for_device: The /dev/hfi1_0 device failed to appear after 15.0 seconds: Connection timed out
smp-n95.crc.pitt.edu.295137hfi_wait_for_device: The /dev/hfi1_0 device failed to appear after 15.0 seconds: Connection timed out
smp-n95.crc.pitt.edu.295134hfi_wait_for_device: The /dev/hfi1_0 device failed to appear after 15.0 seconds: Connection timed out
smp-n95.crc.pitt.edu.295125hfi_wait_for_device: The /dev/hfi1_0 device failed to appear after 15.0 seconds: Connection timed out
smp-n95.crc.pitt.edu.295138hfi_wait_for_device: The /dev/hfi1_0 device failed to appear after 15.0 seconds: Connection timed out
smp-n95.crc.pitt.edu.295127hfi_wait_for_device: The /dev/hfi1_0 device failed to appear after 15.0 seconds: Connection timed out
smp-n95.crc.pitt.edu.295131hfi_wait_for_device: The /dev/hfi1_0 device failed to appear after 15.0 seconds: Connection timed out
smp-n95.crc.pitt.edu.295135hfi_wait_for_device: The /dev/hfi1_0 device failed to appear after 15.0 seconds: Connection timed out
smp-n95.crc.pitt.edu.295143hfi_wait_for_device: The /dev/hfi1_0 device failed to appear after 15.0 seconds: Connection timed out


           ************************************************************
           *        Program running with 12 parallel MPI-processes    *
           *              working on a common directory               *
           ************************************************************

Diagonalization of the overlap matrix:
Smallest eigenvalue                        ... 2.992e-02
Time for diagonalization                   ...    0.001 sec
Threshold for overlap eigenvalues          ... 1.000e-08
Number of eigenvalues below threshold      ... 0
Time for construction of square roots      ...    0.038 sec
Total time needed                          ...    0.039 sec

-------------------
DFT GRID GENERATION
-------------------

General Integration Accuracy     IntAcc      ...  4.340
Radial Grid Type                 RadialGrid  ... Gauss-Chebyshev
Angular Grid (max. acc.)         AngularGrid ... Lebedev-110
Angular grid pruning method      GridPruning ... 3 (G Style)
Weight generation scheme         WeightScheme... Becke
Basis function cutoff            BFCut       ...    1.0000e-11
Integration weight cutoff        WCut        ...    1.0000e-14
Grids for H and He will be reduced by one unit

# of grid points (after initial pruning)     ...   6608 (   0.0 sec)
# of grid points (after weights+screening)   ...   6484 (   0.0 sec)
nearest neighbour list constructed           ...    0.0 sec
Grid point re-assignment to atoms done       ...    0.0 sec
Grid point division into batches done        ...    0.0 sec
Reduced shell lists constructed in    0.0 sec

Total number of grid points                  ...     6484
Total number of batches                      ...      104
Average number of points per batch           ...       62
Average number of grid points per atom       ...     1081
Average number of shells per batch           ...    16.30 (67.92%)
Average number of basis functions per batch  ...    29.90 (62.29%)
Average number of large shells per batch     ...    12.60 (77.30%)
Average number of large basis fcns per batch ...    23.00 (76.92%)
Maximum spatial batch extension              ...  14.86, 15.12, 16.06 au
Average spatial batch extension              ...   0.56,  0.65,  0.61 au

Time for grid setup =    0.110 sec


--------------------
COSMO INITIALIZATION
--------------------

Epsilon                                      ...   78.3550
Refractive Index                             ...    1.3300
Potential Evaluation                         ...  ANALYTIC
Technical COSMO parameters:
  rsolv                                      ...    1.3000
  routf                                      ...    0.8500
  disex                                      ...   10.0000
  nppa                                       ... 1082   
  nspa                                       ...   92   
Solvent:                                     ... WATER
Solvent:                                     ... WATER
SMD-CDS solvent descriptors:
  Soln                                       ...    1.3328
  Soln25                                     ...    1.3323
  Sola                                       ...    0.0000
  Solb                                       ...    0.0000
  Solg                                       ...    0.0000
  Solc                                       ...    0.0000
  Solh                                       ...    0.0000
Radii:
 Radius for O  used is    2.8724 Bohr (=   1.5200 Ang.)
 Radius for H  used is    2.2677 Bohr (=   1.2000 Ang.)
Initializing COSMO package            ... done
Setting COSMO radii                   ... done
Setting atoms and making cavity       ...  USING 1082 GRID
done
Cholesky decomposition of A           ... done
--------------
SCF ITERATIONS
--------------
ITER       Energy         Delta-E        Max-DP      RMS-DP      [F,P]     Damp
               ***  Starting incremental Fock matrix formation  ***
  0   -152.7565414368   0.000000000000 0.00438226  0.00031840  0.0110283 0.7000
                      *** Initiating the SOSCF procedure ***
                      *** Re-Reading the Fockian *** 
                      *** Removing any level shift *** 
ITER      Energy       Delta-E        Grad      Rot      Max-DP    RMS-DP
  1   -152.75672906  -0.0001876203  0.000860  0.000860  0.012554  0.000872
               *** Restarting incremental Fock matrix formation ***
  2   -152.75711827  -0.0003892132  0.001691  0.001567  0.004677  0.000268
  3   -152.75710064   0.0000176328  0.002478  0.001136  0.002746  0.000167
  4   -152.75713849  -0.0000378532  0.000165  0.000144  0.000389  0.000017
  5   -152.75713868  -0.0000001901  0.000083  0.000042  0.000107  0.000005
  6   -152.75713873  -0.0000000533  0.000003  0.000005  0.000011  0.000001
  7   -152.75713873   0.0000000003  0.000006  0.000003  0.000007  0.000000
                 **** Energy Check signals convergence ****
              ***Rediagonalizing the Fockian in SOSCF/NRSCF***

               *****************************************************
               *                     SUCCESS                       *
               *           SCF CONVERGED AFTER   8 CYCLES          *
               *****************************************************

Setting up the final grid:

General Integration Accuracy     IntAcc      ...  4.670
Radial Grid Type                 RadialGrid  ... Gauss-Chebyshev
Angular Grid (max. acc.)         AngularGrid ... Lebedev-302
Angular grid pruning method      GridPruning ... 3 (G Style)
Weight generation scheme         WeightScheme... Becke
Basis function cutoff            BFCut       ...    1.0000e-11
Integration weight cutoff        WCut        ...    1.0000e-14
Grids for H and He will be reduced by one unit

# of grid points (after initial pruning)     ...  26000 (   0.0 sec)
# of grid points (after weights+screening)   ...  25415 (   0.1 sec)
nearest neighbour list constructed           ...    0.0 sec
Grid point re-assignment to atoms done       ...    0.0 sec
Grid point division into batches done        ...    0.1 sec
Reduced shell lists constructed in    0.1 sec

Total number of grid points                  ...    25415
Total number of batches                      ...      401
Average number of points per batch           ...       63
Average number of grid points per atom       ...     4236
Average number of shells per batch           ...    13.49 (56.19%)
Average number of basis functions per batch  ...    24.86 (51.79%)
Average number of large shells per batch     ...    10.63 (78.81%)
Average number of large basis fcns per batch ...    19.26 (77.47%)
Maximum spatial batch extension              ...  16.88, 13.47, 12.49 au
Average spatial batch extension              ...   0.43,  0.43,  0.42 au

Final grid set up in    0.4 sec
Final integration                            ... done (   0.2 sec)
Change in XC energy                          ...     0.000318835
Integrated number of electrons               ...    20.000000316
Previous integrated no of electrons          ...    19.999538235
 -3.474125379446096E-002 -0.652668268784433        1.94058001157547     
  2.923404667929452E-003  0.241497304996985       1.210533040095808E-002
Total Energy after outlying charge correction =   -152.757669883 Eh

SMD CDS free energy correction energy :                 2.43200     Kcal/mol
Total Energy after SMD CDS correction =              -152.752944260 Eh
Total Energy       :         -152.75294426 Eh           -4156.61893 eV
  Last Energy change         ...   -9.6776e-11  Tolerance :   1.0000e-08
  Last MAX-Density change    ...    1.0626e-06  Tolerance :   1.0000e-07
             **** THE GBW FILE WAS UPDATED (2_BP86_SMD_2_h2o_rst.gbw) ****
             **** DENSITY FILE WAS UPDATED (2_BP86_SMD_2_h2o_rst.scfp.tmp) ****
             **** ENERGY FILE WAS UPDATED (2_BP86_SMD_2_h2o_rst.en.tmp) ****
Total SCF time: 0 days 0 hours 0 min 12 sec 
           ************************************************************
           *              Shut down parallel processing               *
           ************************************************************

Entering the calculation of the dispersion correction...

Checking the input atom types...

Done


-------------------------------------------------------------------------------
                          DFT DISPERSION CORRECTION                            
                                                                               
                                DFTD3 V2.1  Rev 6                               
                          USING Becke-Johnson damping                          
-------------------------------------------------------------------------------
-------------------------   ----------------
Dispersion correction           -0.001873308
-------------------------   ----------------


-------------------------   --------------------
FINAL SINGLE POINT ENERGY      -152.754817568076
-------------------------   --------------------

smp-n95.crc.pitt.edu.295191hfi_wait_for_device: The /dev/hfi1_0 device failed to appear after 15.0 seconds: Connection timed out
smp-n95.crc.pitt.edu.295178hfi_wait_for_device: The /dev/hfi1_0 device failed to appear after 15.0 seconds: Connection timed out
smp-n95.crc.pitt.edu.295183hfi_wait_for_device: The /dev/hfi1_0 device failed to appear after 15.0 seconds: Connection timed out
smp-n95.crc.pitt.edu.295184hfi_wait_for_device: The /dev/hfi1_0 device failed to appear after 15.0 seconds: Connection timed out
smp-n95.crc.pitt.edu.295187hfi_wait_for_device: The /dev/hfi1_0 device failed to appear after 15.0 seconds: Connection timed out
smp-n95.crc.pitt.edu.295188hfi_wait_for_device: The /dev/hfi1_0 device failed to appear after 15.0 seconds: Connection timed out
smp-n95.crc.pitt.edu.295195hfi_wait_for_device: The /dev/hfi1_0 device failed to appear after 15.0 seconds: Connection timed out
smp-n95.crc.pitt.edu.295196hfi_wait_for_device: The /dev/hfi1_0 device failed to appear after 15.0 seconds: Connection timed out
smp-n95.crc.pitt.edu.295200hfi_wait_for_device: The /dev/hfi1_0 device failed to appear after 15.0 seconds: Connection timed out
smp-n95.crc.pitt.edu.295179hfi_wait_for_device: The /dev/hfi1_0 device failed to appear after 15.0 seconds: Connection timed out
smp-n95.crc.pitt.edu.295180hfi_wait_for_device: The /dev/hfi1_0 device failed to appear after 15.0 seconds: Connection timed out
smp-n95.crc.pitt.edu.295192hfi_wait_for_device: The /dev/hfi1_0 device failed to appear after 15.0 seconds: Connection timed out


           ************************************************************
           *        Program running with 12 parallel MPI-processes    *
           *              working on a common directory               *
           ************************************************************
------------------------------------------------------------------------------
                         ORCA SCF GRADIENT CALCULATION
------------------------------------------------------------------------------

smd grd 
Gradient of the Kohn-Sham DFT energy:
Kohn-Sham wavefunction type      ... RKS
Hartree-Fock exchange scaling    ...    0.000
Number of operators              ...    1
Number of atoms                  ...    6
Basis set dimensions             ...   48
Integral neglect threshold       ... 2.5e-11
Integral primitive cutoff        ... 2.5e-12

Nuclear repulsion gradient       ... done
One Electron Gradient            ... done
Pre-screening matrix             ... done
RI-J gradient                    ... done
Exchange-correlation gradient    ... done
Dispersion correction            ... 
Entering the calculation of the dispersion correction...

Checking the input atom types...

Done
done

------------------
CARTESIAN GRADIENT
------------------

   1   O   :   -0.000597366    0.002107688   -0.004840399
   2   H   :    0.000133637   -0.003096945    0.003332053
   3   H   :    0.001005599   -0.000719640    0.002203602
   4   O   :   -0.002573620    0.004278931   -0.000020522
   5   H   :    0.000435661   -0.001063900   -0.001489790
   6   H   :    0.001596088   -0.001506134    0.000815057

Norm of the cartesian gradient     ...    0.009448795
RMS gradient                       ...    0.002227102
MAX gradient                       ...    0.004840399

-------
TIMINGS
-------

Total SCF gradient time            ...        1.027 sec

One electron gradient       ....       0.023 sec  (  2.3%)
Prescreening matrices       ....       0.038 sec  (  3.7%)
RI-J Coulomb gradient       ....       0.205 sec  ( 20.0%)
XC gradient                 ....       0.058 sec  (  5.6%)
COSMO gradient              ....       0.167 sec  ( 16.3%)
   First term (A-Matrix)    ....       0.054 sec  (  5.3%)
   Second term (potential)  ....       0.113 sec  ( 11.0%)
           ************************************************************
           *              Shut down parallel processing               *
           ************************************************************
------------------------------------------------------------------------------
                         ORCA GEOMETRY RELAXATION STEP
------------------------------------------------------------------------------

Reading the OPT-File                    .... done
Getting information on internals        .... done
Copying old internal coords+grads       .... done
Making the new internal coordinates     .... (new redundants).... done
Validating the new internal coordinates .... (new redundants).... done
Calculating the B-matrix                .... done
Calculating the G,G- and P matrices     .... done
Transforming gradient to internals      .... done
Projecting the internal gradient        .... done
Number of atoms                         ....   6
Number of internal coordinates          ....  19
Current Energy                          ....  -152.754817568 Eh
Current gradient norm                   ....     0.009448795 Eh/bohr
Maximum allowed component of the step   ....  0.300
Current trust radius                    ....  0.300
Updating the Hessian (BFGS)             .... done
Forming the augmented Hessian           .... done
Diagonalizing the augmented Hessian     .... done
Last element of RFO vector              ....  0.994688555
Lowest eigenvalues of augmented Hessian:
 -0.000217297  0.001512884  0.013061466  0.060649475  0.125336024
Length of the computed step             ....  0.103480083
The final length of the internal step   ....  0.103480083
Converting the step to cartesian space:
 Initial RMS(Int)=    0.0237399591
Transforming coordinates:
 Iter   0:  RMS(Cart)=    0.0202945870 RMS(Int)=    0.0236950312
 Iter   1:  RMS(Cart)=    0.0002337882 RMS(Int)=    0.0003277939
 Iter   2:  RMS(Cart)=    0.0000086904 RMS(Int)=    0.0000096689
 Iter   3:  RMS(Cart)=    0.0000002942 RMS(Int)=    0.0000003906
 Iter   4:  RMS(Cart)=    0.0000000109 RMS(Int)=    0.0000000116
done
Storing new coordinates                 .... done

                                .--------------------.
          ----------------------|Geometry convergence|---------------------
          Item                value                 Tolerance   Converged
          -----------------------------------------------------------------
          Energy change      -0.00197569            0.00000500      NO
          RMS gradient        0.00135482            0.00010000      NO
          MAX gradient        0.00460499            0.00030000      NO
          RMS step            0.02373996            0.00200000      NO
          MAX step            0.05304725            0.00400000      NO
          ....................................................
          Max(Bonds)      0.0267      Max(Angles)    0.91
          Max(Dihed)        3.04      Max(Improp)    0.00
          -----------------------------------------------------------------

The optimization has not yet converged - more geometry cycles are needed


    ---------------------------------------------------------------------------
                         Redundant Internal Coordinates
                            (Angstroem and degrees)

        Definition                    Value    dE/dq     Step     New-Value
    ----------------------------------------------------------------------------
     1. B(H   1,O   0)                0.9870 -0.001747  0.0034    0.9905   
     2. B(H   2,O   0)                0.9751 -0.000439  0.0014    0.9765   
     3. B(O   3,H   1)                1.8071  0.001645 -0.0267    1.7804   
     4. B(H   4,O   3)                0.9757 -0.000121  0.0011    0.9768   
     5. B(H   5,H   1)                2.3145 -0.000503 -0.0182    2.2963   
     6. B(H   5,O   3)                0.9760 -0.000045  0.0013    0.9772   
     7. A(H   1,O   0,H   2)          103.83  0.004605   -0.91    102.92   
     8. A(O   0,H   1,H   5)          153.91  0.000035   -0.09    153.82   
     9. A(O   3,H   1,H   5)           23.52  0.000255    0.16     23.69   
    10. A(H   1,O   3,H   4)          138.18  0.001073   -0.31    137.86   
    11. A(H   1,O   3,H   5)          108.83 -0.001453    0.44    109.28   
    12. A(H   4,O   3,H   5)          104.35  0.000794   -0.38    103.97   
    13. A(H   1,H   5,O   3)           47.65  0.001198   -0.61     47.04   
    14. D(H   5,H   1,O   0,H   2)    158.98  0.000093   -0.07    158.91   
    15. D(H   5,O   3,O   0,H   2)    161.07 -0.000321    2.36    163.43   
    16. D(H   4,O   3,H   1,H   5)    140.71  0.000799   -0.56    140.14   
    17. D(H   4,O   3,O   0,H   2)    -58.34  0.000468    2.39    -55.96   
    18. D(H   1,H   5,O   3,H   4)   -154.16 -0.000955    0.45   -153.70   
    19. D(O   3,H   5,H   1,O   0)   -177.17 -0.000416    3.04   -174.13   
    ----------------------------------------------------------------------------

         *************************************************************
         *                GEOMETRY OPTIMIZATION CYCLE   3            *
         *************************************************************
---------------------------------
CARTESIAN COORDINATES (ANGSTROEM)
---------------------------------
  O      1.172144   -0.499915    1.037117
  H      0.452671   -0.194500    0.428745
  H      1.977813   -0.385494    0.497260
  O     -0.881504    0.253346   -0.661665
  H     -1.147684    1.021528   -1.203204
  H     -1.723727   -0.079536   -0.294481

----------------------------
CARTESIAN COORDINATES (A.U.)
----------------------------
  NO LB      ZA    FRAG    MASS        X           Y           Z
   0 O     8.0000    0    15.999          2.215031557888793         -0.944703287489089          1.959866228523236
   1 H     1.0000    0     1.008          0.855424112645259         -0.367552612844757          0.810211572183279
   2 H     1.0000    0     1.008          3.737524566234954         -0.728478281302853          0.939685137023570
   3 O     8.0000    0    15.999         -1.665801401634467          0.478755394945889         -1.250366156694096
   4 H     1.0000    0     1.008         -2.168808928339689          1.930407625852263         -2.273726515848459
   5 H     1.0000    0     1.008         -3.257371178283473         -0.150301530975191         -0.556489334720763

--------------------------------
INTERNAL COORDINATES (ANGSTROEM)
--------------------------------
 O      0   0   0   0.000000     0.000     0.000
 H      1   0   0   0.990472     0.000     0.000
 H      1   2   0   0.976545   102.921     0.000
 O      2   1   3   1.780333   176.487   116.896
 H      4   2   1   0.976841   137.865   187.459
 H      4   2   1   0.977227   109.272    47.324

---------------------------
INTERNAL COORDINATES (A.U.)
---------------------------
 O      0   0   0   0.000000     0.000     0.000
 H      1   0   0   1.871721     0.000     0.000
 H      1   2   0   1.845402   102.921     0.000
 O      2   1   3   3.364342   176.487   116.896
 H      4   2   1   1.845962   137.865   187.459
 H      4   2   1   1.846692   109.272    47.324

smp-n95.crc.pitt.edu.295290hfi_wait_for_device: The /dev/hfi1_0 device failed to appear after 15.0 seconds: Connection timed out
smp-n95.crc.pitt.edu.295291hfi_wait_for_device: The /dev/hfi1_0 device failed to appear after 15.0 seconds: Connection timed out
smp-n95.crc.pitt.edu.295295hfi_wait_for_device: The /dev/hfi1_0 device failed to appear after 15.0 seconds: Connection timed out
smp-n95.crc.pitt.edu.295302hfi_wait_for_device: The /dev/hfi1_0 device failed to appear after 15.0 seconds: Connection timed out
smp-n95.crc.pitt.edu.295306hfi_wait_for_device: The /dev/hfi1_0 device failed to appear after 15.0 seconds: Connection timed out
smp-n95.crc.pitt.edu.295294hfi_wait_for_device: The /dev/hfi1_0 device failed to appear after 15.0 seconds: Connection timed out
smp-n95.crc.pitt.edu.295288hfi_wait_for_device: The /dev/hfi1_0 device failed to appear after 15.0 seconds: Connection timed out
smp-n95.crc.pitt.edu.295289hfi_wait_for_device: The /dev/hfi1_0 device failed to appear after 15.0 seconds: Connection timed out
smp-n95.crc.pitt.edu.295298hfi_wait_for_device: The /dev/hfi1_0 device failed to appear after 15.0 seconds: Connection timed out
smp-n95.crc.pitt.edu.295287hfi_wait_for_device: The /dev/hfi1_0 device failed to appear after 15.0 seconds: Connection timed out
smp-n95.crc.pitt.edu.295300hfi_wait_for_device: The /dev/hfi1_0 device failed to appear after 15.0 seconds: Connection timed out
smp-n95.crc.pitt.edu.295303hfi_wait_for_device: The /dev/hfi1_0 device failed to appear after 15.0 seconds: Connection timed out


           ************************************************************
           *        Program running with 12 parallel MPI-processes    *
           *              working on a common directory               *
           ************************************************************
 One Electron integrals                  ... done
 Pre-screening matrix                    ... done
           ************************************************************
           *              Shut down parallel processing               *
           ************************************************************
smp-n95.crc.pitt.edu.295325hfi_wait_for_device: The /dev/hfi1_0 device failed to appear after 15.0 seconds: Connection timed out
smp-n95.crc.pitt.edu.295329hfi_wait_for_device: The /dev/hfi1_0 device failed to appear after 15.0 seconds: Connection timed out
smp-n95.crc.pitt.edu.295332hfi_wait_for_device: The /dev/hfi1_0 device failed to appear after 15.0 seconds: Connection timed out
smp-n95.crc.pitt.edu.295337hfi_wait_for_device: The /dev/hfi1_0 device failed to appear after 15.0 seconds: Connection timed out
smp-n95.crc.pitt.edu.295345hfi_wait_for_device: The /dev/hfi1_0 device failed to appear after 15.0 seconds: Connection timed out
smp-n95.crc.pitt.edu.295324hfi_wait_for_device: The /dev/hfi1_0 device failed to appear after 15.0 seconds: Connection timed out
smp-n95.crc.pitt.edu.295330hfi_wait_for_device: The /dev/hfi1_0 device failed to appear after 15.0 seconds: Connection timed out
smp-n95.crc.pitt.edu.295340hfi_wait_for_device: The /dev/hfi1_0 device failed to appear after 15.0 seconds: Connection timed out
smp-n95.crc.pitt.edu.295326hfi_wait_for_device: The /dev/hfi1_0 device failed to appear after 15.0 seconds: Connection timed out
smp-n95.crc.pitt.edu.295334hfi_wait_for_device: The /dev/hfi1_0 device failed to appear after 15.0 seconds: Connection timed out
smp-n95.crc.pitt.edu.295342hfi_wait_for_device: The /dev/hfi1_0 device failed to appear after 15.0 seconds: Connection timed out
smp-n95.crc.pitt.edu.295338hfi_wait_for_device: The /dev/hfi1_0 device failed to appear after 15.0 seconds: Connection timed out


           ************************************************************
           *        Program running with 12 parallel MPI-processes    *
           *              working on a common directory               *
           ************************************************************

Diagonalization of the overlap matrix:
[...]
  routf                                      ...    0.8500
  disex                                      ...   10.0000
  nppa                                       ... 1082   
  nspa                                       ...   92   
Solvent:                                     ... WATER
Solvent:                                     ... WATER
SMD-CDS solvent descriptors:
  Soln                                       ...    1.3328
  Soln25                                     ...    1.3323
  Sola                                       ...    0.0000
  Solb                                       ...    0.0000
  Solg                                       ...    0.0000
  Solc                                       ...    0.0000
  Solh                                       ...    0.0000
Radii:
 Radius for O  used is    2.8724 Bohr (=   1.5200 Ang.)
 Radius for H  used is    2.2677 Bohr (=   1.2000 Ang.)
Initializing COSMO package            ... done
Setting COSMO radii                   ... done
Setting atoms and making cavity       ...  USING 1082 GRID
done
Cholesky decomposition of A           ... done
--------------
SCF ITERATIONS
--------------
ITER       Energy         Delta-E        Max-DP      RMS-DP      [F,P]     Damp
               ***  Starting incremental Fock matrix formation  ***
                      *** Initiating the SOSCF procedure ***
                      *** Re-Reading the Fockian *** 
                      *** Removing any level shift *** 
ITER      Energy       Delta-E        Grad      Rot      Max-DP    RMS-DP
  0   -152.75969001 -152.7596900131  0.000286  0.000286  0.000887  0.000045
               *** Restarting incremental Fock matrix formation ***
  1   -152.75969132  -0.0000013044  0.000056  0.000121  0.000212  0.000012
  2   -152.75969138  -0.0000000584  0.000016  0.000026  0.000050  0.000003
  3   -152.75969137   0.0000000029  0.000024  0.000016  0.000031  0.000002
                  ***Gradient check signals convergence***
              ***Rediagonalizing the Fockian in SOSCF/NRSCF***

               *****************************************************
               *                     SUCCESS                       *
               *           SCF CONVERGED AFTER   4 CYCLES          *
               *****************************************************

Setting up the final grid:

General Integration Accuracy     IntAcc      ...  4.670
Radial Grid Type                 RadialGrid  ... Gauss-Chebyshev
Angular Grid (max. acc.)         AngularGrid ... Lebedev-302
Angular grid pruning method      GridPruning ... 3 (G Style)
Weight generation scheme         WeightScheme... Becke
Basis function cutoff            BFCut       ...    1.0000e-11
Integration weight cutoff        WCut        ...    1.0000e-14
Grids for H and He will be reduced by one unit

# of grid points (after initial pruning)     ...  26000 (   0.0 sec)
# of grid points (after weights+screening)   ...  25358 (   0.3 sec)
nearest neighbour list constructed           ...    0.0 sec
Grid point re-assignment to atoms done       ...    0.0 sec
Grid point division into batches done        ...    0.1 sec
Reduced shell lists constructed in    0.1 sec

Total number of grid points                  ...    25358
Total number of batches                      ...      399
Average number of points per batch           ...       63
Average number of grid points per atom       ...     4226
Average number of shells per batch           ...    14.03 (58.45%)
Average number of basis functions per batch  ...    25.69 (53.51%)
Average number of large shells per batch     ...    10.94 (78.00%)
Average number of large basis fcns per batch ...    19.80 (77.09%)
Maximum spatial batch extension              ...  13.33, 15.73, 14.27 au
Average spatial batch extension              ...   0.43,  0.46,  0.43 au

Final grid set up in    0.5 sec
Final integration                            ... done (   0.2 sec)
Change in XC energy                          ...     0.000620163
Integrated number of electrons               ...    19.999995645
Previous integrated no of electrons          ...    20.000791665
  5.066382827248208E-002  0.189889077188178        1.98540903082219     
  3.167061322449551E-003  0.241497304996985       1.311427190663302E-002
Total Energy after outlying charge correction =   -152.759962496 Eh

SMD CDS free energy correction energy :                 2.39300     Kcal/mol
Total Energy after SMD CDS correction =              -152.755257728 Eh

----------------
TOTAL SCF ENERGY
----------------

Total Energy       :         -152.75525773 Eh           -4156.68188 eV
Total Energy       :         -152.75525773 Eh           -4156.68188 eV
COSMO(ediel)       :           -0.02859120 Eh              -0.77801 eV
SMD CDS (Gcds)     :            0.00381349 Eh               0.10377 eV

Components:
Nuclear Repulsion  :           37.39353063 Eh            1017.52970 eV
Electronic Energy  :         -190.14878836 Eh           -5174.21158 eV

One Electron Energy:         -284.34502042 Eh           -7737.42137 eV
Two Electron Energy:           94.19623206 Eh            2563.20979 eV

Virial components:
Potential Energy   :         -304.23495543 Eh           -8278.65402 eV
Kinetic Energy     :          151.47969771 Eh            4121.97213 eV
Virial Ratio       :            2.00842067


DFT components:
N(Alpha)           :        9.999997822716 electrons
N(Beta)            :        9.999997822716 electrons
N(Total)           :       19.999995645433 electrons
E(X)               :      -17.951091208247 Eh       
E(C)               :       -0.733539034199 Eh       
E(XC)              :      -18.684630242446 Eh       

---------------
SCF CONVERGENCE
---------------

  Last Energy change         ...   -5.7322e-09  Tolerance :   1.0000e-08
  Last MAX-Density change    ...    1.9057e-06  Tolerance :   1.0000e-07
  Last RMS-Density change    ...    1.3384e-07  Tolerance :   5.0000e-09
  Last Orbital Gradient      ...    1.0475e-06  Tolerance :   1.0000e-05
  Last Orbital Rotation      ...    1.4213e-06  Tolerance :   1.0000e-05

             **** THE GBW FILE WAS UPDATED (2_BP86_SMD_2_h2o_rst.gbw) ****
             **** DENSITY FILE WAS UPDATED (2_BP86_SMD_2_h2o_rst.scfp.tmp) ****
             **** ENERGY FILE WAS UPDATED (2_BP86_SMD_2_h2o_rst.en.tmp) ****
----------------
ORBITAL ENERGIES
----------------

  NO   OCC          E(Eh)            E(eV) 
   0   2.0000     -18.785450      -511.1781 
   1   2.0000     -18.742284      -510.0035 
   2   2.0000      -0.909732       -24.7551 
   3   2.0000      -0.866677       -23.5835 
   4   2.0000      -0.466488       -12.6938 
   5   2.0000      -0.435451       -11.8492 
   6   2.0000      -0.346845        -9.4381 
   7   2.0000      -0.308694        -8.4000 
   8   2.0000      -0.259223        -7.0538 
   9   2.0000      -0.226557        -6.1649 
  10   0.0000       0.038618         1.0508 
  11   0.0000       0.086987         2.3670 
  12   0.0000       0.123330         3.3560 
  13   0.0000       0.212165         5.7733 
  14   0.0000       0.493334        13.4243 
  15   0.0000       0.517889        14.0925 
  16   0.0000       0.576142        15.6776 
  17   0.0000       0.592760        16.1298 
  18   0.0000       0.803510        21.8646 
  19   0.0000       0.860638        23.4192 
  20   0.0000       0.874126        23.7862 
  21   0.0000       0.929435        25.2912 
  22   0.0000       0.947418        25.7806 
  23   0.0000       0.996429        27.1142 
  24   0.0000       1.054683        28.6994 
  25   0.0000       1.217618        33.1331 
  26   0.0000       1.277518        34.7630 
  27   0.0000       1.318558        35.8798 
  28   0.0000       1.366212        37.1765 
  29   0.0000       1.407561        38.3017 
  30   0.0000       1.499501        40.8035 
  31   0.0000       1.513247        41.1775 
  32   0.0000       1.722063        46.8597 
  33   0.0000       1.771774        48.2124 
  34   0.0000       2.096692        57.0539 
  35   0.0000       2.098409        57.1006 
  36   0.0000       2.151964        58.5579 
  37   0.0000       2.447714        66.6057 
  38   0.0000       2.835616        77.1610 
  39   0.0000       2.850709        77.5717 
  40   0.0000       2.884673        78.4959 
  41   0.0000       2.905932        79.0744 
  42   0.0000       3.055165        83.1353 
  43   0.0000       3.093516        84.1788 
  44   0.0000       3.354542        91.2817 
  45   0.0000       3.410544        92.8056 
  46   0.0000       3.709438       100.9389 
  47   0.0000       3.747888       101.9852 

                    ********************************
                    * MULLIKEN POPULATION ANALYSIS *
                    ********************************

-----------------------
MULLIKEN ATOMIC CHARGES
-----------------------
   0 O :   -0.430437
   1 H :    0.128520
   2 H :    0.187628
   3 O :   -0.316405
   4 H :    0.214399
   5 H :    0.216296
Sum of atomic charges:    0.0000000

--------------------------------
MULLIKEN REDUCED ORBITAL CHARGES
--------------------------------
  0 O s       :     3.687065  s :     3.687065
      pz      :     1.555492  p :     4.734944
      px      :     1.268596
      py      :     1.910856
      dz2     :     0.001213  d :     0.008428
      dxz     :     0.005298
      dyz     :     0.001207
      dx2y2   :     0.000449
      dxy     :     0.000261
  1 H s       :     0.802097  s :     0.802097
      pz      :     0.023812  p :     0.069383
      px      :     0.029281
      py      :     0.016289
  2 H s       :     0.746703  s :     0.746703
      pz      :     0.020516  p :     0.065669
      px      :     0.026617
      py      :     0.018536
  3 O s       :     3.693428  s :     3.693428
      pz      :     1.757730  p :     4.614246
      px      :     1.508294
      py      :     1.348222
      dz2     :     0.001204  d :     0.008732
      dxz     :     0.002513
      dyz     :     0.000315
      dx2y2   :     0.004205
      dxy     :     0.000495
  4 H s       :     0.719409  s :     0.719409
      pz      :     0.016224  p :     0.066193
      px      :     0.015175
      py      :     0.034794
  5 H s       :     0.717525  s :     0.717525
      pz      :     0.022509  p :     0.066179
      px      :     0.028181
      py      :     0.015490


                     *******************************
                     * LOEWDIN POPULATION ANALYSIS *
                     *******************************

----------------------
LOEWDIN ATOMIC CHARGES
----------------------
   0 O :   -0.244428
   1 H :    0.033215
   2 H :    0.091821
   3 O :   -0.113294
   4 H :    0.115727
   5 H :    0.116959

-------------------------------
LOEWDIN REDUCED ORBITAL CHARGES
-------------------------------
  0 O s       :     3.451082  s :     3.451082
      pz      :     1.603821  p :     4.777594
      px      :     1.316911
      py      :     1.856862
      dz2     :     0.000752  d :     0.015752
      dxz     :     0.011107
      dyz     :     0.001049
      dx2y2   :     0.001981
      dxy     :     0.000863
  1 H s       :     0.762014  s :     0.762014
      pz      :     0.077616  p :     0.204771
      px      :     0.080342
      py      :     0.046812
  2 H s       :     0.735406  s :     0.735406
      pz      :     0.058958  p :     0.172773
      px      :     0.060317
      py      :     0.053498
  3 O s       :     3.436369  s :     3.436369
      pz      :     1.725632  p :     4.660481
      px      :     1.532903
      py      :     1.401946
      dz2     :     0.001972  d :     0.016444
      dxz     :     0.005012
      dyz     :     0.000151
      dx2y2   :     0.008835
      dxy     :     0.000475
  4 H s       :     0.713877  s :     0.713877
      pz      :     0.043661  p :     0.170396
      px      :     0.035871
      py      :     0.090864
  5 H s       :     0.712702  s :     0.712702
      pz      :     0.061160  p :     0.170340
      px      :     0.078381
      py      :     0.030798


                      *****************************
                      * MAYER POPULATION ANALYSIS *
                      *****************************

  NA   - Mulliken gross atomic population
  ZA   - Total nuclear charge
  QA   - Mulliken gross atomic charge
  VA   - Mayer's total valence
  BVA  - Mayer's bonded valence
  FA   - Mayer's free valence

  ATOM       NA         ZA         QA         VA         BVA        FA
  0 O      8.4304     8.0000    -0.4304     1.9290     1.9290     0.0000
  1 H      0.8715     1.0000     0.1285     1.1198     1.1198     0.0000
  2 H      0.8124     1.0000     0.1876     0.9919     0.9919     0.0000
  3 O      8.3164     8.0000    -0.3164     2.1568     2.1568    -0.0000
  4 H      0.7856     1.0000     0.2144     0.9837     0.9837    -0.0000
  5 H      0.7837     1.0000     0.2163     0.9805     0.9805    -0.0000

  Mayer bond orders larger than 0.1
B(  0-O ,  1-H ) :   0.9159 B(  0-O ,  2-H ) :   0.9903 B(  1-H ,  3-O ) :   0.2016 
B(  3-O ,  4-H ) :   0.9709 B(  3-O ,  5-H ) :   0.9705 

-------
TIMINGS
-------

Total SCF time: 0 days 0 hours 0 min 7 sec 

Total time                  ....       7.988 sec
Sum of individual times     ....       9.177 sec  (114.9%)

Fock matrix formation       ....       4.851 sec  ( 60.7%)
  Coulomb formation         ....       3.681 sec  ( 75.9% of F)
  Split-RI-J                ....       1.227 sec  ( 25.3% of F)
  XC integration            ....       0.500 sec  ( 10.3% of F)
    Basis function eval.    ....       0.007 sec  (  1.4% of XC)
    Density eval.           ....       0.003 sec  (  0.6% of XC)
    XC-Functional eval.     ....       0.004 sec  (  0.8% of XC)
    XC-Potential eval.      ....       0.004 sec  (  0.8% of XC)
Diagonalization             ....       0.034 sec  (  0.4%)
Density matrix formation    ....       0.386 sec  (  4.8%)
Population analysis         ....       0.001 sec  (  0.0%)
Initial guess               ....       0.172 sec  (  2.2%)
Orbital Transformation      ....       0.000 sec  (  0.0%)
Orbital Orthonormalization  ....       0.017 sec  (  0.2%)
DIIS solution               ....       0.000 sec  (  0.0%)
SOSCF solution              ....       0.326 sec  (  4.1%)
Grid generation             ....       0.933 sec  ( 11.7%)
COSMO(total)                ....       2.475 sec  ( 31.0%)
   Initialization           ....       0.403 sec  ( 16.3% of COSMO)
   Potential evaluation     ....       0.765 sec  ( 30.9% of COSMO)
   Charge calculation       ....       0.363 sec  ( 14.7% of COSMO)
   Fock-Matrix contrib.     ....       0.827 sec  ( 33.4% of COSMO)
   Outer-lying charge       ....       0.248 sec  ( 10.0% of COSMO)
           ************************************************************
           *              Shut down parallel processing               *
           ************************************************************

Entering the calculation of the dispersion correction...

Checking the input atom types...

Done


-------------------------------------------------------------------------------
                          DFT DISPERSION CORRECTION                            
                                                                               
                                DFTD3 V2.1  Rev 6                               
                          USING Becke-Johnson damping                          
-------------------------------------------------------------------------------
The BP86 functional is recognized
Active option DFTDOPT                   ...         4   

molecular C6(AA) [au] = 178.146563 


            DFT-D V3
 parameters
 s6 scaling factor         :     1.0000 
 a1 scaling factor         :     0.3946 
 s8 scaling factor         :     3.2822 
 a2 scaling factor         :     4.8516 
 ad hoc parameters k1-k3   :    16.0000     1.3333    -4.0000 

 Edisp/kcal,au: -1.237789487676  -0.001972542897 
 E6   /kcal   :  -0.551374290 
 E8   /kcal   :  -0.686415197 
 % E8         :  55.454922197 

-------------------------   ----------------
Dispersion correction           -0.001972543
-------------------------   ----------------


-------------------------   --------------------
FINAL SINGLE POINT ENERGY      -152.757230270796
-------------------------   --------------------

                                *** OPTIMIZATION RUN DONE ***

                            ***************************************
                            *     ORCA property calculations      *
                            ***************************************

                                    ---------------------
                                    Active property flags
                                    ---------------------
   (+) Dipole Moment


------------------------------------------------------------------------------
                       ORCA ELECTRIC PROPERTIES CALCULATION
------------------------------------------------------------------------------

Dipole Moment Calculation                       ... on
Quadrupole Moment Calculation                   ... off
Polarizability Calculation                      ... off
GBWName                                         ... 2_BP86_SMD_2_h2o_rst.gbw
Electron density file                           ... 2_BP86_SMD_2_h2o_rst.scfp.tmp

-------------
DIPOLE MOMENT
-------------
                                X             Y             Z
Electronic contribution:     -0.22865       0.01577      -0.15978
Nuclear contribution   :     -0.69710       0.51727      -0.65422
                        -----------------------------------------
Total Dipole Moment    :     -0.92576       0.53304      -0.81400
                        -----------------------------------------
Magnitude (a.u.)       :      1.34304
Magnitude (Debye)      :      3.41373

smp-n95.crc.pitt.edu.298577hfi_wait_for_device: The /dev/hfi1_0 device failed to appear after 15.0 seconds: Connection timed out
smp-n95.crc.pitt.edu.298578hfi_wait_for_device: The /dev/hfi1_0 device failed to appear after 15.0 seconds: Connection timed out
smp-n95.crc.pitt.edu.298579hfi_wait_for_device: The /dev/hfi1_0 device failed to appear after 15.0 seconds: Connection timed out
smp-n95.crc.pitt.edu.298582hfi_wait_for_device: The /dev/hfi1_0 device failed to appear after 15.0 seconds: Connection timed out
smp-n95.crc.pitt.edu.298585hfi_wait_for_device: The /dev/hfi1_0 device failed to appear after 15.0 seconds: Connection timed out
smp-n95.crc.pitt.edu.298590hfi_wait_for_device: The /dev/hfi1_0 device failed to appear after 15.0 seconds: Connection timed out
smp-n95.crc.pitt.edu.298594hfi_wait_for_device: The /dev/hfi1_0 device failed to appear after 15.0 seconds: Connection timed out
smp-n95.crc.pitt.edu.298598hfi_wait_for_device: The /dev/hfi1_0 device failed to appear after 15.0 seconds: Connection timed out
smp-n95.crc.pitt.edu.298583hfi_wait_for_device: The /dev/hfi1_0 device failed to appear after 15.0 seconds: Connection timed out
smp-n95.crc.pitt.edu.298587hfi_wait_for_device: The /dev/hfi1_0 device failed to appear after 15.0 seconds: Connection timed out
smp-n95.crc.pitt.edu.298595hfi_wait_for_device: The /dev/hfi1_0 device failed to appear after 15.0 seconds: Connection timed out
smp-n95.crc.pitt.edu.298591hfi_wait_for_device: The /dev/hfi1_0 device failed to appear after 15.0 seconds: Connection timed out

Timings for individual modules:

Sum of individual times         ...     1442.904 sec (=  24.048 min)
GTO integral calculation        ...      380.981 sec (=   6.350 min)  26.4 %
SCF iterations                  ...      684.961 sec (=  11.416 min)  47.5 %
SCF Gradient evaluation         ...      376.516 sec (=   6.275 min)  26.1 %
Geometry relaxation             ...        0.446 sec (=   0.007 min)   0.0 %
                             ****ORCA TERMINATED NORMALLY****
TOTAL RUN TIME: 0 days 0 hours 24 minutes 19 seconds 919 msec
cp: cannot stat ‘/scratch/slurm-1319724/*.{prop}’: No such file or directory
