53
Energy:  -1377.99250752
O    0.57349391  -0.32924335   3.27777397
H   -0.09208901  -0.27467477   2.59202365
H    1.16844662  -1.01765087   2.98052288
O   -2.84499390  -1.94638643   1.45619427
H   -2.17632131  -1.26523027   1.38453463
H   -2.39901703  -2.74967515   1.18774742
O   -3.11724182  -2.03210058  -1.33962775
H   -3.29395734  -1.88057033  -0.41116555
H   -2.40328224  -1.43003495  -1.54941462
O    2.28398635  -0.35460440  -3.76037330
H    2.72807169  -0.06257198  -2.96429722
H    1.44728384   0.11026346  -3.75271690
O   -0.06746210   1.02671718  -3.56780099
H   -0.47315009   0.43050495  -2.93837261
H    0.07226894   1.83600849  -3.07611545
O    2.43173043  -2.52225693  -1.97118260
H    1.72857791  -2.37383809  -1.33890084
H    2.19192049  -1.98614260  -2.72702945
O    2.24841735  -2.05544802   1.96392152
H    2.89819943  -1.38061014   1.76742999
H    1.67513065  -2.06701317   1.19747488
O    3.35728903  -0.06775208  -1.23128553
H    3.20056688  -1.00462448  -1.34935383
H    2.51510140   0.28160454  -0.93990641
O    3.90195945   0.09220504   1.44231130
H    3.24050633   0.73654032   1.69438997
H    3.83668379   0.04176456   0.48867264
O   -0.12667766   3.65223537   1.19777622
H    0.53084082   3.06426702   1.56952145
H   -0.04924974   3.53118138   0.25142391
O    1.74637945   1.73653510   1.94728367
H    1.34063783   1.11655777   2.55328177
H    1.49921531   1.41965191   1.07853355
O   -2.50090909   1.96331632  -1.26020699
H   -2.59307609   1.99406109  -0.30795080
H   -2.12980632   1.09900127  -1.43761634
O   -2.32831608   2.00076038   1.49619834
H   -1.66196593   2.68769753   1.51427290
H   -1.83329752   1.18910105   1.38485377
O   -4.26711311   0.23833738   2.60040713
H   -3.67399647   0.92428927   2.29395239
H   -3.87456072  -0.57624814   2.28642480
O   -1.34143954  -3.72392323  -0.09232990
H   -1.93086353  -3.29869809  -0.71522217
H   -0.56216495  -3.16818318  -0.08156196
O    0.02418103   2.93620733  -1.48202222
H    0.46290860   2.16643056  -1.11981551
H   -0.90502714   2.70643539  -1.47903943
S   -0.09999376  -0.39475960  -0.24440017
O    0.93823334   0.66742366  -0.36251539
O    0.55958721  -1.72944868  -0.18391875
O   -0.89460862  -0.17672832   0.99703030
O   -1.00318698  -0.34028507  -1.42819684
