53
Energy:  -1385.61570081
O   -0.83867466  -0.77450569   3.12333036
H   -1.08966840  -0.44798922   2.25925804
H    0.02790550  -1.15926615   2.99206697
O   -3.73257555  -1.02214076   0.38196003
H   -2.95466789  -0.49060527   0.55096166
H   -3.56001595  -1.43833854  -0.46257205
O   -2.68387311  -2.14851167  -1.88748495
H   -2.21238046  -2.75975147  -1.32152344
H   -2.08931458  -1.40478231  -1.98545759
O    2.44679892   1.75803724  -3.14629855
H    1.80302831   2.32253229  -2.71835394
H    2.83657494   1.25405510  -2.43193974
O    0.82798113  -0.37937220  -3.78892132
H    0.13011551  -0.28399623  -3.14075557
H    1.37499394   0.39685594  -3.66859382
O    2.13430933  -2.07547662  -2.05338475
H    1.51763700  -2.04100308  -1.32211280
H    1.69341405  -1.60592185  -2.76145361
O    1.58212264  -1.78522164   2.28404725
H    2.33034718  -1.19822160   2.17531443
H    1.16917806  -1.81008902   1.42086115
O    3.23789118   0.18106865  -1.00484512
H    3.02817272  -0.67603735  -1.37581591
H    2.40175171   0.51147505  -0.67631164
O    3.58834744   0.04536494   1.76366257
H    3.02601614   0.79399896   1.96256570
H    3.60280119   0.00341853   0.80749133
O    1.76373747   2.07459943   2.00752597
H    1.43370960   1.70039996   1.19064886
H    1.01215476   2.05788573   2.60004258
O   -0.58760156   1.99166510   3.41569047
H   -0.69948231   1.04108236   3.40534713
H   -1.05059348   2.29630753   2.63526538
O   -2.06544905   2.38774171  -1.96557905
H   -2.19860230   2.54044365  -1.03006626
H   -1.75857464   1.48268448  -2.01972095
O   -1.60378822   2.78683254   0.88141262
H   -0.74900413   3.03019306   0.52595282
H   -1.61234195   1.83011992   0.85209309
O   -2.67433241  -2.70074461   2.25817389
H   -2.02349210  -2.12436613   2.65870678
H   -3.14604396  -2.13918767   1.64305287
O   -1.32241676  -3.60609787   0.02269657
H   -0.63930256  -2.93794801  -0.03354039
H   -1.78215267  -3.41114081   0.83931551
O    0.55109124   3.14186531  -1.66258936
H    0.74238018   2.38138144  -1.11367709
H   -0.34523895   2.99903667  -1.96660257
S   -0.26697314  -0.11734232  -0.33017651
O    0.79958909   0.91756612  -0.22289409
O    0.32330152  -1.46510217  -0.09518884
O   -1.32078003   0.14794852   0.68924088
O   -0.87000316  -0.06978176  -1.69186400
