12
Energy:    -19.53418061
C    0.86134317   0.77154716  -2.10012580
H    0.64379683  -0.13577985  -2.62389242
H    1.52462344   1.37194114  -2.68705462
H   -0.04706184   1.30953600  -1.92615039
C    1.52724482   0.43899892  -0.75194678
N    2.02303887   0.19140165   0.25183377
C   -0.83886595  -0.78723802   2.08405726
H   -0.76665139   0.07326682   2.71589320
H    0.14333268  -1.14183108   1.85071483
H   -1.38489328  -1.55611813   2.58960312
C   -1.57056287  -0.40875953   0.78291405
N   -2.11534448  -0.12696508  -0.18584622
