12
Energy:    -19.96802057
C   -1.38246457  -1.90464675  -0.61570212
H   -0.55270576  -2.51423606  -0.90690885
H   -2.28581621  -2.31866592  -1.01249304
H   -1.44385644  -1.87223289   0.45204292
C   -1.18818717  -0.47806491  -1.16225545
N   -1.04353882   0.58409011  -1.56918925
C    1.37607977   1.92042394   0.66084657
H    2.01216684   2.41553607   1.36452077
H    0.42085991   2.40222745   0.64297197
H    1.81721163   1.96679100  -0.31288433
C    1.20049196   0.44765915   1.07525314
N    1.06975886  -0.64888118   1.38379767
