
                                 *****************
                                 * O   R   C   A *
                                 *****************

           --- An Ab Initio, DFT and Semiempirical electronic structure package ---

                  #######################################################
                  #                        -***-                        #
                  #          Department of theory and spectroscopy      #
                  #               Directorship: Frank Neese             #
                  #        Max Planck Institute fuer Kohlenforschung    #
                  #                Kaiser Wilhelm Platz 1               #
                  #                 D-45470 Muelheim/Ruhr               #
                  #                      Germany                        #
                  #                                                     #
                  #                  All rights reserved                #
                  #                        -***-                        #
                  #######################################################


                         Program Version 4.2.0 -  RELEASE  -


 With contributions from (in alphabetic order):
   Daniel Aravena         : Magnetic Suceptibility
   Michael Atanasov       : Ab Initio Ligand Field Theory (pilot matlab implementation)
   Alexander A. Auer      : GIAO ZORA, VPT2
   Ute Becker             : Parallelization
   Giovanni Bistoni       : ED, misc. LED, open-shell LED, HFLED
   Martin Brehm           : Molecular dynamics
   Dmytro Bykov           : SCF Hessian
   Vijay G. Chilkuri      : MRCI spin determinant printing, contributions to CSF-ICE
   Dipayan Datta          : RHF DLPNO-CCSD density
   Achintya Kumar Dutta   : EOM-CC, STEOM-CC
   Dmitry Ganyushin       : Spin-Orbit,Spin-Spin,Magnetic field MRCI
   Miquel Garcia          : C-PCM Hessian, Gaussian charge scheme
   Yang Guo               : DLPNO-NEVPT2, CIM, IAO-localization
   Andreas Hansen         : Spin unrestricted coupled pair/coupled cluster methods
   Benjamin Helmich-Paris : CASSCF linear response (MC-RPA)
   Lee Huntington         : MR-EOM, pCC
   Robert Izsak           : Overlap fitted RIJCOSX, COSX-SCS-MP3, EOM
   Christian Kollmar      : KDIIS, OOCD, Brueckner-CCSD(T), CCSD density
   Simone Kossmann        : Meta GGA functionals, TD-DFT gradient, OOMP2, MP2 Hessian
   Martin Krupicka        : AUTO-CI
   Lucas Lang             : DCDCAS
   Dagmar Lenk            : GEPOL surface, SMD
   Dimitrios Liakos       : Extrapolation schemes; Compound Job, initial MDCI parallelization
   Dimitrios Manganas     : Further ROCIS development; embedding schemes
   Dimitrios Pantazis     : SARC Basis sets
   Taras Petrenko         : DFT Hessian,TD-DFT gradient, ASA, ECA, R-Raman, ABS, FL, XAS/XES, NRVS
   Peter Pinski           : DLPNO-MP2, DLPNO-MP2 Gradient
   Christoph Reimann      : Effective Core Potentials
   Marius Retegan         : Local ZFS, SOC
   Christoph Riplinger    : Optimizer, TS searches, QM/MM, DLPNO-CCSD(T), (RO)-DLPNO pert. Triples
   Tobias Risthaus        : Range-separated hybrids, TD-DFT gradient, RPA, STAB
   Michael Roemelt        : Original ROCIS implementation
   Masaaki Saitow         : Open-shell DLPNO-CCSD energy and density
   Barbara Sandhoefer     : DKH picture change effects
   Avijit Sen             : IP-ROCIS
   Kantharuban Sivalingam : CASSCF convergence, NEVPT2, FIC-MRCI
   Bernardo de Souza      : ESD, SOC TD-DFT
   Georgi Stoychev        : AutoAux, RI-MP2 NMR
   Willem Van den Heuvel  : Paramagnetic NMR
   Boris Wezisla          : Elementary symmetry handling
   Frank Wennmohs         : Technical directorship


 We gratefully acknowledge several colleagues who have allowed us to
 interface, adapt or use parts of their codes:
   Stefan Grimme, W. Hujo, H. Kruse,             : VdW corrections, initial TS optimization,
                  C. Bannwarth                     DFT functionals, gCP, sTDA/sTD-DF
   Ed Valeev, F. Pavosevic, A. Kumar             : LibInt (2-el integral package), F12 methods
   Garnet Chan, S. Sharma, J. Yang, R. Olivares  : DMRG
   Ulf Ekstrom                                   : XCFun DFT Library
   Mihaly Kallay                                 : mrcc  (arbitrary order and MRCC methods)
   Andreas Klamt, Michael Diedenhofen            : otool_cosmo (COSMO solvation model)
   Jiri Pittner, Ondrej Demel                    : Mk-CCSD
   Frank Weinhold                                : gennbo (NPA and NBO analysis)
   Christopher J. Cramer and Donald G. Truhlar   : smd solvation model
   Lars Goerigk                                  : TD-DFT with DH, B97 family of functionals
   V. Asgeirsson, H. Jonsson                     : NEB implementation
   FAccTs GmbH                                   : IRC, NEB, NEB-TS, Multilevel, MM, QM/MM, CI optimization
   S Lehtola, MJT Oliveira, MAL Marques          : LibXC Library


 Your calculation uses the libint2 library for the computation of 2-el integrals
 For citations please refer to: http://libint.valeyev.net

 Your ORCA version has been built with support for libXC version: 4.2.3
 For citations please refer to: https://tddft.org/programs/libxc/

 This ORCA versions uses:
   CBLAS   interface :  Fast vector & matrix operations
   LAPACKE interface :  Fast linear algebra routines
   SCALAPACK package :  Parallel linear algebra routines


----- Orbital basis set information -----
Your calculation utilizes the basis: def2-TZVP
   F. Weigend and R. Ahlrichs, Phys. Chem. Chem. Phys. 7, 3297 (2005).

================================================================================
                                        WARNINGS
                       Please study these warnings very carefully!
================================================================================


WARNING: The frozen-core approximation for MP2-gradient calculations is turned on by default.

INFO   : the flag for use of LIBINT has been found!

================================================================================
                                       INPUT FILE
================================================================================
NAME = 12h2o.su.etal.mol1,3,5,7,10-orca.engrad-mp2.def2tzvp.frozencore.inp
|  1> # 12h2o.su.etal.mol1,3,5,7,10
|  2> ! MP2 def2-TZVP EnGrad TightSCF
|  3> 
|  4> %pal
|  5>     nprocs 6
|  6> end
|  7> 
|  8> %maxcore 8000
|  9> 
| 10> %scf
| 11>     ConvForced true
| 12> end
| 13> 
| 14> *xyz 0 1
| 15> O  -1.794470000  -0.923410000   2.768350000
| 16> H  -2.338250000  -1.359750000   3.430940000
| 17> H  -0.879480000  -1.303000000   2.865760000
| 18> O  -1.752130000  -0.741530000  -2.896280000
| 19> H  -2.036450000  -0.920500000  -1.984040000
| 20> H  -0.921210000  -1.242140000  -2.984230000
| 21> O   0.885520000  -1.737840000   0.052730000
| 22> H   1.284090000  -0.839590000   0.017130000
| 23> H   1.032320000  -2.090180000  -0.841890000
| 24> O  -1.737840000  -0.885520000  -0.052730000
| 25> H  -2.090180000  -1.032320000   0.841890000
| 26> H  -0.839590000  -1.284090000  -0.017130000
| 27> O  -0.923410000   1.794470000  -2.768350000
| 28> H  -1.359750000   2.338250000  -3.430940000
| 29> H  -1.303000000   0.879480000  -2.865760000
| 30> *
| 31> 
| 32>                          ****END OF INPUT****
================================================================================

                     *******************************
                     * Energy+Gradient Calculation *
                     *******************************

---------------------------------
CARTESIAN COORDINATES (ANGSTROEM)
---------------------------------
  O     -1.794470   -0.923410    2.768350
  H     -2.338250   -1.359750    3.430940
  H     -0.879480   -1.303000    2.865760
  O     -1.752130   -0.741530   -2.896280
  H     -2.036450   -0.920500   -1.984040
  H     -0.921210   -1.242140   -2.984230
  O      0.885520   -1.737840    0.052730
  H      1.284090   -0.839590    0.017130
  H      1.032320   -2.090180   -0.841890
  O     -1.737840   -0.885520   -0.052730
  H     -2.090180   -1.032320    0.841890
  H     -0.839590   -1.284090   -0.017130
  O     -0.923410    1.794470   -2.768350
  H     -1.359750    2.338250   -3.430940
  H     -1.303000    0.879480   -2.865760

----------------------------
CARTESIAN COORDINATES (A.U.)
----------------------------
  NO LB      ZA    FRAG     MASS         X           Y           Z
   0 O     8.0000    0    15.999   -3.391057   -1.744992    5.231423
   1 H     1.0000    0     1.008   -4.418652   -2.569555    6.483537
   2 H     1.0000    0     1.008   -1.661976   -2.462313    5.415502
   3 O     8.0000    0    15.999   -3.311046   -1.401289   -5.473176
   4 H     1.0000    0     1.008   -3.848333   -1.739493   -3.749292
   5 H     1.0000    0     1.008   -1.740835   -2.347304   -5.639377
   6 O     8.0000    0    15.999    1.673390   -3.284042    0.099645
   7 H     1.0000    0     1.008    2.426578   -1.586595    0.032371
   8 H     1.0000    0     1.008    1.950802   -3.949868   -1.590942
   9 O     8.0000    0    15.999   -3.284042   -1.673390   -0.099645
  10 H     1.0000    0     1.008   -3.949868   -1.950802    1.590942
  11 H     1.0000    0     1.008   -1.586595   -2.426578   -0.032371
  12 O     8.0000    0    15.999   -1.744992    3.391057   -5.231423
  13 H     1.0000    0     1.008   -2.569555    4.418652   -6.483537
  14 H     1.0000    0     1.008   -2.462313    1.661976   -5.415502

--------------------------------
INTERNAL COORDINATES (ANGSTROEM)
--------------------------------
 O      0   0   0     0.000000000000     0.00000000     0.00000000
 H      1   0   0     0.961828878803     0.00000000     0.00000000
 H      1   2   0     0.995381322057   106.21731035     0.00000000
 O      1   2   3     5.667707300743   135.01509642   116.29625730
 H      4   1   2     0.972136791249    18.92045113     9.26599691
 H      4   1   2     0.974050112161    94.59568686   248.81379742
 O      3   1   2     3.349245975813   116.85538783   143.82107740
 H      7   3   1     0.983350632989    97.20424340    87.67157074
 H      7   3   1     0.972645187106   154.03893681   304.15813038
 O      5   4   1     1.954571525578   151.55104644   356.10627670
 H     10   5   4     0.972645187106   148.29772527   173.62852352
 H     10   5   4     0.983350632989    99.67573411   310.71905253
 O      4   1   2     2.671037050155    89.13575954   145.68356082
 H     13   4   1     0.961828878803   111.28648995   220.47225898
 H     13   4   1     0.995381322057     5.27275451   236.70454430

---------------------------
INTERNAL COORDINATES (A.U.)
---------------------------
 O      0   0   0     0.000000000000     0.00000000     0.00000000
 H      1   0   0     1.817593168635     0.00000000     0.00000000
 H      1   2   0     1.880998097508   106.21731035     0.00000000
 O      1   2   3    10.710414605631   135.01509642   116.29625730
 H      4   1   2     1.837072300170    18.92045113     9.26599691
 H      4   1   2     1.840687952699    94.59568686   248.81379742
 O      3   1   2     6.329157649425   116.85538783   143.82107740
 H      7   3   1     1.858263389967    97.20424340    87.67157074
 H      7   3   1     1.838033029106   154.03893681   304.15813038
 O      5   4   1     3.693604892503   151.55104644   356.10627670
 H     10   5   4     1.838033029106   148.29772527   173.62852352
 H     10   5   4     1.858263389967    99.67573411   310.71905253
 O      4   1   2     5.047528518350    89.13575954   145.68356082
 H     13   4   1     1.817593168635   111.28648995   220.47225898
 H     13   4   1     1.880998097508     5.27275451   236.70454430

---------------------
BASIS SET INFORMATION
---------------------
There are 2 groups of distinct atoms

 Group   1 Type O   : 11s6p2d1f contracted to 5s3p2d1f pattern {62111/411/11/1}
 Group   2 Type H   : 5s1p contracted to 3s1p pattern {311/1}

Atom   0O    basis set group =>   1
Atom   1H    basis set group =>   2
Atom   2H    basis set group =>   2
Atom   3O    basis set group =>   1
Atom   4H    basis set group =>   2
Atom   5H    basis set group =>   2
Atom   6O    basis set group =>   1
Atom   7H    basis set group =>   2
Atom   8H    basis set group =>   2
Atom   9O    basis set group =>   1
Atom  10H    basis set group =>   2
Atom  11H    basis set group =>   2
Atom  12O    basis set group =>   1
Atom  13H    basis set group =>   2
Atom  14H    basis set group =>   2


           ************************************************************
           *        Program running with 6 parallel MPI-processes     *
           *              working on a common directory               *
           ************************************************************
------------------------------------------------------------------------------
                           ORCA GTO INTEGRAL CALCULATION
------------------------------------------------------------------------------

                         BASIS SET STATISTICS AND STARTUP INFO

 # of primitive gaussian shells          ...  160
 # of primitive gaussian functions       ...  310
 # of contracted shells                  ...   95
 # of contracted basis functions         ...  215
 Highest angular momentum                ...    3
 Maximum contraction depth               ...    6
 Integral package used                   ... LIBINT
 Integral threshhold            Thresh   ...  2.500e-11
 Primitive cut-off              TCut     ...  2.500e-12


------------------------------ INTEGRAL EVALUATION ----------------------------


 * One electron integrals 
 Pre-screening matrix                    ... done
 Shell pair data                         ... done (   0.001 sec)



           ************************************************************
           *        Program running with 6 parallel MPI-processes     *
           *              working on a common directory               *
           ************************************************************
-------------------------------------------------------------------------------
                                 ORCA SCF
-------------------------------------------------------------------------------

------------
SCF SETTINGS
------------
Hamiltonian:
 Ab initio Hamiltonian  Method          .... Hartree-Fock(GTOs)


General Settings:
 Integral files         IntName         .... 12h2o.su.etal.mol1,3,5,7,10-orca.engrad-mp2.def2tzvp.frozencore
 Hartree-Fock type      HFTyp           .... RHF
 Total Charge           Charge          ....    0
 Multiplicity           Mult            ....    1
 Number of Electrons    NEL             ....   50
 Basis Dimension        Dim             ....  215
 Nuclear Repulsion      ENuc            ....    190.7016883261 Eh

Convergence Acceleration:
 DIIS                   CNVDIIS         .... on
   Start iteration      DIISMaxIt       ....    12
   Startup error        DIISStart       ....  0.200000
   # of expansion vecs  DIISMaxEq       ....     5
   Bias factor          DIISBfac        ....   1.050
   Max. coefficient     DIISMaxC        ....  10.000
 Newton-Raphson         CNVNR           .... off
 SOSCF                  CNVSOSCF        .... on
   Start iteration      SOSCFMaxIt      ....   150
   Startup grad/error   SOSCFStart      ....  0.003300
 Level Shifting         CNVShift        .... on
   Level shift para.    LevelShift      ....    0.2500
   Turn off err/grad.   ShiftErr        ....    0.0010
 Zerner damping         CNVZerner       .... off
 Static damping         CNVDamp         .... on
   Fraction old density DampFac         ....    0.7000
   Max. Damping (<1)    DampMax         ....    0.9800
   Min. Damping (>=0)   DampMin         ....    0.0000
   Turn off err/grad.   DampErr         ....    0.1000
 Fernandez-Rico         CNVRico         .... off

SCF Procedure:
 Maximum # iterations   MaxIter         ....   125
 SCF integral mode      SCFMode         .... Direct
   Integral package                     .... LIBINT
 Reset frequency        DirectResetFreq ....    20
 Integral Threshold     Thresh          ....  2.500e-11 Eh
 Primitive CutOff       TCut            ....  2.500e-12 Eh

Convergence Tolerance:
 Convergence Check Mode ConvCheckMode   .... Total+1el-Energy
 Convergence forced     ConvForced      .... 1
 Energy Change          TolE            ....  1.000e-08 Eh
 1-El. energy change                    ....  1.000e-05 Eh
 Orbital Gradient       TolG            ....  1.000e-05
 Orbital Rotation angle TolX            ....  1.000e-05
 DIIS Error             TolErr          ....  5.000e-07


Diagonalization of the overlap matrix:
Smallest eigenvalue                        ... 4.281e-03
Time for diagonalization                   ...    0.026 sec
Threshold for overlap eigenvalues          ... 1.000e-08
Number of eigenvalues below threshold      ... 0
Time for construction of square roots      ...    0.023 sec
Total time needed                          ...    0.049 sec

-------------------
DFT GRID GENERATION
-------------------

General Integration Accuracy     IntAcc      ...  4.340
Radial Grid Type                 RadialGrid  ... Gauss-Chebyshev
Angular Grid (max. acc.)         AngularGrid ... Lebedev-110
Angular grid pruning method      GridPruning ... 3 (G Style)
Weight generation scheme         WeightScheme... Becke
Basis function cutoff            BFCut       ...    1.0000e-11
Integration weight cutoff        WCut        ...    1.0000e-14
Grids for H and He will be reduced by one unit

# of grid points (after initial pruning)     ...  16520 (   0.0 sec)
# of grid points (after weights+screening)   ...  15783 (   0.0 sec)
nearest neighbour list constructed           ...    0.0 sec
Grid point re-assignment to atoms done       ...    0.0 sec
Grid point division into batches done        ...    0.0 sec
Reduced shell lists constructed in    0.0 sec

Total number of grid points                  ...    15783
Total number of batches                      ...      255
Average number of points per batch           ...       61
Average number of grid points per atom       ...     1052
Average number of shells per batch           ...    41.95 (44.16%)
Average number of basis functions per batch  ...    84.18 (39.15%)
Average number of large shells per batch     ...    29.48 (70.26%)
Average number of large basis fcns per batch ...    59.25 (70.38%)
Maximum spatial batch extension              ...  14.53, 20.95, 13.04 au
Average spatial batch extension              ...   0.82,  0.95,  0.73 au

Time for grid setup =    0.081 sec

------------------------------
INITIAL GUESS: MODEL POTENTIAL
------------------------------
Loading Hartree-Fock densities                     ... done
Calculating cut-offs                               ... done
Setting up the integral package                    ... done
Initializing the effective Hamiltonian             ... done
Starting the Coulomb interaction                   ... done (   0.0 sec)
Reading the grid                                   ... done
Mapping shells                                     ... done
Starting the XC term evaluation                    ... done (   0.0 sec)
Transforming the Hamiltonian                       ... done (   0.0 sec)
Diagonalizing the Hamiltonian                      ... done (   0.0 sec)
Back transforming the eigenvectors                 ... done (   0.0 sec)
Now organizing SCF variables                       ... done
                      ------------------
                      INITIAL GUESS DONE (   0.2 sec)
                      ------------------
--------------
SCF ITERATIONS
--------------
ITER       Energy         Delta-E        Max-DP      RMS-DP      [F,P]     Damp
               ***  Starting incremental Fock matrix formation  ***
  0   -379.8521580982   0.000000000000 0.04406168  0.00106797  0.3499044 0.7000
  1   -380.0292684750  -0.177110376736 0.02935048  0.00073960  0.2166130 0.7000
                               ***Turning on DIIS***
  2   -380.1230099065  -0.093741431503 0.01640609  0.00041290  0.1635028 0.7000
  3   -380.9741624989  -0.851152592386 0.00760618  0.00018956  0.1218670 0.7000
  4   -380.8031349750   0.171027523844 0.01710958  0.00044136  0.0862185 0.0000
  5   -380.3390427720   0.464092202978 0.00235577  0.00007140  0.0054361 0.0000
                      *** Initiating the SOSCF procedure ***
                           *** Shutting down DIIS ***
                      *** Re-Reading the Fockian *** 
                      *** Removing any level shift *** 
ITER      Energy       Delta-E        Grad      Rot      Max-DP    RMS-DP
  6   -380.31293045   0.0261123201  0.001003  0.001003  0.001522  0.000044
               *** Restarting incremental Fock matrix formation ***
  7   -380.30412897   0.0088014773  0.000365  0.000509  0.000687  0.000019
  8   -380.30413675  -0.0000077789  0.000147  0.000389  0.000538  0.000016
  9   -380.30413859  -0.0000018370  0.000062  0.000055  0.000114  0.000003
 10   -380.30413874  -0.0000001530  0.000012  0.000011  0.000020  0.000000
                  ***Gradient check signals convergence***
              ***Rediagonalizing the Fockian in SOSCF/NRSCF***

               *****************************************************
               *                     SUCCESS                       *
               *           SCF CONVERGED AFTER  11 CYCLES          *
               *****************************************************


----------------
TOTAL SCF ENERGY
----------------

Total Energy       :         -380.30413875 Eh          -10348.60173 eV

Components:
Nuclear Repulsion  :          190.70168833 Eh            5189.25676 eV
Electronic Energy  :         -571.00582707 Eh          -15537.85848 eV
One Electron Energy:         -905.13721433 Eh          -24630.03577 eV
Two Electron Energy:          334.13138725 Eh            9092.17728 eV

Virial components:
Potential Energy   :         -760.09857004 Eh          -20683.33361 eV
Kinetic Energy     :          379.79443129 Eh           10334.73188 eV
Virial Ratio       :            2.00134206


---------------
SCF CONVERGENCE
---------------

  Last Energy change         ...   -3.9116e-09  Tolerance :   1.0000e-08
  Last MAX-Density change    ...    5.0268e-06  Tolerance :   1.0000e-07
  Last RMS-Density change    ...    1.4940e-07  Tolerance :   5.0000e-09
  Last Orbital Gradient      ...    2.3424e-06  Tolerance :   1.0000e-05
  Last Orbital Rotation      ...    2.7254e-06  Tolerance :   1.0000e-05

             **** THE GBW FILE WAS UPDATED (12h2o.su.etal.mol1,3,5,7,10-orca.engrad-mp2.def2tzvp.frozencore.gbw) ****
             **** DENSITY FILE WAS UPDATED (12h2o.su.etal.mol1,3,5,7,10-orca.engrad-mp2.def2tzvp.frozencore.scfp) ****
             **** ENERGY FILE WAS UPDATED (12h2o.su.etal.mol1,3,5,7,10-orca.engrad-mp2.def2tzvp.frozencore.en.tmp) ****
             **** THE GBW FILE WAS UPDATED (12h2o.su.etal.mol1,3,5,7,10-orca.engrad-mp2.def2tzvp.frozencore.gbw) ****
             **** DENSITY FILE WAS UPDATED (12h2o.su.etal.mol1,3,5,7,10-orca.engrad-mp2.def2tzvp.frozencore.scfp) ****
----------------
ORBITAL ENERGIES
----------------

  NO   OCC          E(Eh)            E(eV) 
   0   2.0000     -20.608085      -560.7745 
   1   2.0000     -20.587439      -560.2127 
   2   2.0000     -20.559328      -559.4478 
   3   2.0000     -20.528225      -558.6014 
   4   2.0000     -20.499745      -557.8264 
   5   2.0000      -1.388718       -37.7889 
   6   2.0000      -1.365284       -37.1513 
   7   2.0000      -1.348835       -36.7037 
   8   2.0000      -1.313222       -35.7346 
   9   2.0000      -1.281873       -34.8815 
  10   2.0000      -0.746743       -20.3199 
  11   2.0000      -0.732206       -19.9243 
  12   2.0000      -0.710973       -19.3466 
  13   2.0000      -0.694239       -18.8912 
  14   2.0000      -0.670145       -18.2356 
  15   2.0000      -0.631135       -17.1741 
  16   2.0000      -0.605929       -16.4882 
  17   2.0000      -0.592177       -16.1139 
  18   2.0000      -0.567311       -15.4373 
  19   2.0000      -0.536139       -14.5891 
  20   2.0000      -0.532870       -14.5001 
  21   2.0000      -0.518567       -14.1109 
  22   2.0000      -0.489082       -13.3086 
  23   2.0000      -0.478818       -13.0293 
  24   2.0000      -0.450230       -12.2514 
  25   0.0000       0.086231         2.3465 
  26   0.0000       0.117520         3.1979 
  27   0.0000       0.155168         4.2223 
  28   0.0000       0.177979         4.8430 
  29   0.0000       0.192674         5.2429 
  30   0.0000       0.211008         5.7418 
  31   0.0000       0.232424         6.3246 
  32   0.0000       0.299437         8.1481 
  33   0.0000       0.330564         8.9951 
  34   0.0000       0.347276         9.4499 
  35   0.0000       0.455985        12.4080 
  36   0.0000       0.468469        12.7477 
  37   0.0000       0.492415        13.3993 
  38   0.0000       0.526424        14.3247 
  39   0.0000       0.538897        14.6641 
  40   0.0000       0.545463        14.8428 
  41   0.0000       0.566264        15.4088 
  42   0.0000       0.568592        15.4722 
  43   0.0000       0.577049        15.7023 
  44   0.0000       0.595862        16.2142 
  45   0.0000       0.612434        16.6652 
  46   0.0000       0.629707        17.1352 
  47   0.0000       0.647206        17.6114 
  48   0.0000       0.659971        17.9587 
  49   0.0000       0.684089        18.6150 
  50   0.0000       0.687982        18.7210 
  51   0.0000       0.705153        19.1882 
  52   0.0000       0.732255        19.9257 
  53   0.0000       0.748752        20.3746 
  54   0.0000       0.758908        20.6509 
  55   0.0000       0.781216        21.2580 
  56   0.0000       0.802186        21.8286 
  57   0.0000       0.811468        22.0812 
  58   0.0000       0.819611        22.3027 
  59   0.0000       0.881217        23.9791 
  60   0.0000       0.938895        25.5486 
  61   0.0000       0.955599        26.0032 
  62   0.0000       1.012906        27.5626 
  63   0.0000       1.050665        28.5900 
  64   0.0000       1.066421        29.0188 
  65   0.0000       1.357191        36.9310 
  66   0.0000       1.376630        37.4600 
  67   0.0000       1.386951        37.7409 
  68   0.0000       1.411559        38.4105 
  69   0.0000       1.419299        38.6211 
  70   0.0000       1.427643        38.8481 
  71   0.0000       1.479658        40.2635 
  72   0.0000       1.490507        40.5588 
  73   0.0000       1.507946        41.0333 
  74   0.0000       1.530147        41.6374 
  75   0.0000       1.556711        42.3602 
  76   0.0000       1.566973        42.6395 
  77   0.0000       1.611689        43.8563 
  78   0.0000       1.624103        44.1941 
  79   0.0000       1.662971        45.2517 
  80   0.0000       1.773106        48.2487 
  81   0.0000       1.810185        49.2576 
  82   0.0000       1.819258        49.5045 
  83   0.0000       1.844447        50.1899 
  84   0.0000       1.870282        50.8930 
  85   0.0000       1.885226        51.2996 
  86   0.0000       1.949699        53.0540 
  87   0.0000       1.970369        53.6165 
  88   0.0000       1.984132        53.9910 
  89   0.0000       2.003623        54.5214 
  90   0.0000       2.032676        55.3119 
  91   0.0000       2.078528        56.5596 
  92   0.0000       2.128133        57.9094 
  93   0.0000       2.147269        58.4302 
  94   0.0000       2.178615        59.2831 
  95   0.0000       2.258535        61.4579 
  96   0.0000       2.284468        62.1635 
  97   0.0000       2.287615        62.2492 
  98   0.0000       2.314417        62.9785 
  99   0.0000       2.326618        63.3105 
 100   0.0000       2.333751        63.5046 
 101   0.0000       2.359326        64.2005 
 102   0.0000       2.371859        64.5416 
 103   0.0000       2.398562        65.2682 
 104   0.0000       2.416929        65.7680 
 105   0.0000       2.430010        66.1239 
 106   0.0000       2.473466        67.3064 
 107   0.0000       2.531167        68.8766 
 108   0.0000       2.547050        69.3088 
 109   0.0000       2.552691        69.4623 
 110   0.0000       2.572672        70.0060 
 111   0.0000       2.594391        70.5970 
 112   0.0000       2.628435        71.5233 
 113   0.0000       2.644198        71.9523 
 114   0.0000       2.651466        72.1501 
 115   0.0000       2.681802        72.9755 
 116   0.0000       2.696597        73.3781 
 117   0.0000       2.716872        73.9298 
 118   0.0000       2.776464        75.5514 
 119   0.0000       2.829727        77.0008 
 120   0.0000       2.885135        78.5085 
 121   0.0000       2.905938        79.0746 
 122   0.0000       2.909460        79.1704 
 123   0.0000       2.934003        79.8383 
 124   0.0000       2.959002        80.5185 
 125   0.0000       2.975898        80.9783 
 126   0.0000       2.999410        81.6181 
 127   0.0000       3.032509        82.5188 
 128   0.0000       3.052047        83.0504 
 129   0.0000       3.059902        83.2642 
 130   0.0000       3.096332        84.2555 
 131   0.0000       3.118737        84.8651 
 132   0.0000       3.141409        85.4821 
 133   0.0000       3.194526        86.9275 
 134   0.0000       3.238989        88.1374 
 135   0.0000       3.256546        88.6151 
 136   0.0000       3.263106        88.7936 
 137   0.0000       3.352653        91.2303 
 138   0.0000       3.448468        93.8376 
 139   0.0000       3.530040        96.0573 
 140   0.0000       3.974965       108.1643 
 141   0.0000       3.997324       108.7727 
 142   0.0000       4.056175       110.3741 
 143   0.0000       4.108527       111.7987 
 144   0.0000       4.138364       112.6106 
 145   0.0000       4.255160       115.7888 
 146   0.0000       4.287803       116.6770 
 147   0.0000       4.318748       117.5191 
 148   0.0000       4.372373       118.9783 
 149   0.0000       4.428630       120.5091 
 150   0.0000       5.499294       149.6434 
 151   0.0000       5.529877       150.4756 
 152   0.0000       5.545979       150.9138 
 153   0.0000       5.575994       151.7305 
 154   0.0000       5.605819       152.5421 
 155   0.0000       5.615906       152.8166 
 156   0.0000       5.625894       153.0884 
 157   0.0000       5.685896       154.7211 
 158   0.0000       5.686457       154.7364 
 159   0.0000       5.703694       155.2054 
 160   0.0000       5.775225       157.1519 
 161   0.0000       5.790737       157.5740 
 162   0.0000       5.800262       157.8331 
 163   0.0000       5.827559       158.5760 
 164   0.0000       5.830869       158.6660 
 165   0.0000       5.840808       158.9365 
 166   0.0000       5.850242       159.1932 
 167   0.0000       5.861137       159.4897 
 168   0.0000       5.881085       160.0325 
 169   0.0000       5.891783       160.3236 
 170   0.0000       5.896028       160.4391 
 171   0.0000       5.912006       160.8739 
 172   0.0000       5.919681       161.0827 
 173   0.0000       5.927283       161.2896 
 174   0.0000       5.987397       162.9254 
 175   0.0000       6.407671       174.3616 
 176   0.0000       6.422682       174.7701 
 177   0.0000       6.482183       176.3892 
 178   0.0000       6.501098       176.9039 
 179   0.0000       6.526976       177.6080 
 180   0.0000       6.645823       180.8420 
 181   0.0000       6.687074       181.9645 
 182   0.0000       6.719514       182.8473 
 183   0.0000       6.728915       183.1031 
 184   0.0000       6.772822       184.2979 
 185   0.0000       6.832665       185.9263 
 186   0.0000       6.851773       186.4462 
 187   0.0000       6.857568       186.6039 
 188   0.0000       6.863697       186.7707 
 189   0.0000       6.891853       187.5368 
 190   0.0000       6.896518       187.6638 
 191   0.0000       6.905674       187.9129 
 192   0.0000       6.913301       188.1205 
 193   0.0000       6.930336       188.5840 
 194   0.0000       6.956595       189.2986 
 195   0.0000       6.974373       189.7823 
 196   0.0000       6.983478       190.0301 
 197   0.0000       7.009762       190.7453 
 198   0.0000       7.033008       191.3779 
 199   0.0000       7.106265       193.3713 
 200   0.0000       7.347255       199.9290 
 201   0.0000       7.367658       200.4842 
 202   0.0000       7.440639       202.4701 
 203   0.0000       7.454340       202.8429 
 204   0.0000       7.471917       203.3212 
 205   0.0000       7.475945       203.4308 
 206   0.0000       7.522718       204.7036 
 207   0.0000       7.550005       205.4461 
 208   0.0000       7.596132       206.7013 
 209   0.0000       7.640786       207.9163 
 210   0.0000      44.846964      1220.3479 
 211   0.0000      44.881357      1221.2838 
 212   0.0000      44.983011      1224.0500 
 213   0.0000      44.987697      1224.1775 
 214   0.0000      45.049021      1225.8462 

                    ********************************
                    * MULLIKEN POPULATION ANALYSIS *
                    ********************************

-----------------------
MULLIKEN ATOMIC CHARGES
-----------------------
   0 O :   -0.713966
   1 H :    0.357849
   2 H :    0.365811
   3 O :   -0.723360
   4 H :    0.410758
   5 H :    0.333205
   6 O :   -0.713449
   7 H :    0.380801
   8 H :    0.361675
   9 O :   -0.771415
  10 H :    0.388965
  11 H :    0.359302
  12 O :   -0.760034
  13 H :    0.327574
  14 H :    0.396283
Sum of atomic charges:   -0.0000000

--------------------------------
MULLIKEN REDUCED ORBITAL CHARGES
--------------------------------
  0 O s       :     3.811225  s :     3.811225
      pz      :     1.715857  p :     4.876367
      px      :     1.357552
      py      :     1.802958
      dz2     :     0.004046  d :     0.024856
      dxz     :     0.004372
      dyz     :     0.005852
      dx2y2   :     0.002500
      dxy     :     0.008086
      f0      :     0.000083  f :     0.001517
      f+1     :     0.000330
      f-1     :     0.000187
      f+2     :     0.000071
      f-2     :     0.000350
      f+3     :     0.000100
      f-3     :     0.000397
  1 H s       :     0.596608  s :     0.596608
      pz      :     0.017006  p :     0.045543
      px      :     0.013538
      py      :     0.014998
  2 H s       :     0.592498  s :     0.592498
      pz      :     0.010785  p :     0.041690
      px      :     0.017763
      py      :     0.013143
  3 O s       :     3.797141  s :     3.797141
      pz      :     1.587188  p :     4.899873
      px      :     1.529171
      py      :     1.783514
      dz2     :     0.011700  d :     0.024942
      dxz     :     0.001135
      dyz     :     0.002415
      dx2y2   :     0.002512
      dxy     :     0.007179
      f0      :     0.000223  f :     0.001404
      f+1     :     0.000382
      f-1     :     0.000157
      f+2     :     0.000051
      f-2     :     0.000056
      f+3     :     0.000055
      f-3     :     0.000480
  4 H s       :     0.541392  s :     0.541392
      pz      :     0.025536  p :     0.047850
      px      :     0.010819
      py      :     0.011495
  5 H s       :     0.622518  s :     0.622518
      pz      :     0.010951  p :     0.044277
      px      :     0.018043
      py      :     0.015283
  6 O s       :     3.806354  s :     3.806354
      pz      :     1.550806  p :     4.879561
      px      :     1.848927
      py      :     1.479828
      dz2     :     0.012065  d :     0.026092
      dxz     :     0.002371
      dyz     :     0.002972
      dx2y2   :     0.003618
      dxy     :     0.005065
      f0      :     0.000172  f :     0.001443
      f+1     :     0.000120
      f-1     :     0.000472
      f+2     :     0.000069
      f-2     :     0.000042
      f+3     :     0.000458
      f-3     :     0.000110
  7 H s       :     0.577047  s :     0.577047
      pz      :     0.009580  p :     0.042152
      px      :     0.013730
      py      :     0.018842
  8 H s       :     0.594317  s :     0.594317
      pz      :     0.018902  p :     0.044008
      px      :     0.013470
      py      :     0.011636
  9 O s       :     3.803938  s :     3.803938
      pz      :     1.584200  p :     4.943817
      px      :     1.480634
      py      :     1.878982
      dz2     :     0.009487  d :     0.022243
      dxz     :     0.002342
      dyz     :     0.002325
      dx2y2   :     0.002842
      dxy     :     0.005246
      f0      :     0.000188  f :     0.001417
      f+1     :     0.000421
      f-1     :     0.000119
      f+2     :     0.000079
      f-2     :     0.000036
      f+3     :     0.000120
      f-3     :     0.000453
 10 H s       :     0.561687  s :     0.561687
      pz      :     0.024303  p :     0.049348
      px      :     0.011702
      py      :     0.013343
 11 H s       :     0.586586  s :     0.586586
      pz      :     0.009617  p :     0.054112
      px      :     0.028181
      py      :     0.016314
 12 O s       :     3.807283  s :     3.807283
      pz      :     1.716574  p :     4.927358
      px      :     1.802910
      py      :     1.407875
      dz2     :     0.004134  d :     0.023920
      dxz     :     0.005619
      dyz     :     0.004810
      dx2y2   :     0.002316
      dxy     :     0.007040
      f0      :     0.000088  f :     0.001473
      f+1     :     0.000185
      f-1     :     0.000329
      f+2     :     0.000070
      f-2     :     0.000361
      f+3     :     0.000351
      f-3     :     0.000088
 13 H s       :     0.626244  s :     0.626244
      pz      :     0.017126  p :     0.046182
      px      :     0.015229
      py      :     0.013826
 14 H s       :     0.546812  s :     0.546812
      pz      :     0.010814  p :     0.056905
      px      :     0.013937
      py      :     0.032154


                     *******************************
                     * LOEWDIN POPULATION ANALYSIS *
                     *******************************

----------------------
LOEWDIN ATOMIC CHARGES
----------------------
   0 O :   -0.313928
   1 H :    0.161641
   2 H :    0.186153
   3 O :   -0.287965
   4 H :    0.166744
   5 H :    0.159814
   6 O :   -0.300094
   7 H :    0.186543
   8 H :    0.170430
   9 O :   -0.352068
  10 H :    0.156459
  11 H :    0.144071
  12 O :   -0.375180
  13 H :    0.145086
  14 H :    0.152295

-------------------------------
LOEWDIN REDUCED ORBITAL CHARGES
-------------------------------
  0 O s       :     3.468910  s :     3.468910
      pz      :     1.681394  p :     4.810448
      px      :     1.354129
      py      :     1.774925
      dz2     :     0.005393  d :     0.032458
      dxz     :     0.006866
      dyz     :     0.005879
      dx2y2   :     0.003867
      dxy     :     0.010454
      f0      :     0.000089  f :     0.002112
      f+1     :     0.000450
      f-1     :     0.000273
      f+2     :     0.000036
      f-2     :     0.000611
      f+3     :     0.000093
      f-3     :     0.000559
  1 H s       :     0.674984  s :     0.674984
      pz      :     0.066401  p :     0.163375
      px      :     0.044106
      py      :     0.052868
  2 H s       :     0.665756  s :     0.665756
      pz      :     0.033409  p :     0.148091
      px      :     0.071101
      py      :     0.043581
  3 O s       :     3.454309  s :     3.454309
      pz      :     1.552152  p :     4.799323
      px      :     1.521590
      py      :     1.725582
      dz2     :     0.015061  d :     0.032199
      dxz     :     0.001621
      dyz     :     0.001820
      dx2y2   :     0.003874
      dxy     :     0.009823
      f0      :     0.000390  f :     0.002134
      f+1     :     0.000563
      f-1     :     0.000336
      f+2     :     0.000021
      f-2     :     0.000045
      f+3     :     0.000027
      f-3     :     0.000752
  4 H s       :     0.659806  s :     0.659806
      pz      :     0.096961  p :     0.173450
      px      :     0.035509
      py      :     0.040980
  5 H s       :     0.682426  s :     0.682426
      pz      :     0.031773  p :     0.157760
      px      :     0.071003
      py      :     0.054984
  6 O s       :     3.469636  s :     3.469636
      pz      :     1.546898  p :     4.795332
      px      :     1.788272
      py      :     1.460161
      dz2     :     0.015582  d :     0.033014
      dxz     :     0.001487
      dyz     :     0.004172
      dx2y2   :     0.005308
      dxy     :     0.006466
      f0      :     0.000370  f :     0.002112
      f+1     :     0.000212
      f-1     :     0.000757
      f+2     :     0.000042
      f-2     :     0.000045
      f+3     :     0.000614
      f-3     :     0.000072
  7 H s       :     0.659611  s :     0.659611
      pz      :     0.028938  p :     0.153846
      px      :     0.049199
      py      :     0.075709
  8 H s       :     0.670919  s :     0.670919
      pz      :     0.079986  p :     0.158651
      px      :     0.043124
      py      :     0.035541
  9 O s       :     3.456467  s :     3.456467
      pz      :     1.551599  p :     4.865129
      px      :     1.474993
      py      :     1.838536
      dz2     :     0.013106  d :     0.028520
      dxz     :     0.003600
      dyz     :     0.001554
      dx2y2   :     0.003839
      dxy     :     0.006422
      f0      :     0.000360  f :     0.001952
      f+1     :     0.000685
      f-1     :     0.000183
      f+2     :     0.000042
      f-2     :     0.000041
      f+3     :     0.000068
      f-3     :     0.000573
 10 H s       :     0.671102  s :     0.671102
      pz      :     0.092779  p :     0.172439
      px      :     0.036760
      py      :     0.042900
 11 H s       :     0.671483  s :     0.671483
      pz      :     0.030735  p :     0.184446
      px      :     0.100989
      py      :     0.052722
 12 O s       :     3.468282  s :     3.468282
      pz      :     1.703884  p :     4.875003
      px      :     1.779949
      py      :     1.391170
      dz2     :     0.004340  d :     0.029876
      dxz     :     0.005876
      dyz     :     0.007358
      dx2y2   :     0.003318
      dxy     :     0.008983
      f0      :     0.000074  f :     0.002019
      f+1     :     0.000268
      f-1     :     0.000441
      f+2     :     0.000034
      f-2     :     0.000638
      f+3     :     0.000478
      f-3     :     0.000085
 13 H s       :     0.690614  s :     0.690614
      pz      :     0.065558  p :     0.164300
      px      :     0.053284
      py      :     0.045459
 14 H s       :     0.653548  s :     0.653548
      pz      :     0.033567  p :     0.194157
      px      :     0.047498
      py      :     0.113093


                      *****************************
                      * MAYER POPULATION ANALYSIS *
                      *****************************

  NA   - Mulliken gross atomic population
  ZA   - Total nuclear charge
  QA   - Mulliken gross atomic charge
  VA   - Mayer's total valence
  BVA  - Mayer's bonded valence
  FA   - Mayer's free valence

  ATOM       NA         ZA         QA         VA         BVA        FA
  0 O      8.7140     8.0000    -0.7140     1.7701     1.7701     0.0000
  1 H      0.6422     1.0000     0.3578     0.8869     0.8869     0.0000
  2 H      0.6342     1.0000     0.3658     0.8797     0.8797     0.0000
  3 O      8.7234     8.0000    -0.7234     1.7510     1.7510    -0.0000
  4 H      0.5892     1.0000     0.4108     0.8630     0.8630    -0.0000
  5 H      0.6668     1.0000     0.3332     0.9057     0.9057    -0.0000
  6 O      8.7134     8.0000    -0.7134     1.7724     1.7724    -0.0000
  7 H      0.6192     1.0000     0.3808     0.8681     0.8681    -0.0000
  8 H      0.6383     1.0000     0.3617     0.8845     0.8845     0.0000
  9 O      8.7714     8.0000    -0.7714     1.6913     1.6913    -0.0000
 10 H      0.6110     1.0000     0.3890     0.8789     0.8789    -0.0000
 11 H      0.6407     1.0000     0.3593     0.9073     0.9073    -0.0000
 12 O      8.7600     8.0000    -0.7600     1.6949     1.6949     0.0000
 13 H      0.6724     1.0000     0.3276     0.9081     0.9081    -0.0000
 14 H      0.6037     1.0000     0.3963     0.8794     0.8794    -0.0000

  Mayer bond orders larger than 0.100000
B(  0-O ,  1-H ) :   0.8794 B(  0-O ,  2-H ) :   0.8711 B(  3-O ,  4-H ) :   0.8180 
B(  3-O ,  5-H ) :   0.8959 B(  6-O ,  7-H ) :   0.8619 B(  6-O ,  8-H ) :   0.8771 
B(  9-O , 10-H ) :   0.8469 B(  9-O , 11-H ) :   0.8411 B( 12-O , 13-H ) :   0.9025 
B( 12-O , 14-H ) :   0.8134 

-------
TIMINGS
-------

Total SCF time: 0 days 0 hours 0 min 10 sec 

Total time                  ....      10.378 sec
Sum of individual times     ....      10.058 sec  ( 96.9%)

Fock matrix formation       ....       9.258 sec  ( 89.2%)
Diagonalization             ....       0.192 sec  (  1.8%)
Density matrix formation    ....       0.005 sec  (  0.1%)
Population analysis         ....       0.060 sec  (  0.6%)
Initial guess               ....       0.141 sec  (  1.4%)
Orbital Transformation      ....       0.000 sec  (  0.0%)
Orbital Orthonormalization  ....       0.000 sec  (  0.0%)
DIIS solution               ....       0.059 sec  (  0.6%)
SOSCF solution              ....       0.262 sec  (  2.5%)


           ************************************************************
           *        Program running with 6 parallel MPI-processes     *
           *              working on a common directory               *
           ************************************************************

------------------------------------------------------------------------------
                                ORCA  MP2 
------------------------------------------------------------------------------

Freezing NCore=10 chemical core electrons
MP2 will be done in the AO integral direct mode
The Q1-step will be done using symmetric double matrices
Dimension of the basis                    ...  215
Memory devoted for MP2                    ... 8000 MB   
Memory needed for all in one shot         ...  153 MB
Number of MOs that can be treated together...  209      
MP2 density construction                  ... relaxed
The MP2 gradient is requested => amplitudes will be stored on disk
Total number of MOs              ...   20
Number of MOs treated per batch  ...    4 
Number of batches necessary      ...    1 
OPERATORS   0/  0 PASS   0
-----------------------------------------------
 MP2 CORRELATION ENERGY   :     -1.290475244 Eh
-----------------------------------------------


---------------------
MP2 DENSITY FORMATION
---------------------

Completing the external part of the density      ... done
Storing the unrelaxed density                    ... done

Calculating G(D)                                 ... done
Completing the Lagrangian                        ... done
Solving the Z-vector equations                   ... 

------------------------------------------------------------------------------
                           ORCA CP-SCF CALCULATION
------------------------------------------------------------------------------

Input orbitals are from        ... 12h2o.su.etal.mol1,3,5,7,10-orca.engrad-mp2.def2tzvp.frozencore.gbw
Input Perturbation             ... 12h2o.su.etal.mol1,3,5,7,10-orca.engrad-mp2.def2tzvp.frozencore.pin.tmp
Wavefunction output            ... 12h2o.su.etal.mol1,3,5,7,10-orca.engrad-mp2.def2tzvp.frozencore.pout.tmp
Perturbation mode              ... Real perturbation (singlet)
Solver                         ... POPLE
Max. number of iterations      ... 128
Convergence tolerance          ... 1.000e-08
Integral handling              ... Direct
Number of perturbations        ... 1
Number of operators            ... 1
Orbital ranges used for CP-SCF:
 Operator 0:  Orbitals   0... 24  to  25...214
Variables per vector in CP-SCF ... 4750
Number of vectors sought       ... 1
     CP-SCF ITERATION   0: 
     CP-SCF ITERATION   1:      0.000610992131
     CP-SCF ITERATION   2:      0.000014917522
     CP-SCF ITERATION   3:      0.000000732951
     CP-SCF ITERATION   4:      0.000000063726
     CP-SCF ITERATION   5:      0.000000005218
                                                 ... done
Finalizing the relaxed density                   ... done
Transforming P to the AO basis                   ... done
Storing the relaxed density                      ... done

------------------------------------
ENERGY WEIGHTED DENSITY FINALIZATION
------------------------------------

Gathering the parts of the W-matrix              ...                                                      done
Forming the Z-density                            ... done
Transforming Z to the AO basis                   ... done
Calculating G(Z)                                 ... done
Finalizing the W-matrix                          ...                                                      done
Transforming W to the AO basis and storing       ... done

                *********************************************
                * UNRELAXED MP2 DENSITY POPULATION ANALYSIS *
                *********************************************

------------------------------------------------------------------------------
                           ORCA POPULATION ANALYSIS
------------------------------------------------------------------------------
Input electron density              ... 12h2o.su.etal.mol1,3,5,7,10-orca.engrad-mp2.def2tzvp.frozencore.pmp2ur
BaseName (.gbw .S,...)              ... 12h2o.su.etal.mol1,3,5,7,10-orca.engrad-mp2.def2tzvp.frozencore

                    ********************************
                    * MULLIKEN POPULATION ANALYSIS *
                    ********************************

-----------------------
MULLIKEN ATOMIC CHARGES
-----------------------
   0 O :   -0.708739
   1 H :    0.355660
   2 H :    0.363097
   3 O :   -0.716882
   4 H :    0.407587
   5 H :    0.330652
   6 O :   -0.707340
   7 H :    0.378246
   8 H :    0.359224
   9 O :   -0.765101
  10 H :    0.386089
  11 H :    0.354962
  12 O :   -0.754650
  13 H :    0.325305
  14 H :    0.391891
Sum of atomic charges:   -0.0000000

--------------------------------
MULLIKEN REDUCED ORBITAL CHARGES
--------------------------------
  0 O s       :     3.806402  s :     3.806402
      pz      :     1.704971  p :     4.846637
      px      :     1.349974
      py      :     1.791693
      dz2     :     0.009561  d :     0.051631
      dxz     :     0.009731
      dyz     :     0.011226
      dx2y2   :     0.007839
      dxy     :     0.013273
      f0      :     0.000454  f :     0.004069
      f+1     :     0.000691
      f-1     :     0.000552
      f+2     :     0.000437
      f-2     :     0.000714
      f+3     :     0.000468
      f-3     :     0.000754
  1 H s       :     0.597219  s :     0.597219
      pz      :     0.017483  p :     0.047121
      px      :     0.013926
      py      :     0.015713
  2 H s       :     0.593659  s :     0.593659
      pz      :     0.011622  p :     0.043244
      px      :     0.017705
      py      :     0.013918
  3 O s       :     3.791961  s :     3.791961
      pz      :     1.577409  p :     4.868689
      px      :     1.519990
      py      :     1.771290
      dz2     :     0.016934  d :     0.052233
      dxz     :     0.006584
      dyz     :     0.008029
      dx2y2   :     0.008143
      dxy     :     0.012543
      f0      :     0.000608  f :     0.003999
      f+1     :     0.000751
      f-1     :     0.000536
      f+2     :     0.000414
      f-2     :     0.000423
      f+3     :     0.000429
      f-3     :     0.000838
  4 H s       :     0.543170  s :     0.543170
      pz      :     0.025552  p :     0.049244
      px      :     0.011428
      py      :     0.012263
  5 H s       :     0.623383  s :     0.623383
      pz      :     0.011773  p :     0.045964
      px      :     0.018250
      py      :     0.015942
  6 O s       :     3.801244  s :     3.801244
      pz      :     1.541441  p :     4.849075
      px      :     1.836383
      py      :     1.471251
      dz2     :     0.017137  d :     0.053008
      dxz     :     0.007942
      dyz     :     0.008253
      dx2y2   :     0.009149
      dxy     :     0.010526
      f0      :     0.000553  f :     0.004013
      f+1     :     0.000493
      f-1     :     0.000835
      f+2     :     0.000433
      f-2     :     0.000407
      f+3     :     0.000813
      f-3     :     0.000479
  7 H s       :     0.578084  s :     0.578084
      pz      :     0.010370  p :     0.043671
      px      :     0.014440
      py      :     0.018861
  8 H s       :     0.595170  s :     0.595170
      pz      :     0.019053  p :     0.045606
      px      :     0.014320
      py      :     0.012234
  9 O s       :     3.798953  s :     3.798953
      pz      :     1.574141  p :     4.912263
      px      :     1.471216
      py      :     1.866907
      dz2     :     0.014971  d :     0.049880
      dxz     :     0.007848
      dyz     :     0.007994
      dx2y2   :     0.008392
      dxy     :     0.010675
      f0      :     0.000575  f :     0.004005
      f+1     :     0.000793
      f-1     :     0.000494
      f+2     :     0.000444
      f-2     :     0.000404
      f+3     :     0.000486
      f-3     :     0.000809
 10 H s       :     0.563051  s :     0.563051
      pz      :     0.024399  p :     0.050860
      px      :     0.012284
      py      :     0.014177
 11 H s       :     0.589196  s :     0.589196
      pz      :     0.010451  p :     0.055843
      px      :     0.028325
      py      :     0.017066
 12 O s       :     3.802340  s :     3.802340
      pz      :     1.706190  p :     4.897353
      px      :     1.791688
      py      :     1.399475
      dz2     :     0.009600  d :     0.050918
      dxz     :     0.010943
      dyz     :     0.010171
      dx2y2   :     0.007814
      dxy     :     0.012390
      f0      :     0.000456  f :     0.004039
      f+1     :     0.000548
      f-1     :     0.000693
      f+2     :     0.000438
      f-2     :     0.000725
      f+3     :     0.000717
      f-3     :     0.000462
 13 H s       :     0.626757  s :     0.626757
      pz      :     0.017654  p :     0.047938
      px      :     0.015983
      py      :     0.014301
 14 H s       :     0.549529  s :     0.549529
      pz      :     0.011653  p :     0.058580
      px      :     0.014667
      py      :     0.032260


                     *******************************
                     * LOEWDIN POPULATION ANALYSIS *
                     *******************************

----------------------
LOEWDIN ATOMIC CHARGES
----------------------
   0 O :   -0.310338
   1 H :    0.160490
   2 H :    0.184421
   3 O :   -0.283840
   4 H :    0.164787
   5 H :    0.158154
   6 O :   -0.295829
   7 H :    0.185072
   8 H :    0.169016
   9 O :   -0.348623
  10 H :    0.154513
  11 H :    0.141479
  12 O :   -0.372876
  13 H :    0.143768
  14 H :    0.149806

-------------------------------
LOEWDIN REDUCED ORBITAL CHARGES
-------------------------------
  0 O s       :     3.465128  s :     3.465128
      pz      :     1.670061  p :     4.780039
      px      :     1.346075
      py      :     1.763903
      dz2     :     0.011000  d :     0.060313
      dxz     :     0.012427
      dyz     :     0.011546
      dx2y2   :     0.009329
      dxy     :     0.016012
      f0      :     0.000472  f :     0.004858
      f+1     :     0.000859
      f-1     :     0.000658
      f+2     :     0.000409
      f-2     :     0.001018
      f+3     :     0.000474
      f-3     :     0.000969
  1 H s       :     0.673101  s :     0.673101
      pz      :     0.067617  p :     0.166409
      px      :     0.044930
      py      :     0.053863
  2 H s       :     0.664383  s :     0.664383
      pz      :     0.034252  p :     0.151196
      px      :     0.072368
      py      :     0.044575
  3 O s       :     3.450499  s :     3.450499
      pz      :     1.542515  p :     4.767881
      px      :     1.512114
      py      :     1.713253
      dz2     :     0.020952  d :     0.060533
      dxz     :     0.007021
      dyz     :     0.007363
      dx2y2   :     0.009487
      dxy     :     0.015710
      f0      :     0.000815  f :     0.004927
      f+1     :     0.000986
      f-1     :     0.000738
      f+2     :     0.000389
      f-2     :     0.000420
      f+3     :     0.000407
      f-3     :     0.001172
  4 H s       :     0.659169  s :     0.659169
      pz      :     0.098096  p :     0.176045
      px      :     0.036200
      py      :     0.041750
  5 H s       :     0.680706  s :     0.680706
      pz      :     0.032568  p :     0.161139
      px      :     0.072480
      py      :     0.056091
  6 O s       :     3.465747  s :     3.465747
      pz      :     1.537227  p :     4.764241
      px      :     1.775697
      py      :     1.451317
      dz2     :     0.021301  d :     0.060965
      dxz     :     0.006976
      dyz     :     0.009479
      dx2y2   :     0.011003
      dxy     :     0.012206
      f0      :     0.000781  f :     0.004877
      f+1     :     0.000601
      f-1     :     0.001188
      f+2     :     0.000413
      f-2     :     0.000415
      f+3     :     0.001025
      f-3     :     0.000452
  7 H s       :     0.658138  s :     0.658138
      pz      :     0.029708  p :     0.156790
      px      :     0.050109
      py      :     0.076973
  8 H s       :     0.669240  s :     0.669240
      pz      :     0.081540  p :     0.161745
      px      :     0.043917
      py      :     0.036287
  9 O s       :     3.452792  s :     3.452792
      pz      :     1.541057  p :     4.833805
      px      :     1.465711
      py      :     1.827038
      dz2     :     0.019160  d :     0.057287
      dxz     :     0.009153
      dyz     :     0.007156
      dx2y2   :     0.009595
      dxy     :     0.012223
      f0      :     0.000779  f :     0.004739
      f+1     :     0.001127
      f-1     :     0.000575
      f+2     :     0.000414
      f-2     :     0.000416
      f+3     :     0.000445
      f-3     :     0.000985
 10 H s       :     0.670213  s :     0.670213
      pz      :     0.094061  p :     0.175275
      px      :     0.037536
      py      :     0.043677
 11 H s       :     0.671117  s :     0.671117
      pz      :     0.031597  p :     0.187404
      px      :     0.102162
      py      :     0.053645
 12 O s       :     3.464638  s :     3.464638
      pz      :     1.693519  p :     4.845515
      px      :     1.769083
      py      :     1.382913
      dz2     :     0.009883  d :     0.057943
      dxz     :     0.011523
      dyz     :     0.012940
      dx2y2   :     0.008915
      dxy     :     0.014682
      f0      :     0.000453  f :     0.004780
      f+1     :     0.000650
      f-1     :     0.000853
      f+2     :     0.000410
      f-2     :     0.001047
      f+3     :     0.000896
      f-3     :     0.000471
 13 H s       :     0.688550  s :     0.688550
      pz      :     0.066901  p :     0.167681
      px      :     0.054327
      py      :     0.046453
 14 H s       :     0.653570  s :     0.653570
      pz      :     0.034409  p :     0.196623
      px      :     0.048369
      py      :     0.113846


                      *****************************
                      * MAYER POPULATION ANALYSIS *
                      *****************************

  NA   - Mulliken gross atomic population
  ZA   - Total nuclear charge
  QA   - Mulliken gross atomic charge
  VA   - Mayer's total valence
  BVA  - Mayer's bonded valence
  FA   - Mayer's free valence

  ATOM       NA         ZA         QA         VA         BVA        FA
  0 O      8.7087     8.0000    -0.7087     2.0776     1.6887     0.3890
  1 H      0.6443     1.0000     0.3557     0.8925     0.8468     0.0457
  2 H      0.6369     1.0000     0.3631     0.8857     0.8378     0.0479
  3 O      8.7169     8.0000    -0.7169     2.0594     1.6716     0.3878
  4 H      0.5924     1.0000     0.4076     0.8691     0.8265     0.0426
  5 H      0.6693     1.0000     0.3307     0.9120     0.8628     0.0492
  6 O      8.7073     8.0000    -0.7073     2.0798     1.6916     0.3882
  7 H      0.6218     1.0000     0.3782     0.8738     0.8282     0.0457
  8 H      0.6408     1.0000     0.3592     0.8903     0.8439     0.0465
  9 O      8.7651     8.0000    -0.7651     2.0074     1.6133     0.3941
 10 H      0.6139     1.0000     0.3861     0.8847     0.8407     0.0440
 11 H      0.6450     1.0000     0.3550     0.9152     0.8663     0.0488
 12 O      8.7547     8.0000    -0.7547     2.0078     1.6164     0.3913
 13 H      0.6747     1.0000     0.3253     0.9142     0.8658     0.0484
 14 H      0.6081     1.0000     0.3919     0.8867     0.8412     0.0455

  Mayer bond orders larger than 0.100000
B(  0-O ,  1-H ) :   0.8399 B(  0-O ,  2-H ) :   0.8298 B(  3-O ,  4-H ) :   0.7830 
B(  3-O ,  5-H ) :   0.8537 B(  6-O ,  7-H ) :   0.8224 B(  6-O ,  8-H ) :   0.8370 
B(  9-O , 10-H ) :   0.8098 B(  9-O , 11-H ) :   0.8019 B( 12-O , 13-H ) :   0.8608 
B( 12-O , 14-H ) :   0.7771 


                *******************************************
                * RELAXED MP2 DENSITY POPULATION ANALYSIS *
                *******************************************

------------------------------------------------------------------------------
                           ORCA POPULATION ANALYSIS
------------------------------------------------------------------------------
Input electron density              ... 12h2o.su.etal.mol1,3,5,7,10-orca.engrad-mp2.def2tzvp.frozencore.pmp2re
BaseName (.gbw .S,...)              ... 12h2o.su.etal.mol1,3,5,7,10-orca.engrad-mp2.def2tzvp.frozencore

                    ********************************
                    * MULLIKEN POPULATION ANALYSIS *
                    ********************************

-----------------------
MULLIKEN ATOMIC CHARGES
-----------------------
   0 O :   -0.691619
   1 H :    0.349140
   2 H :    0.356087
   3 O :   -0.690326
   4 H :    0.391407
   5 H :    0.324503
   6 O :   -0.684787
   7 H :    0.371740
   8 H :    0.353226
   9 O :   -0.736701
  10 H :    0.370774
  11 H :    0.334365
  12 O :   -0.736709
  13 H :    0.319448
  14 H :    0.369452
Sum of atomic charges:   -0.0000000

--------------------------------
MULLIKEN REDUCED ORBITAL CHARGES
--------------------------------
  0 O s       :     3.810786  s :     3.810786
      pz      :     1.695129  p :     4.827471
      px      :     1.346003
      py      :     1.786338
      dz2     :     0.009313  d :     0.049366
      dxz     :     0.009137
      dyz     :     0.010941
      dx2y2   :     0.007597
      dxy     :     0.012378
      f0      :     0.000452  f :     0.003997
      f+1     :     0.000671
      f-1     :     0.000544
      f+2     :     0.000438
      f-2     :     0.000693
      f+3     :     0.000466
      f-3     :     0.000734
  1 H s       :     0.603038  s :     0.603038
      pz      :     0.017615  p :     0.047822
      px      :     0.013854
      py      :     0.016352
  2 H s       :     0.600062  s :     0.600062
      pz      :     0.012485  p :     0.043851
      px      :     0.016716
      py      :     0.014649
  3 O s       :     3.792110  s :     3.792110
      pz      :     1.574756  p :     4.844018
      px      :     1.513306
      py      :     1.755956
      dz2     :     0.015780  d :     0.050272
      dxz     :     0.006560
      dyz     :     0.008018
      dx2y2   :     0.008095
      dxy     :     0.011819
      f0      :     0.000591  f :     0.003926
      f+1     :     0.000729
      f-1     :     0.000527
      f+2     :     0.000415
      f-2     :     0.000422
      f+3     :     0.000429
      f-3     :     0.000814
  4 H s       :     0.559008  s :     0.559008
      pz      :     0.024755  p :     0.049585
      px      :     0.011833
      py      :     0.012996
  5 H s       :     0.628720  s :     0.628720
      pz      :     0.012546  p :     0.046777
      px      :     0.017686
      py      :     0.016545
  6 O s       :     3.804589  s :     3.804589
      pz      :     1.535793  p :     4.825396
      px      :     1.821925
      py      :     1.467678
      dz2     :     0.015905  d :     0.050864
      dxz     :     0.008006
      dyz     :     0.007997
      dx2y2   :     0.008886
      dxy     :     0.010069
      f0      :     0.000539  f :     0.003938
      f+1     :     0.000487
      f-1     :     0.000806
      f+2     :     0.000432
      f-2     :     0.000405
      f+3     :     0.000791
      f-3     :     0.000478
  7 H s       :     0.584041  s :     0.584041
      pz      :     0.011054  p :     0.044219
      px      :     0.015113
      py      :     0.018052
  8 H s       :     0.600488  s :     0.600488
      pz      :     0.018375  p :     0.046286
      px      :     0.015301
      py      :     0.012611
  9 O s       :     3.797687  s :     3.797687
      pz      :     1.564480  p :     4.887092
      px      :     1.462240
      py      :     1.860373
      dz2     :     0.013993  d :     0.047983
      dxz     :     0.007591
      dyz     :     0.008001
      dx2y2   :     0.008191
      dxy     :     0.010208
      f0      :     0.000565  f :     0.003938
      f+1     :     0.000764
      f-1     :     0.000488
      f+2     :     0.000443
      f-2     :     0.000403
      f+3     :     0.000485
      f-3     :     0.000790
 10 H s       :     0.577799  s :     0.577799
      pz      :     0.023694  p :     0.051428
      px      :     0.012669
      py      :     0.015064
 11 H s       :     0.609183  s :     0.609183
      pz      :     0.011223  p :     0.056452
      px      :     0.027480
      py      :     0.017750
 12 O s       :     3.802746  s :     3.802746
      pz      :     1.701259  p :     4.880969
      px      :     1.786743
      py      :     1.392967
      dz2     :     0.009398  d :     0.049020
      dxz     :     0.010641
      dyz     :     0.009598
      dx2y2   :     0.007688
      dxy     :     0.011694
      f0      :     0.000454  f :     0.003974
      f+1     :     0.000540
      f-1     :     0.000677
      f+2     :     0.000438
      f-2     :     0.000706
      f+3     :     0.000700
      f-3     :     0.000460
 13 H s       :     0.631790  s :     0.631790
      pz      :     0.017820  p :     0.048761
      px      :     0.016640
      py      :     0.014301
 14 H s       :     0.571755  s :     0.571755
      pz      :     0.012430  p :     0.058793
      px      :     0.015174
      py      :     0.031188


                     *******************************
                     * LOEWDIN POPULATION ANALYSIS *
                     *******************************

----------------------
LOEWDIN ATOMIC CHARGES
----------------------
   0 O :   -0.309226
   1 H :    0.162222
   2 H :    0.185669
   3 O :   -0.278191
   4 H :    0.160195
   5 H :    0.159802
   6 O :   -0.291230
   7 H :    0.186470
   8 H :    0.170698
   9 O :   -0.345293
  10 H :    0.150730
  11 H :    0.135547
  12 O :   -0.375478
  13 H :    0.145587
  14 H :    0.142496

-------------------------------
LOEWDIN REDUCED ORBITAL CHARGES
-------------------------------
  0 O s       :     3.467106  s :     3.467106
      pz      :     1.664935  p :     4.778162
      px      :     1.350966
      py      :     1.762260
      dz2     :     0.010910  d :     0.059080
      dxz     :     0.012045
      dyz     :     0.011511
      dx2y2   :     0.009104
      dxy     :     0.015509
      f0      :     0.000475  f :     0.004878
      f+1     :     0.000866
      f-1     :     0.000658
      f+2     :     0.000410
      f-2     :     0.001017
      f+3     :     0.000477
      f-3     :     0.000976
  1 H s       :     0.671454  s :     0.671454
      pz      :     0.067682  p :     0.166324
      px      :     0.044121
      py      :     0.054521
  2 H s       :     0.663092  s :     0.663092
      pz      :     0.034971  p :     0.151239
      px      :     0.070924
      py      :     0.045344
  3 O s       :     3.451480  s :     3.451480
      pz      :     1.544259  p :     4.762069
      px      :     1.513824
      py      :     1.703986
      dz2     :     0.020465  d :     0.059694
      dxz     :     0.006923
      dyz     :     0.007410
      dx2y2   :     0.009534
      dxy     :     0.015362
      f0      :     0.000819  f :     0.004949
      f+1     :     0.000993
      f-1     :     0.000739
      f+2     :     0.000391
      f-2     :     0.000420
      f+3     :     0.000408
      f-3     :     0.001179
  4 H s       :     0.663668  s :     0.663668
      pz      :     0.097281  p :     0.176136
      px      :     0.036476
      py      :     0.042380
  5 H s       :     0.678623  s :     0.678623
      pz      :     0.033099  p :     0.161575
      px      :     0.071858
      py      :     0.056618
  6 O s       :     3.467491  s :     3.467491
      pz      :     1.538636  p :     4.758990
      px      :     1.765786
      py      :     1.454567
      dz2     :     0.020648  d :     0.059857
      dxz     :     0.007052
      dyz     :     0.009235
      dx2y2   :     0.010904
      dxy     :     0.012018
      f0      :     0.000777  f :     0.004892
      f+1     :     0.000602
      f-1     :     0.001195
      f+2     :     0.000415
      f-2     :     0.000414
      f+3     :     0.001034
      f-3     :     0.000454
  7 H s       :     0.656952  s :     0.656952
      pz      :     0.030112  p :     0.156579
      px      :     0.050708
      py      :     0.075758
  8 H s       :     0.667508  s :     0.667508
      pz      :     0.080853  p :     0.161794
      px      :     0.044749
      py      :     0.036191
  9 O s       :     3.453363  s :     3.453363
      pz      :     1.538580  p :     4.830504
      px      :     1.467493
      py      :     1.824432
      dz2     :     0.018870  d :     0.056652
      dxz     :     0.008973
      dyz     :     0.007208
      dx2y2   :     0.009536
      dxy     :     0.012065
      f0      :     0.000784  f :     0.004774
      f+1     :     0.001139
      f-1     :     0.000576
      f+2     :     0.000417
      f-2     :     0.000415
      f+3     :     0.000448
      f-3     :     0.000997
 10 H s       :     0.673650  s :     0.673650
      pz      :     0.093390  p :     0.175620
      px      :     0.037649
      py      :     0.044581
 11 H s       :     0.676085  s :     0.676085
      pz      :     0.032072  p :     0.188368
      px      :     0.101846
      py      :     0.054450
 12 O s       :     3.466263  s :     3.466263
      pz      :     1.693163  p :     4.847273
      px      :     1.767725
      py      :     1.386386
      dz2     :     0.009834  d :     0.057124
      dxz     :     0.011429
      dyz     :     0.012559
      dx2y2   :     0.008892
      dxy     :     0.014410
      f0      :     0.000455  f :     0.004818
      f+1     :     0.000651
      f-1     :     0.000865
      f+2     :     0.000411
      f-2     :     0.001047
      f+3     :     0.000913
      f-3     :     0.000476
 13 H s       :     0.686337  s :     0.686337
      pz      :     0.067079  p :     0.168075
      px      :     0.054932
      py      :     0.046064
 14 H s       :     0.660720  s :     0.660720
      pz      :     0.035144  p :     0.196785
      px      :     0.048916
      py      :     0.112725


                      *****************************
                      * MAYER POPULATION ANALYSIS *
                      *****************************

  NA   - Mulliken gross atomic population
  ZA   - Total nuclear charge
  QA   - Mulliken gross atomic charge
  VA   - Mayer's total valence
  BVA  - Mayer's bonded valence
  FA   - Mayer's free valence

  ATOM       NA         ZA         QA         VA         BVA        FA
  0 O      8.6916     8.0000    -0.6916     2.0980     1.7146     0.3834
  1 H      0.6509     1.0000     0.3491     0.8974     0.8517     0.0457
  2 H      0.6439     1.0000     0.3561     0.8919     0.8440     0.0479
  3 O      8.6903     8.0000    -0.6903     2.0946     1.7128     0.3818
  4 H      0.6086     1.0000     0.3914     0.8916     0.8495     0.0421
  5 H      0.6755     1.0000     0.3245     0.9175     0.8684     0.0491
  6 O      8.6848     8.0000    -0.6848     2.1096     1.7272     0.3823
  7 H      0.6283     1.0000     0.3717     0.8794     0.8337     0.0457
  8 H      0.6468     1.0000     0.3532     0.8954     0.8489     0.0465
  9 O      8.7367     8.0000    -0.7367     2.0335     1.6450     0.3885
 10 H      0.6292     1.0000     0.3708     0.9041     0.8604     0.0436
 11 H      0.6656     1.0000     0.3344     0.9416     0.8937     0.0479
 12 O      8.7367     8.0000    -0.7367     2.0139     1.6272     0.3867
 13 H      0.6806     1.0000     0.3194     0.9176     0.8691     0.0485
 14 H      0.6305     1.0000     0.3695     0.9149     0.8700     0.0448

  Mayer bond orders larger than 0.100000
B(  0-O ,  1-H ) :   0.8435 B(  0-O ,  2-H ) :   0.8336 B(  3-O ,  4-H ) :   0.7874 
B(  3-O ,  5-H ) :   0.8560 B(  6-O ,  7-H ) :   0.8264 B(  6-O ,  8-H ) :   0.8403 
B(  9-O , 10-H ) :   0.8148 B(  9-O , 11-H ) :   0.7995 B( 12-O , 13-H ) :   0.8638 
B( 12-O , 14-H ) :   0.7801 


----------------------------------
MP2 DERIVATIVE INTEGRAL GENERATION
----------------------------------


Input Wavefunction Amplitudes       ... 12h2o.su.etal.mol1,3,5,7,10-orca.engrad-mp2.def2tzvp.frozencore.mp2tsaa.tmp
Input Correlated Electron Density   ... 12h2o.su.etal.mol1,3,5,7,10-orca.engrad-mp2.def2tzvp.frozencore.pmp2re
Input Energy Weighted Density       ... 12h2o.su.etal.mol1,3,5,7,10-orca.engrad-mp2.def2tzvp.frozencore.wmp2.tmp
Input SCF Electron Density          ... 12h2o.su.etal.mol1,3,5,7,10-orca.engrad-mp2.def2tzvp.frozencore.scfp

One-Electron Terms    ...
                        ... One-Electron Terms done
Prescreening matrices              ... done

Batch handling in the gradient evaluation:
Memory available                      ... 8000.0 MB
Memory per occupied orbital in Q2     ...    7.1 MB
Memory per occupied orbital in Q3     ...    0.1 MB
Total memory requirement per |i>      ...    7.1 MB
Max. Number of orbitals possible      ...   1121
Number of orbitals treated per batch  ...     20
Number of batches to be done          ...      1
Batch   0: i=    5 ...    24

---------------------------------------
MP2 TOTAL ENERGY:     -381.594613991 Eh
---------------------------------------

The final MP2 gradient
  0:  -0.02537756   0.00991454  -0.00007987
  1:  -0.00162644   0.00182250  -0.00239651
  2:   0.02761813  -0.00994113   0.00022852
  3:  -0.00885328   0.01311097   0.00326568
  4:   0.00098334  -0.00221670  -0.00649432
  5:   0.01063998  -0.00514631   0.00089194
  6:  -0.01006011  -0.01295580   0.01024694
  7:   0.00601077   0.01437042  -0.00106163
  8:  -0.00161790  -0.00104507  -0.00801562
  9:  -0.00512026   0.00960656   0.00256658
 10:  -0.00173842  -0.00436027   0.00389048
 11:   0.01172934  -0.00587689  -0.00327550
 12:   0.00164597   0.00884724   0.00158747
 13:   0.00036625   0.00218651  -0.00071214
 14:  -0.00459982  -0.01831657  -0.00064202

-----------------------------------
NORM OF THE MP2 GRADIENT:  0.059515
-----------------------------------

-------------------------   --------------------
FINAL SINGLE POINT ENERGY      -381.594613991082
-------------------------   --------------------


                            ***************************************
                            *     ORCA property calculations      *
                            ***************************************

                                    ---------------------
                                    Active property flags
                                    ---------------------
   (+) Dipole Moment


------------------------------------------------------------------------------
                       ORCA ELECTRIC PROPERTIES CALCULATION
------------------------------------------------------------------------------

Dipole Moment Calculation                       ... on
Quadrupole Moment Calculation                   ... off
Polarizability Calculation                      ... off
GBWName                                         ... 12h2o.su.etal.mol1,3,5,7,10-orca.engrad-mp2.def2tzvp.frozencore.gbw
Electron density file                           ... 12h2o.su.etal.mol1,3,5,7,10-orca.engrad-mp2.def2tzvp.frozencore.scfp
The origin for moment calculation is the CENTER OF MASS  = (-1.986317, -0.981996 -1.077204)

-------------
DIPOLE MOMENT
-------------
                                X             Y             Z
Electronic contribution:     -0.06844      -0.11356       0.34676
Nuclear contribution   :      0.99314      -1.55333       0.68611
                        -----------------------------------------
Total Dipole Moment    :      0.92470      -1.66690       1.03287
                        -----------------------------------------
Magnitude (a.u.)       :      2.16805
Magnitude (Debye)      :      5.51074



--------------------
Rotational spectrum 
--------------------
 
Rotational constants in cm-1:     0.093723     0.032641     0.029497 
Rotational constants in MHz :  2809.730353   978.560693   884.292364 

 Dipole components along the rotational axes: 
x,y,z [a.u.] :     1.575032    -1.431353     0.413437 
x,y,z [Debye]:     4.003413    -3.638210     1.050873 

 

                         *** MP2 UNRELAXED DENSITY ***

------------------------------------------------------------------------------
                       ORCA ELECTRIC PROPERTIES CALCULATION
------------------------------------------------------------------------------

Dipole Moment Calculation                       ... on
Quadrupole Moment Calculation                   ... off
Polarizability Calculation                      ... off
GBWName                                         ... 12h2o.su.etal.mol1,3,5,7,10-orca.engrad-mp2.def2tzvp.frozencore.gbw
Electron density file                           ... 12h2o.su.etal.mol1,3,5,7,10-orca.engrad-mp2.def2tzvp.frozencore.pmp2ur
The origin for moment calculation is the CENTER OF MASS  = (-1.986317, -0.981996 -1.077204)

-------------
DIPOLE MOMENT
-------------
                                X             Y             Z
Electronic contribution:     -0.07810      -0.10034       0.34528
Nuclear contribution   :      0.99314      -1.55333       0.68611
                        -----------------------------------------
Total Dipole Moment    :      0.91504      -1.65367       1.03139
                        -----------------------------------------
Magnitude (a.u.)       :      2.15307
Magnitude (Debye)      :      5.47266



--------------------
Rotational spectrum 
--------------------
 
Rotational constants in cm-1:     0.093723     0.032641     0.029497 
Rotational constants in MHz :  2809.730353   978.560693   884.292364 

 Dipole components along the rotational axes: 
x,y,z [a.u.] :     1.568776    -1.416645     0.409573 
x,y,z [Debye]:     3.987512    -3.600825     1.041051 

 

                           *** MP2 RELAXED DENSITY ***

------------------------------------------------------------------------------
                       ORCA ELECTRIC PROPERTIES CALCULATION
------------------------------------------------------------------------------

Dipole Moment Calculation                       ... on
Quadrupole Moment Calculation                   ... off
Polarizability Calculation                      ... off
GBWName                                         ... 12h2o.su.etal.mol1,3,5,7,10-orca.engrad-mp2.def2tzvp.frozencore.gbw
Electron density file                           ... 12h2o.su.etal.mol1,3,5,7,10-orca.engrad-mp2.def2tzvp.frozencore.pmp2re
The origin for moment calculation is the CENTER OF MASS  = (-1.986317, -0.981996 -1.077204)

-------------
DIPOLE MOMENT
-------------
                                X             Y             Z
Electronic contribution:     -0.07106      -0.09192       0.35855
Nuclear contribution   :      0.99314      -1.55333       0.68611
                        -----------------------------------------
Total Dipole Moment    :      0.92208      -1.64525       1.04466
                        -----------------------------------------
Magnitude (a.u.)       :      2.15601
Magnitude (Debye)      :      5.48014



--------------------
Rotational spectrum 
--------------------
 
Rotational constants in cm-1:     0.093723     0.032641     0.029497 
Rotational constants in MHz :  2809.730353   978.560693   884.292364 

 Dipole components along the rotational axes: 
x,y,z [a.u.] :     1.578125    -1.414812     0.395235 
x,y,z [Debye]:     4.011275    -3.596166     1.004606 

 

Timings for individual modules:

Sum of individual times         ...       49.081 sec (=   0.818 min)
GTO integral calculation        ...        1.611 sec (=   0.027 min)   3.3 %
SCF iterations                  ...       13.678 sec (=   0.228 min)  27.9 %
MP2 module                      ...       33.792 sec (=   0.563 min)  68.8 %
                             ****ORCA TERMINATED NORMALLY****
TOTAL RUN TIME: 0 days 0 hours 0 minutes 52 seconds 284 msec
