
                                 *****************
                                 * O   R   C   A *
                                 *****************

           --- An Ab Initio, DFT and Semiempirical electronic structure package ---

                  #######################################################
                  #                        -***-                        #
                  #          Department of theory and spectroscopy      #
                  #               Directorship: Frank Neese             #
                  #        Max Planck Institute fuer Kohlenforschung    #
                  #                Kaiser Wilhelm Platz 1               #
                  #                 D-45470 Muelheim/Ruhr               #
                  #                      Germany                        #
                  #                                                     #
                  #                  All rights reserved                #
                  #                        -***-                        #
                  #######################################################


                         Program Version 4.2.0 -  RELEASE  -


 With contributions from (in alphabetic order):
   Daniel Aravena         : Magnetic Suceptibility
   Michael Atanasov       : Ab Initio Ligand Field Theory (pilot matlab implementation)
   Alexander A. Auer      : GIAO ZORA, VPT2
   Ute Becker             : Parallelization
   Giovanni Bistoni       : ED, misc. LED, open-shell LED, HFLED
   Martin Brehm           : Molecular dynamics
   Dmytro Bykov           : SCF Hessian
   Vijay G. Chilkuri      : MRCI spin determinant printing, contributions to CSF-ICE
   Dipayan Datta          : RHF DLPNO-CCSD density
   Achintya Kumar Dutta   : EOM-CC, STEOM-CC
   Dmitry Ganyushin       : Spin-Orbit,Spin-Spin,Magnetic field MRCI
   Miquel Garcia          : C-PCM Hessian, Gaussian charge scheme
   Yang Guo               : DLPNO-NEVPT2, CIM, IAO-localization
   Andreas Hansen         : Spin unrestricted coupled pair/coupled cluster methods
   Benjamin Helmich-Paris : CASSCF linear response (MC-RPA)
   Lee Huntington         : MR-EOM, pCC
   Robert Izsak           : Overlap fitted RIJCOSX, COSX-SCS-MP3, EOM
   Christian Kollmar      : KDIIS, OOCD, Brueckner-CCSD(T), CCSD density
   Simone Kossmann        : Meta GGA functionals, TD-DFT gradient, OOMP2, MP2 Hessian
   Martin Krupicka        : AUTO-CI
   Lucas Lang             : DCDCAS
   Dagmar Lenk            : GEPOL surface, SMD
   Dimitrios Liakos       : Extrapolation schemes; Compound Job, initial MDCI parallelization
   Dimitrios Manganas     : Further ROCIS development; embedding schemes
   Dimitrios Pantazis     : SARC Basis sets
   Taras Petrenko         : DFT Hessian,TD-DFT gradient, ASA, ECA, R-Raman, ABS, FL, XAS/XES, NRVS
   Peter Pinski           : DLPNO-MP2, DLPNO-MP2 Gradient
   Christoph Reimann      : Effective Core Potentials
   Marius Retegan         : Local ZFS, SOC
   Christoph Riplinger    : Optimizer, TS searches, QM/MM, DLPNO-CCSD(T), (RO)-DLPNO pert. Triples
   Tobias Risthaus        : Range-separated hybrids, TD-DFT gradient, RPA, STAB
   Michael Roemelt        : Original ROCIS implementation
   Masaaki Saitow         : Open-shell DLPNO-CCSD energy and density
   Barbara Sandhoefer     : DKH picture change effects
   Avijit Sen             : IP-ROCIS
   Kantharuban Sivalingam : CASSCF convergence, NEVPT2, FIC-MRCI
   Bernardo de Souza      : ESD, SOC TD-DFT
   Georgi Stoychev        : AutoAux, RI-MP2 NMR
   Willem Van den Heuvel  : Paramagnetic NMR
   Boris Wezisla          : Elementary symmetry handling
   Frank Wennmohs         : Technical directorship


 We gratefully acknowledge several colleagues who have allowed us to
 interface, adapt or use parts of their codes:
   Stefan Grimme, W. Hujo, H. Kruse,             : VdW corrections, initial TS optimization,
                  C. Bannwarth                     DFT functionals, gCP, sTDA/sTD-DF
   Ed Valeev, F. Pavosevic, A. Kumar             : LibInt (2-el integral package), F12 methods
   Garnet Chan, S. Sharma, J. Yang, R. Olivares  : DMRG
   Ulf Ekstrom                                   : XCFun DFT Library
   Mihaly Kallay                                 : mrcc  (arbitrary order and MRCC methods)
   Andreas Klamt, Michael Diedenhofen            : otool_cosmo (COSMO solvation model)
   Jiri Pittner, Ondrej Demel                    : Mk-CCSD
   Frank Weinhold                                : gennbo (NPA and NBO analysis)
   Christopher J. Cramer and Donald G. Truhlar   : smd solvation model
   Lars Goerigk                                  : TD-DFT with DH, B97 family of functionals
   V. Asgeirsson, H. Jonsson                     : NEB implementation
   FAccTs GmbH                                   : IRC, NEB, NEB-TS, Multilevel, MM, QM/MM, CI optimization
   S Lehtola, MJT Oliveira, MAL Marques          : LibXC Library


 Your calculation uses the libint2 library for the computation of 2-el integrals
 For citations please refer to: http://libint.valeyev.net

 Your ORCA version has been built with support for libXC version: 4.2.3
 For citations please refer to: https://tddft.org/programs/libxc/

 This ORCA versions uses:
   CBLAS   interface :  Fast vector & matrix operations
   LAPACKE interface :  Fast linear algebra routines
   SCALAPACK package :  Parallel linear algebra routines


----- Orbital basis set information -----
Your calculation utilizes the basis: def2-TZVP
   F. Weigend and R. Ahlrichs, Phys. Chem. Chem. Phys. 7, 3297 (2005).

================================================================================
                                        WARNINGS
                       Please study these warnings very carefully!
================================================================================


WARNING: The frozen-core approximation for MP2-gradient calculations is turned on by default.

INFO   : the flag for use of LIBINT has been found!

================================================================================
                                       INPUT FILE
================================================================================
NAME = 12h2o.su.etal.mol0,1,2,3,4,7,8-orca.engrad-mp2.def2tzvp.frozencore.inp
|  1> # 12h2o.su.etal.mol0,1,2,3,4,7,8
|  2> ! MP2 def2-TZVP EnGrad TightSCF
|  3> 
|  4> %pal
|  5>     nprocs 6
|  6> end
|  7> 
|  8> %maxcore 8000
|  9> 
| 10> %scf
| 11>     ConvForced true
| 12> end
| 13> 
| 14> *xyz 0 1
| 15> O   1.794470000   0.923410000   2.768350000
| 16> H   2.338250000   1.359750000   3.430940000
| 17> H   0.879480000   1.303000000   2.865760000
| 18> O  -1.794470000  -0.923410000   2.768350000
| 19> H  -2.338250000  -1.359750000   3.430940000
| 20> H  -0.879480000  -1.303000000   2.865760000
| 21> O   0.923410000  -1.794470000  -2.768350000
| 22> H   1.359750000  -2.338250000  -3.430940000
| 23> H   1.303000000  -0.879480000  -2.865760000
| 24> O  -1.752130000  -0.741530000  -2.896280000
| 25> H  -2.036450000  -0.920500000  -1.984040000
| 26> H  -0.921210000  -1.242140000  -2.984230000
| 27> O  -0.885520000   1.737840000   0.052730000
| 28> H  -1.032320000   2.090180000  -0.841890000
| 29> H  -1.284090000   0.839590000   0.017130000
| 30> O  -1.737840000  -0.885520000  -0.052730000
| 31> H  -2.090180000  -1.032320000   0.841890000
| 32> H  -0.839590000  -1.284090000  -0.017130000
| 33> O   1.752130000   0.741530000  -2.896280000
| 34> H   2.036450000   0.920500000  -1.984040000
| 35> H   0.921210000   1.242140000  -2.984230000
| 36> *
| 37> 
| 38>                          ****END OF INPUT****
================================================================================

                     *******************************
                     * Energy+Gradient Calculation *
                     *******************************

---------------------------------
CARTESIAN COORDINATES (ANGSTROEM)
---------------------------------
  O      1.794470    0.923410    2.768350
  H      2.338250    1.359750    3.430940
  H      0.879480    1.303000    2.865760
  O     -1.794470   -0.923410    2.768350
  H     -2.338250   -1.359750    3.430940
  H     -0.879480   -1.303000    2.865760
  O      0.923410   -1.794470   -2.768350
  H      1.359750   -2.338250   -3.430940
  H      1.303000   -0.879480   -2.865760
  O     -1.752130   -0.741530   -2.896280
  H     -2.036450   -0.920500   -1.984040
  H     -0.921210   -1.242140   -2.984230
  O     -0.885520    1.737840    0.052730
  H     -1.032320    2.090180   -0.841890
  H     -1.284090    0.839590    0.017130
  O     -1.737840   -0.885520   -0.052730
  H     -2.090180   -1.032320    0.841890
  H     -0.839590   -1.284090   -0.017130
  O      1.752130    0.741530   -2.896280
  H      2.036450    0.920500   -1.984040
  H      0.921210    1.242140   -2.984230

----------------------------
CARTESIAN COORDINATES (A.U.)
----------------------------
  NO LB      ZA    FRAG     MASS         X           Y           Z
   0 O     8.0000    0    15.999    3.391057    1.744992    5.231423
   1 H     1.0000    0     1.008    4.418652    2.569555    6.483537
   2 H     1.0000    0     1.008    1.661976    2.462313    5.415502
   3 O     8.0000    0    15.999   -3.391057   -1.744992    5.231423
   4 H     1.0000    0     1.008   -4.418652   -2.569555    6.483537
   5 H     1.0000    0     1.008   -1.661976   -2.462313    5.415502
   6 O     8.0000    0    15.999    1.744992   -3.391057   -5.231423
   7 H     1.0000    0     1.008    2.569555   -4.418652   -6.483537
   8 H     1.0000    0     1.008    2.462313   -1.661976   -5.415502
   9 O     8.0000    0    15.999   -3.311046   -1.401289   -5.473176
  10 H     1.0000    0     1.008   -3.848333   -1.739493   -3.749292
  11 H     1.0000    0     1.008   -1.740835   -2.347304   -5.639377
  12 O     8.0000    0    15.999   -1.673390    3.284042    0.099645
  13 H     1.0000    0     1.008   -1.950802    3.949868   -1.590942
  14 H     1.0000    0     1.008   -2.426578    1.586595    0.032371
  15 O     8.0000    0    15.999   -3.284042   -1.673390   -0.099645
  16 H     1.0000    0     1.008   -3.949868   -1.950802    1.590942
  17 H     1.0000    0     1.008   -1.586595   -2.426578   -0.032371
  18 O     8.0000    0    15.999    3.311046    1.401289   -5.473176
  19 H     1.0000    0     1.008    3.848333    1.739493   -3.749292
  20 H     1.0000    0     1.008    1.740835    2.347304   -5.639377

--------------------------------
INTERNAL COORDINATES (ANGSTROEM)
--------------------------------
 O      0   0   0     0.000000000000     0.00000000     0.00000000
 H      1   0   0     0.961828878803     0.00000000     0.00000000
 H      1   2   0     0.995381322057   106.21731035     0.00000000
 O      3   1   2     3.480861789658   117.35405144   223.81249033
 H      4   3   1     0.961828878803   134.84484566    98.22461471
 H      4   3   1     0.995381322057    62.29205096    12.66575463
 O      6   4   3     5.935920367146   102.58474291   273.48279218
 H      7   6   4     0.961828878803   146.97742434   224.01286022
 H      7   6   4     0.995381322057    97.62005672    87.72090689
 O      7   6   4     2.878117964938    74.30903121   359.04191204
 H     10   7   6     0.972136791249    99.37069922   345.64431536
 H     10   7   6     0.974050112161    12.30570018   233.12878636
 O      3   1   2     3.349245975813   116.85538783   143.82107740
 H     13   3   1     0.972645187106   154.03893681   304.15813038
 H     13   3   1     0.983350632989    97.20424340    87.67157074
 O     15  13   3     1.785153773264   170.81379649   301.36914736
 H     16  15  13     0.972645187106   101.65007623   109.44492584
 H     16  15  13     0.983350632989    99.09581498     3.33484705
 O      9   7   6     1.682356278379   171.61043709   321.17145860
 H     19   9   7     0.972136791249   103.79460456    70.64587838
 H     19   9   7     0.974050112161   105.61118924   321.69395179

---------------------------
INTERNAL COORDINATES (A.U.)
---------------------------
 O      0   0   0     0.000000000000     0.00000000     0.00000000
 H      1   0   0     1.817593168635     0.00000000     0.00000000
 H      1   2   0     1.880998097508   106.21731035     0.00000000
 O      3   1   2     6.577875492484   117.35405144   223.81249033
 H      4   3   1     1.817593168635   134.84484566    98.22461471
 H      4   3   1     1.880998097508    62.29205096    12.66575463
 O      6   4   3    11.217263846671   102.58474291   273.48279218
 H      7   6   4     1.817593168635   146.97742434   224.01286022
 H      7   6   4     1.880998097508    97.62005672    87.72090689
 O      7   6   4     5.438854734852    74.30903121   359.04191204
 H     10   7   6     1.837072300170    99.37069922   345.64431536
 H     10   7   6     1.840687952699    12.30570018   233.12878636
 O      3   1   2     6.329157649425   116.85538783   143.82107740
 H     13   3   1     1.838033029106   154.03893681   304.15813038
 H     13   3   1     1.858263389967    97.20424340    87.67157074
 O     15  13   3     3.373451738406   170.81379649   301.36914736
 H     16  15  13     1.838033029106   101.65007623   109.44492584
 H     16  15  13     1.858263389967    99.09581498     3.33484705
 O      9   7   6     3.179192625819   171.61043709   321.17145860
 H     19   9   7     1.837072300170   103.79460456    70.64587838
 H     19   9   7     1.840687952699   105.61118924   321.69395179

---------------------
BASIS SET INFORMATION
---------------------
There are 2 groups of distinct atoms

 Group   1 Type O   : 11s6p2d1f contracted to 5s3p2d1f pattern {62111/411/11/1}
 Group   2 Type H   : 5s1p contracted to 3s1p pattern {311/1}

Atom   0O    basis set group =>   1
Atom   1H    basis set group =>   2
Atom   2H    basis set group =>   2
Atom   3O    basis set group =>   1
Atom   4H    basis set group =>   2
Atom   5H    basis set group =>   2
Atom   6O    basis set group =>   1
Atom   7H    basis set group =>   2
Atom   8H    basis set group =>   2
Atom   9O    basis set group =>   1
Atom  10H    basis set group =>   2
Atom  11H    basis set group =>   2
Atom  12O    basis set group =>   1
Atom  13H    basis set group =>   2
Atom  14H    basis set group =>   2
Atom  15O    basis set group =>   1
Atom  16H    basis set group =>   2
Atom  17H    basis set group =>   2
Atom  18O    basis set group =>   1
Atom  19H    basis set group =>   2
Atom  20H    basis set group =>   2


           ************************************************************
           *        Program running with 6 parallel MPI-processes     *
           *              working on a common directory               *
           ************************************************************
------------------------------------------------------------------------------
                           ORCA GTO INTEGRAL CALCULATION
------------------------------------------------------------------------------

                         BASIS SET STATISTICS AND STARTUP INFO

 # of primitive gaussian shells          ...  224
 # of primitive gaussian functions       ...  434
 # of contracted shells                  ...  133
 # of contracted basis functions         ...  301
 Highest angular momentum                ...    3
 Maximum contraction depth               ...    6
 Integral package used                   ... LIBINT
 Integral threshhold            Thresh   ...  2.500e-11
 Primitive cut-off              TCut     ...  2.500e-12


------------------------------ INTEGRAL EVALUATION ----------------------------


 * One electron integrals 
 Pre-screening matrix                    ... done
 Shell pair data                         ... done (   0.002 sec)



           ************************************************************
           *        Program running with 6 parallel MPI-processes     *
           *              working on a common directory               *
           ************************************************************
-------------------------------------------------------------------------------
                                 ORCA SCF
-------------------------------------------------------------------------------

------------
SCF SETTINGS
------------
Hamiltonian:
 Ab initio Hamiltonian  Method          .... Hartree-Fock(GTOs)


General Settings:
 Integral files         IntName         .... 12h2o.su.etal.mol0,1,2,3,4,7,8-orca.engrad-mp2.def2tzvp.frozencore
 Hartree-Fock type      HFTyp           .... RHF
 Total Charge           Charge          ....    0
 Multiplicity           Mult            ....    1
 Number of Electrons    NEL             ....   70
 Basis Dimension        Dim             ....  301
 Nuclear Repulsion      ENuc            ....    336.5444611012 Eh

Convergence Acceleration:
 DIIS                   CNVDIIS         .... on
   Start iteration      DIISMaxIt       ....    12
   Startup error        DIISStart       ....  0.200000
   # of expansion vecs  DIISMaxEq       ....     5
   Bias factor          DIISBfac        ....   1.050
   Max. coefficient     DIISMaxC        ....  10.000
 Newton-Raphson         CNVNR           .... off
 SOSCF                  CNVSOSCF        .... on
   Start iteration      SOSCFMaxIt      ....   150
   Startup grad/error   SOSCFStart      ....  0.003300
 Level Shifting         CNVShift        .... on
   Level shift para.    LevelShift      ....    0.2500
   Turn off err/grad.   ShiftErr        ....    0.0010
 Zerner damping         CNVZerner       .... off
 Static damping         CNVDamp         .... on
   Fraction old density DampFac         ....    0.7000
   Max. Damping (<1)    DampMax         ....    0.9800
   Min. Damping (>=0)   DampMin         ....    0.0000
   Turn off err/grad.   DampErr         ....    0.1000
 Fernandez-Rico         CNVRico         .... off

SCF Procedure:
 Maximum # iterations   MaxIter         ....   125
 SCF integral mode      SCFMode         .... Direct
   Integral package                     .... LIBINT
 Reset frequency        DirectResetFreq ....    20
 Integral Threshold     Thresh          ....  2.500e-11 Eh
 Primitive CutOff       TCut            ....  2.500e-12 Eh

Convergence Tolerance:
 Convergence Check Mode ConvCheckMode   .... Total+1el-Energy
 Convergence forced     ConvForced      .... 1
 Energy Change          TolE            ....  1.000e-08 Eh
 1-El. energy change                    ....  1.000e-05 Eh
 Orbital Gradient       TolG            ....  1.000e-05
 Orbital Rotation angle TolX            ....  1.000e-05
 DIIS Error             TolErr          ....  5.000e-07


Diagonalization of the overlap matrix:
Smallest eigenvalue                        ... 4.077e-03
Time for diagonalization                   ...    0.014 sec
Threshold for overlap eigenvalues          ... 1.000e-08
Number of eigenvalues below threshold      ... 0
Time for construction of square roots      ...    0.007 sec
Total time needed                          ...    0.021 sec

-------------------
DFT GRID GENERATION
-------------------

General Integration Accuracy     IntAcc      ...  4.340
Radial Grid Type                 RadialGrid  ... Gauss-Chebyshev
Angular Grid (max. acc.)         AngularGrid ... Lebedev-110
Angular grid pruning method      GridPruning ... 3 (G Style)
Weight generation scheme         WeightScheme... Becke
Basis function cutoff            BFCut       ...    1.0000e-11
Integration weight cutoff        WCut        ...    1.0000e-14
Grids for H and He will be reduced by one unit

# of grid points (after initial pruning)     ...  23128 (   0.0 sec)
# of grid points (after weights+screening)   ...  21836 (   0.0 sec)
nearest neighbour list constructed           ...    0.0 sec
Grid point re-assignment to atoms done       ...    0.0 sec
Grid point division into batches done        ...    0.0 sec
Reduced shell lists constructed in    0.0 sec

Total number of grid points                  ...    21836
Total number of batches                      ...      352
Average number of points per batch           ...       62
Average number of grid points per atom       ...     1040
Average number of shells per batch           ...    51.32 (38.58%)
Average number of basis functions per batch  ...    98.45 (32.71%)
Average number of large shells per batch     ...    32.43 (63.20%)
Average number of large basis fcns per batch ...    63.77 (64.77%)
Maximum spatial batch extension              ...  14.53, 20.10, 16.21 au
Average spatial batch extension              ...   0.64,  0.75,  0.62 au

Time for grid setup =    0.078 sec

------------------------------
INITIAL GUESS: MODEL POTENTIAL
------------------------------
Loading Hartree-Fock densities                     ... done
Calculating cut-offs                               ... done
Setting up the integral package                    ... done
Initializing the effective Hamiltonian             ... done
Starting the Coulomb interaction                   ... done (   0.0 sec)
Reading the grid                                   ... done
Mapping shells                                     ... done
Starting the XC term evaluation                    ... done (   0.0 sec)
Transforming the Hamiltonian                       ... done (   0.0 sec)
Diagonalizing the Hamiltonian                      ... done (   0.0 sec)
Back transforming the eigenvectors                 ... done (   0.0 sec)
Now organizing SCF variables                       ... done
                      ------------------
                      INITIAL GUESS DONE (   0.2 sec)
                      ------------------
--------------
SCF ITERATIONS
--------------
ITER       Energy         Delta-E        Max-DP      RMS-DP      [F,P]     Damp
               ***  Starting incremental Fock matrix formation  ***
  0   -531.7979152832   0.000000000000 0.04382748  0.00090132  0.3511935 0.7000
  1   -532.0477481877  -0.249832904540 0.02908916  0.00062236  0.2165747 0.7000
                               ***Turning on DIIS***
  2   -532.1794601324  -0.131711944730 0.01663912  0.00034530  0.1637863 0.7000
  3   -533.3647153527  -1.185255220249 0.00767578  0.00015572  0.1218499 0.7000
  4   -533.1237138985   0.241001454166 0.01714999  0.00036019  0.0861670 0.0000
  5   -532.4823998441   0.641314054465 0.00209263  0.00005828  0.0054256 0.0000
                      *** Initiating the SOSCF procedure ***
                           *** Shutting down DIIS ***
                      *** Re-Reading the Fockian *** 
                      *** Removing any level shift *** 
ITER      Energy       Delta-E        Grad      Rot      Max-DP    RMS-DP
  6   -532.44467303   0.0377268155  0.000802  0.000802  0.001271  0.000035
               *** Restarting incremental Fock matrix formation ***
  7   -532.43303861   0.0116344137  0.000319  0.000448  0.000605  0.000016
  8   -532.43304900  -0.0000103805  0.000122  0.000372  0.000469  0.000013
  9   -532.43305149  -0.0000024915  0.000068  0.000039  0.000096  0.000002
 10   -532.43305170  -0.0000002103  0.000009  0.000007  0.000018  0.000000
                  ***Gradient check signals convergence***
              ***Rediagonalizing the Fockian in SOSCF/NRSCF***

               *****************************************************
               *                     SUCCESS                       *
               *           SCF CONVERGED AFTER  11 CYCLES          *
               *****************************************************


----------------
TOTAL SCF ENERGY
----------------

Total Energy       :         -532.43305170 Eh          -14488.23990 eV

Components:
Nuclear Repulsion  :          336.54446110 Eh            9157.84036 eV
Electronic Energy  :         -868.97751280 Eh          -23646.08027 eV
One Electron Energy:        -1406.25835740 Eh          -38266.23532 eV
Two Electron Energy:          537.28084460 Eh           14620.15506 eV

Virial components:
Potential Energy   :        -1064.09643972 Eh          -28955.53620 eV
Kinetic Energy     :          531.66338802 Eh           14467.29629 eV
Virial Ratio       :            2.00144765


---------------
SCF CONVERGENCE
---------------

  Last Energy change         ...   -4.2666e-09  Tolerance :   1.0000e-08
  Last MAX-Density change    ...    6.0389e-06  Tolerance :   1.0000e-07
  Last RMS-Density change    ...    1.3593e-07  Tolerance :   5.0000e-09
  Last Orbital Gradient      ...    1.8466e-06  Tolerance :   1.0000e-05
  Last Orbital Rotation      ...    2.6348e-06  Tolerance :   1.0000e-05

             **** THE GBW FILE WAS UPDATED (12h2o.su.etal.mol0,1,2,3,4,7,8-orca.engrad-mp2.def2tzvp.frozencore.gbw) ****
             **** DENSITY FILE WAS UPDATED (12h2o.su.etal.mol0,1,2,3,4,7,8-orca.engrad-mp2.def2tzvp.frozencore.scfp) ****
             **** ENERGY FILE WAS UPDATED (12h2o.su.etal.mol0,1,2,3,4,7,8-orca.engrad-mp2.def2tzvp.frozencore.en.tmp) ****
             **** THE GBW FILE WAS UPDATED (12h2o.su.etal.mol0,1,2,3,4,7,8-orca.engrad-mp2.def2tzvp.frozencore.gbw) ****
             **** DENSITY FILE WAS UPDATED (12h2o.su.etal.mol0,1,2,3,4,7,8-orca.engrad-mp2.def2tzvp.frozencore.scfp) ****
----------------
ORBITAL ENERGIES
----------------

  NO   OCC          E(Eh)            E(eV) 
   0   2.0000     -20.602312      -560.6174 
   1   2.0000     -20.592116      -560.3400 
   2   2.0000     -20.577842      -559.9516 
   3   2.0000     -20.563083      -559.5499 
   4   2.0000     -20.542218      -558.9822 
   5   2.0000     -20.527026      -558.5688 
   6   2.0000     -20.503659      -557.9329 
   7   2.0000      -1.381353       -37.5885 
   8   2.0000      -1.377994       -37.4971 
   9   2.0000      -1.362666       -37.0800 
  10   2.0000      -1.338438       -36.4208 
  11   2.0000      -1.326279       -36.0899 
  12   2.0000      -1.307609       -35.5819 
  13   2.0000      -1.288624       -35.0652 
  14   2.0000      -0.747400       -20.3378 
  15   2.0000      -0.734527       -19.9875 
  16   2.0000      -0.726634       -19.7727 
  17   2.0000      -0.711076       -19.3494 
  18   2.0000      -0.706451       -19.2235 
  19   2.0000      -0.683146       -18.5893 
  20   2.0000      -0.666380       -18.1331 
  21   2.0000      -0.625845       -17.0301 
  22   2.0000      -0.617922       -16.8145 
  23   2.0000      -0.599039       -16.3007 
  24   2.0000      -0.575418       -15.6579 
  25   2.0000      -0.574296       -15.6274 
  26   2.0000      -0.560850       -15.2615 
  27   2.0000      -0.545376       -14.8404 
  28   2.0000      -0.529495       -14.4083 
  29   2.0000      -0.519620       -14.1396 
  30   2.0000      -0.510327       -13.8867 
  31   2.0000      -0.506459       -13.7815 
  32   2.0000      -0.488178       -13.2840 
  33   2.0000      -0.474999       -12.9254 
  34   2.0000      -0.453816       -12.3490 
  35   0.0000       0.089863         2.4453 
  36   0.0000       0.113693         3.0937 
  37   0.0000       0.136135         3.7044 
  38   0.0000       0.156707         4.2642 
  39   0.0000       0.167760         4.5650 
  40   0.0000       0.180401         4.9090 
  41   0.0000       0.194998         5.3062 
  42   0.0000       0.208251         5.6668 
  43   0.0000       0.236362         6.4317 
  44   0.0000       0.247947         6.7470 
  45   0.0000       0.269472         7.3327 
  46   0.0000       0.329877         8.9764 
  47   0.0000       0.334101         9.0913 
  48   0.0000       0.343360         9.3433 
  49   0.0000       0.443643        12.0721 
  50   0.0000       0.466106        12.6834 
  51   0.0000       0.486008        13.2249 
  52   0.0000       0.506728        13.7888 
  53   0.0000       0.525677        14.3044 
  54   0.0000       0.527071        14.3423 
  55   0.0000       0.535264        14.5653 
  56   0.0000       0.545940        14.8558 
  57   0.0000       0.549654        14.9568 
  58   0.0000       0.564197        15.3526 
  59   0.0000       0.572064        15.5666 
  60   0.0000       0.580766        15.8034 
  61   0.0000       0.588075        16.0023 
  62   0.0000       0.598877        16.2963 
  63   0.0000       0.610632        16.6161 
  64   0.0000       0.627052        17.0630 
  65   0.0000       0.627791        17.0830 
  66   0.0000       0.638996        17.3880 
  67   0.0000       0.644866        17.5477 
  68   0.0000       0.651779        17.7358 
  69   0.0000       0.667557        18.1651 
  70   0.0000       0.700789        19.0694 
  71   0.0000       0.716974        19.5098 
  72   0.0000       0.719034        19.5659 
  73   0.0000       0.735675        20.0187 
  74   0.0000       0.745053        20.2739 
  75   0.0000       0.759871        20.6771 
  76   0.0000       0.775311        21.0973 
  77   0.0000       0.786510        21.4020 
  78   0.0000       0.787974        21.4419 
  79   0.0000       0.798034        21.7156 
  80   0.0000       0.807472        21.9724 
  81   0.0000       0.822292        22.3757 
  82   0.0000       0.843986        22.9660 
  83   0.0000       0.854940        23.2641 
  84   0.0000       0.905214        24.6321 
  85   0.0000       0.947553        25.7842 
  86   0.0000       0.966875        26.3100 
  87   0.0000       0.999978        27.2108 
  88   0.0000       1.034390        28.1472 
  89   0.0000       1.056759        28.7559 
  90   0.0000       1.083456        29.4823 
  91   0.0000       1.362019        37.0624 
  92   0.0000       1.373739        37.3813 
  93   0.0000       1.382027        37.6069 
  94   0.0000       1.390331        37.8328 
  95   0.0000       1.401002        38.1232 
  96   0.0000       1.423906        38.7465 
  97   0.0000       1.429524        38.8993 
  98   0.0000       1.435362        39.0582 
  99   0.0000       1.452808        39.5329 
 100   0.0000       1.462142        39.7869 
 101   0.0000       1.474365        40.1195 
 102   0.0000       1.484710        40.4010 
 103   0.0000       1.500829        40.8396 
 104   0.0000       1.544258        42.0214 
 105   0.0000       1.550433        42.1894 
 106   0.0000       1.553912        42.2841 
 107   0.0000       1.574649        42.8484 
 108   0.0000       1.601792        43.5870 
 109   0.0000       1.609766        43.8040 
 110   0.0000       1.623536        44.1787 
 111   0.0000       1.663494        45.2660 
 112   0.0000       1.791958        48.7617 
 113   0.0000       1.794389        48.8278 
 114   0.0000       1.825867        49.6844 
 115   0.0000       1.827181        49.7201 
 116   0.0000       1.847331        50.2684 
 117   0.0000       1.874289        51.0020 
 118   0.0000       1.882050        51.2132 
 119   0.0000       1.896603        51.6092 
 120   0.0000       1.909790        51.9680 
 121   0.0000       1.952912        53.1414 
 122   0.0000       1.964298        53.4513 
 123   0.0000       1.982811        53.9550 
 124   0.0000       1.999485        54.4088 
 125   0.0000       2.012761        54.7700 
 126   0.0000       2.037584        55.4455 
 127   0.0000       2.043623        55.6098 
 128   0.0000       2.064547        56.1792 
 129   0.0000       2.093188        56.9585 
 130   0.0000       2.139006        58.2053 
 131   0.0000       2.161535        58.8184 
 132   0.0000       2.192410        59.6585 
 133   0.0000       2.240046        60.9547 
 134   0.0000       2.262676        61.5705 
 135   0.0000       2.302309        62.6490 
 136   0.0000       2.304569        62.7105 
 137   0.0000       2.315992        63.0213 
 138   0.0000       2.320526        63.1447 
 139   0.0000       2.326797        63.3154 
 140   0.0000       2.331608        63.4463 
 141   0.0000       2.343456        63.7687 
 142   0.0000       2.356595        64.1262 
 143   0.0000       2.361280        64.2537 
 144   0.0000       2.380360        64.7729 
 145   0.0000       2.389825        65.0304 
 146   0.0000       2.393262        65.1240 
 147   0.0000       2.411694        65.6255 
 148   0.0000       2.444129        66.5081 
 149   0.0000       2.486745        67.6678 
 150   0.0000       2.501520        68.0698 
 151   0.0000       2.523509        68.6682 
 152   0.0000       2.555541        69.5398 
 153   0.0000       2.573898        70.0393 
 154   0.0000       2.581871        70.2563 
 155   0.0000       2.592374        70.5421 
 156   0.0000       2.605167        70.8902 
 157   0.0000       2.617488        71.2255 
 158   0.0000       2.630854        71.5892 
 159   0.0000       2.651652        72.1551 
 160   0.0000       2.662548        72.4516 
 161   0.0000       2.674859        72.7866 
 162   0.0000       2.692869        73.2767 
 163   0.0000       2.701505        73.5117 
 164   0.0000       2.735146        74.4271 
 165   0.0000       2.744295        74.6761 
 166   0.0000       2.769181        75.3532 
 167   0.0000       2.808340        76.4188 
 168   0.0000       2.873070        78.1802 
 169   0.0000       2.903341        79.0039 
 170   0.0000       2.917037        79.3766 
 171   0.0000       2.931462        79.7691 
 172   0.0000       2.939388        79.9848 
 173   0.0000       2.956597        80.4531 
 174   0.0000       2.961135        80.5766 
 175   0.0000       2.982470        81.1571 
 176   0.0000       3.002626        81.7056 
 177   0.0000       3.014414        82.0264 
 178   0.0000       3.018646        82.1415 
 179   0.0000       3.035528        82.6009 
 180   0.0000       3.039301        82.7036 
 181   0.0000       3.065874        83.4267 
 182   0.0000       3.077601        83.7458 
 183   0.0000       3.119341        84.8816 
 184   0.0000       3.129160        85.1488 
 185   0.0000       3.151762        85.7638 
 186   0.0000       3.171047        86.2886 
 187   0.0000       3.195005        86.9405 
 188   0.0000       3.202568        87.1463 
 189   0.0000       3.236577        88.0717 
 190   0.0000       3.262693        88.7824 
 191   0.0000       3.301771        89.8457 
 192   0.0000       3.330638        90.6313 
 193   0.0000       3.369089        91.6776 
 194   0.0000       3.455578        94.0311 
 195   0.0000       3.506644        95.4206 
 196   0.0000       3.961908       107.8090 
 197   0.0000       3.987606       108.5083 
 198   0.0000       4.008408       109.0743 
 199   0.0000       4.058908       110.4485 
 200   0.0000       4.092155       111.3532 
 201   0.0000       4.112244       111.8998 
 202   0.0000       4.134148       112.4959 
 203   0.0000       4.274236       116.3079 
 204   0.0000       4.282271       116.5265 
 205   0.0000       4.299795       117.0034 
 206   0.0000       4.312600       117.3518 
 207   0.0000       4.370859       118.9371 
 208   0.0000       4.373887       119.0195 
 209   0.0000       4.391503       119.4989 
 210   0.0000       5.514103       150.0464 
 211   0.0000       5.515809       150.0928 
 212   0.0000       5.528486       150.4378 
 213   0.0000       5.550452       151.0355 
 214   0.0000       5.561142       151.3264 
 215   0.0000       5.578427       151.7967 
 216   0.0000       5.599409       152.3677 
 217   0.0000       5.600036       152.3847 
 218   0.0000       5.639659       153.4629 
 219   0.0000       5.652647       153.8164 
 220   0.0000       5.659944       154.0149 
 221   0.0000       5.668579       154.2499 
 222   0.0000       5.686458       154.7364 
 223   0.0000       5.706424       155.2797 
 224   0.0000       5.775493       157.1592 
 225   0.0000       5.799740       157.8190 
 226   0.0000       5.801669       157.8714 
 227   0.0000       5.806185       157.9943 
 228   0.0000       5.810499       158.1117 
 229   0.0000       5.813315       158.1883 
 230   0.0000       5.847815       159.1271 
 231   0.0000       5.849475       159.1723 
 232   0.0000       5.849908       159.1841 
 233   0.0000       5.853267       159.2755 
 234   0.0000       5.863142       159.5442 
 235   0.0000       5.866484       159.6351 
 236   0.0000       5.875065       159.8687 
 237   0.0000       5.881291       160.0381 
 238   0.0000       5.890584       160.2909 
 239   0.0000       5.899214       160.5258 
 240   0.0000       5.918084       161.0392 
 241   0.0000       5.927779       161.3031 
 242   0.0000       5.933109       161.4481 
 243   0.0000       5.946613       161.8156 
 244   0.0000       5.956691       162.0898 
 245   0.0000       6.393204       173.9679 
 246   0.0000       6.432242       175.0302 
 247   0.0000       6.452481       175.5809 
 248   0.0000       6.458431       175.7428 
 249   0.0000       6.484302       176.4468 
 250   0.0000       6.500664       176.8921 
 251   0.0000       6.545485       178.1117 
 252   0.0000       6.660084       181.2301 
 253   0.0000       6.677697       181.7094 
 254   0.0000       6.683530       181.8681 
 255   0.0000       6.698866       182.2854 
 256   0.0000       6.719861       182.8567 
 257   0.0000       6.748582       183.6382 
 258   0.0000       6.771000       184.2483 
 259   0.0000       6.821476       185.6218 
 260   0.0000       6.837484       186.0574 
 261   0.0000       6.843385       186.2180 
 262   0.0000       6.847479       186.3294 
 263   0.0000       6.869401       186.9259 
 264   0.0000       6.877697       187.1517 
 265   0.0000       6.885899       187.3748 
 266   0.0000       6.889841       187.4821 
 267   0.0000       6.890664       187.5045 
 268   0.0000       6.898671       187.7224 
 269   0.0000       6.907210       187.9548 
 270   0.0000       6.923852       188.4076 
 271   0.0000       6.929801       188.5695 
 272   0.0000       6.931556       188.6172 
 273   0.0000       6.946159       189.0146 
 274   0.0000       6.963655       189.4907 
 275   0.0000       6.992479       190.2750 
 276   0.0000       6.998370       190.4353 
 277   0.0000       7.014418       190.8720 
 278   0.0000       7.061799       192.1613 
 279   0.0000       7.065775       192.2695 
 280   0.0000       7.341569       199.7743 
 281   0.0000       7.375174       200.6887 
 282   0.0000       7.382693       200.8933 
 283   0.0000       7.395959       201.2543 
 284   0.0000       7.440674       202.4710 
 285   0.0000       7.458038       202.9435 
 286   0.0000       7.472285       203.3312 
 287   0.0000       7.479718       203.5335 
 288   0.0000       7.494623       203.9391 
 289   0.0000       7.500902       204.1099 
 290   0.0000       7.566891       205.9056 
 291   0.0000       7.581483       206.3027 
 292   0.0000       7.592102       206.5916 
 293   0.0000       7.637506       207.8271 
 294   0.0000      44.812564      1219.4118 
 295   0.0000      44.853230      1220.5184 
 296   0.0000      44.918566      1222.2963 
 297   0.0000      44.982155      1224.0267 
 298   0.0000      44.997482      1224.4437 
 299   0.0000      45.009250      1224.7640 
 300   0.0000      45.044946      1225.7353 

                    ********************************
                    * MULLIKEN POPULATION ANALYSIS *
                    ********************************

-----------------------
MULLIKEN ATOMIC CHARGES
-----------------------
   0 O :   -0.714741
   1 H :    0.345983
   2 H :    0.368318
   3 O :   -0.723858
   4 H :    0.365037
   5 H :    0.371005
   6 O :   -0.771350
   7 H :    0.348182
   8 H :    0.404876
   9 O :   -0.766358
  10 H :    0.379110
  11 H :    0.370663
  12 O :   -0.745100
  13 H :    0.332629
  14 H :    0.389968
  15 O :   -0.758451
  16 H :    0.403850
  17 H :    0.366676
  18 O :   -0.718300
  19 H :    0.376068
  20 H :    0.375793
Sum of atomic charges:   -0.0000000

--------------------------------
MULLIKEN REDUCED ORBITAL CHARGES
--------------------------------
  0 O s       :     3.814115  s :     3.814115
      pz      :     1.722053  p :     4.873787
      px      :     1.358122
      py      :     1.793611
      dz2     :     0.004445  d :     0.025294
      dxz     :     0.004908
      dyz     :     0.005839
      dx2y2   :     0.002536
      dxy     :     0.007566
      f0      :     0.000092  f :     0.001545
      f+1     :     0.000345
      f-1     :     0.000193
      f+2     :     0.000070
      f-2     :     0.000359
      f+3     :     0.000098
      f-3     :     0.000389
  1 H s       :     0.608171  s :     0.608171
      pz      :     0.017274  p :     0.045846
      px      :     0.013520
      py      :     0.015052
  2 H s       :     0.589723  s :     0.589723
      pz      :     0.011162  p :     0.041958
      px      :     0.017878
      py      :     0.012918
  3 O s       :     3.810958  s :     3.810958
      pz      :     1.718794  p :     4.886806
      px      :     1.364098
      py      :     1.803913
      dz2     :     0.003925  d :     0.024582
      dxz     :     0.004258
      dyz     :     0.005764
      dx2y2   :     0.002503
      dxy     :     0.008132
      f0      :     0.000082  f :     0.001513
      f+1     :     0.000329
      f-1     :     0.000185
      f+2     :     0.000071
      f-2     :     0.000349
      f+3     :     0.000100
      f-3     :     0.000397
  4 H s       :     0.589590  s :     0.589590
      pz      :     0.017031  p :     0.045373
      px      :     0.013476
      py      :     0.014866
  5 H s       :     0.587421  s :     0.587421
      pz      :     0.010655  p :     0.041575
      px      :     0.017835
      py      :     0.013084
  6 O s       :     3.806800  s :     3.806800
      pz      :     1.730097  p :     4.940155
      px      :     1.784255
      py      :     1.425803
      dz2     :     0.003981  d :     0.022965
      dxz     :     0.005256
      dyz     :     0.004765
      dx2y2   :     0.002315
      dxy     :     0.006648
      f0      :     0.000089  f :     0.001430
      f+1     :     0.000177
      f-1     :     0.000332
      f+2     :     0.000062
      f-2     :     0.000356
      f+3     :     0.000332
      f-3     :     0.000082
  7 H s       :     0.606065  s :     0.606065
      pz      :     0.017089  p :     0.045753
      px      :     0.014929
      py      :     0.013735
  8 H s       :     0.538999  s :     0.538999
      pz      :     0.010614  p :     0.056125
      px      :     0.013257
      py      :     0.032254
  9 O s       :     3.805881  s :     3.805881
      pz      :     1.545765  p :     4.934555
      px      :     1.567921
      py      :     1.820869
      dz2     :     0.011428  d :     0.024488
      dxz     :     0.001235
      dyz     :     0.002827
      dx2y2   :     0.001994
      dxy     :     0.007004
      f0      :     0.000253  f :     0.001433
      f+1     :     0.000371
      f-1     :     0.000159
      f+2     :     0.000056
      f-2     :     0.000054
      f+3     :     0.000062
      f-3     :     0.000478
 10 H s       :     0.572351  s :     0.572351
      pz      :     0.023842  p :     0.048540
      px      :     0.011592
      py      :     0.013106
 11 H s       :     0.578789  s :     0.578789
      pz      :     0.010116  p :     0.050548
      px      :     0.023895
      py      :     0.016537
 12 O s       :     3.811125  s :     3.811125
      pz      :     1.522440  p :     4.907708
      px      :     1.876722
      py      :     1.508546
      dz2     :     0.011441  d :     0.024818
      dxz     :     0.002522
      dyz     :     0.002942
      dx2y2   :     0.002969
      dxy     :     0.004943
      f0      :     0.000186  f :     0.001450
      f+1     :     0.000125
      f-1     :     0.000453
      f+2     :     0.000077
      f-2     :     0.000042
      f+3     :     0.000450
      f-3     :     0.000117
 13 H s       :     0.622345  s :     0.622345
      pz      :     0.018232  p :     0.045026
      px      :     0.014509
      py      :     0.012286
 14 H s       :     0.556312  s :     0.556312
      pz      :     0.009488  p :     0.053720
      px      :     0.015533
      py      :     0.028699
 15 O s       :     3.803375  s :     3.803375
      pz      :     1.610037  p :     4.929759
      px      :     1.467840
      py      :     1.851882
      dz2     :     0.010621  d :     0.023931
      dxz     :     0.002577
      dyz     :     0.002136
      dx2y2   :     0.003494
      dxy     :     0.005103
      f0      :     0.000165  f :     0.001386
      f+1     :     0.000440
      f-1     :     0.000113
      f+2     :     0.000069
      f-2     :     0.000036
      f+3     :     0.000109
      f-3     :     0.000454
 16 H s       :     0.547786  s :     0.547786
      pz      :     0.025072  p :     0.048364
      px      :     0.010867
      py      :     0.012425
 17 H s       :     0.591320  s :     0.591320
      pz      :     0.009413  p :     0.042004
      px      :     0.018547
      py      :     0.014044
 18 O s       :     3.799913  s :     3.799913
      pz      :     1.534456  p :     4.891204
      px      :     1.565160
      py      :     1.791587
      dz2     :     0.012528  d :     0.025740
      dxz     :     0.001231
      dyz     :     0.002436
      dx2y2   :     0.002434
      dxy     :     0.007111
      f0      :     0.000248  f :     0.001444
      f+1     :     0.000394
      f-1     :     0.000162
      f+2     :     0.000052
      f-2     :     0.000057
      f+3     :     0.000052
      f-3     :     0.000479
 19 H s       :     0.580477  s :     0.580477
      pz      :     0.019607  p :     0.043455
      px      :     0.011487
      py      :     0.012361
 20 H s       :     0.581070  s :     0.581070
      pz      :     0.010074  p :     0.043137
      px      :     0.018569
      py      :     0.014493


                     *******************************
                     * LOEWDIN POPULATION ANALYSIS *
                     *******************************

----------------------
LOEWDIN ATOMIC CHARGES
----------------------
   0 O :   -0.343760
   1 H :    0.156932
   2 H :    0.185838
   3 O :   -0.315402
   4 H :    0.164997
   5 H :    0.188171
   6 O :   -0.347980
   7 H :    0.154332
   8 H :    0.154985
   9 O :   -0.362686
  10 H :    0.151311
  11 H :    0.148484
  12 O :   -0.363143
  13 H :    0.155029
  14 H :    0.152289
  15 O :   -0.295501
  16 H :    0.162065
  17 H :    0.177967
  18 O :   -0.279804
  19 H :    0.177944
  20 H :    0.177929

-------------------------------
LOEWDIN REDUCED ORBITAL CHARGES
-------------------------------
  0 O s       :     3.474885  s :     3.474885
      pz      :     1.706626  p :     4.834508
      px      :     1.354400
      py      :     1.773482
      dz2     :     0.004957  d :     0.032246
      dxz     :     0.007370
      dyz     :     0.005941
      dx2y2   :     0.003912
      dxy     :     0.010066
      f0      :     0.000078  f :     0.002120
      f+1     :     0.000459
      f-1     :     0.000277
      f+2     :     0.000036
      f-2     :     0.000628
      f+3     :     0.000093
      f-3     :     0.000549
  1 H s       :     0.680258  s :     0.680258
      pz      :     0.066109  p :     0.162810
      px      :     0.043959
      py      :     0.052741
  2 H s       :     0.666146  s :     0.666146
      pz      :     0.033255  p :     0.148016
      px      :     0.071209
      py      :     0.043552
  3 O s       :     3.467686  s :     3.467686
      pz      :     1.681760  p :     4.813784
      px      :     1.357285
      py      :     1.774739
      dz2     :     0.005248  d :     0.031845
      dxz     :     0.006671
      dyz     :     0.005726
      dx2y2   :     0.003818
      dxy     :     0.010382
      f0      :     0.000086  f :     0.002088
      f+1     :     0.000445
      f-1     :     0.000271
      f+2     :     0.000035
      f-2     :     0.000604
      f+3     :     0.000092
      f-3     :     0.000555
  4 H s       :     0.671609  s :     0.671609
      pz      :     0.066343  p :     0.163394
      px      :     0.044278
      py      :     0.052773
  5 H s       :     0.663415  s :     0.663415
      pz      :     0.033295  p :     0.148414
      px      :     0.071507
      py      :     0.043612
  6 O s       :     3.461207  s :     3.461207
      pz      :     1.709621  p :     4.855679
      px      :     1.747272
      py      :     1.398786
      dz2     :     0.004359  d :     0.029113
      dxz     :     0.005389
      dyz     :     0.006982
      dx2y2   :     0.003720
      dxy     :     0.008663
      f0      :     0.000074  f :     0.001980
      f+1     :     0.000265
      f-1     :     0.000440
      f+2     :     0.000032
      f-2     :     0.000620
      f+3     :     0.000466
      f-3     :     0.000083
  7 H s       :     0.680788  s :     0.680788
      pz      :     0.065804  p :     0.164879
      px      :     0.053175
      py      :     0.045900
  8 H s       :     0.649858  s :     0.649858
      pz      :     0.033446  p :     0.195157
      px      :     0.047506
      py      :     0.114206
  9 O s       :     3.460271  s :     3.460271
      pz      :     1.531175  p :     4.870626
      px      :     1.547075
      py      :     1.792377
      dz2     :     0.014880  d :     0.029772
      dxz     :     0.001967
      dyz     :     0.002198
      dx2y2   :     0.002060
      dxy     :     0.008667
      f0      :     0.000452  f :     0.002017
      f+1     :     0.000544
      f-1     :     0.000303
      f+2     :     0.000023
      f-2     :     0.000048
      f+3     :     0.000002
      f-3     :     0.000646
 10 H s       :     0.677944  s :     0.677944
      pz      :     0.091365  p :     0.170745
      px      :     0.037000
      py      :     0.042381
 11 H s       :     0.676668  s :     0.676668
      pz      :     0.030988  p :     0.174848
      px      :     0.085843
      py      :     0.058017
 12 O s       :     3.470668  s :     3.470668
      pz      :     1.536062  p :     4.859723
      px      :     1.838764
      py      :     1.484896
      dz2     :     0.014943  d :     0.030696
      dxz     :     0.001692
      dyz     :     0.004412
      dx2y2   :     0.003774
      dxy     :     0.005875
      f0      :     0.000398  f :     0.002057
      f+1     :     0.000193
      f-1     :     0.000757
      f+2     :     0.000049
      f-2     :     0.000045
      f+3     :     0.000549
      f-3     :     0.000065
 13 H s       :     0.686282  s :     0.686282
      pz      :     0.078239  p :     0.158690
      px      :     0.043728
      py      :     0.036723
 14 H s       :     0.663434  s :     0.663434
      pz      :     0.028959  p :     0.184277
      px      :     0.052461
      py      :     0.102857
 15 O s       :     3.457610  s :     3.457610
      pz      :     1.562986  p :     4.804608
      px      :     1.454069
      py      :     1.787553
      dz2     :     0.014492  d :     0.031269
      dxz     :     0.003623
      dyz     :     0.001304
      dx2y2   :     0.005269
      dxy     :     0.006582
      f0      :     0.000332  f :     0.002014
      f+1     :     0.000705
      f-1     :     0.000202
      f+2     :     0.000037
      f-2     :     0.000042
      f+3     :     0.000074
      f-3     :     0.000622
 16 H s       :     0.664919  s :     0.664919
      pz      :     0.094840  p :     0.173016
      px      :     0.035762
      py      :     0.042414
 17 H s       :     0.667180  s :     0.667180
      pz      :     0.030558  p :     0.154853
      px      :     0.075033
      py      :     0.049262
 18 O s       :     3.457178  s :     3.457178
      pz      :     1.522327  p :     4.787545
      px      :     1.536526
      py      :     1.728692
      dz2     :     0.016433  d :     0.032908
      dxz     :     0.001960
      dyz     :     0.001929
      dx2y2   :     0.003599
      dxy     :     0.008988
      f0      :     0.000448  f :     0.002172
      f+1     :     0.000585
      f-1     :     0.000343
      f+2     :     0.000022
      f-2     :     0.000049
      f+3     :     0.000027
      f-3     :     0.000699
 19 H s       :     0.663171  s :     0.663171
      pz      :     0.081932  p :     0.158885
      px      :     0.035558
      py      :     0.041395
 20 H s       :     0.664046  s :     0.664046
      pz      :     0.029703  p :     0.158025
      px      :     0.073367
      py      :     0.054955


                      *****************************
                      * MAYER POPULATION ANALYSIS *
                      *****************************

  NA   - Mulliken gross atomic population
  ZA   - Total nuclear charge
  QA   - Mulliken gross atomic charge
  VA   - Mayer's total valence
  BVA  - Mayer's bonded valence
  FA   - Mayer's free valence

  ATOM       NA         ZA         QA         VA         BVA        FA
  0 O      8.7147     8.0000    -0.7147     1.7623     1.7623    -0.0000
  1 H      0.6540     1.0000     0.3460     0.8952     0.8952     0.0000
  2 H      0.6317     1.0000     0.3683     0.8789     0.8789    -0.0000
  3 O      8.7239     8.0000    -0.7239     1.7658     1.7658     0.0000
  4 H      0.6350     1.0000     0.3650     0.8821     0.8821    -0.0000
  5 H      0.6290     1.0000     0.3710     0.8774     0.8774    -0.0000
  6 O      8.7714     8.0000    -0.7714     1.6959     1.6959    -0.0000
  7 H      0.6518     1.0000     0.3482     0.8955     0.8955    -0.0000
  8 H      0.5951     1.0000     0.4049     0.8686     0.8686    -0.0000
  9 O      8.7664     8.0000    -0.7664     1.7179     1.7179     0.0000
 10 H      0.6209     1.0000     0.3791     0.8784     0.8784     0.0000
 11 H      0.6293     1.0000     0.3707     0.8988     0.8988    -0.0000
 12 O      8.7451     8.0000    -0.7451     1.7222     1.7222     0.0000
 13 H      0.6674     1.0000     0.3326     0.9060     0.9060     0.0000
 14 H      0.6100     1.0000     0.3900     0.8823     0.8823     0.0000
 15 O      8.7585     8.0000    -0.7585     1.7340     1.7340     0.0000
 16 H      0.5961     1.0000     0.4039     0.8672     0.8672     0.0000
 17 H      0.6333     1.0000     0.3667     0.8836     0.8836     0.0000
 18 O      8.7183     8.0000    -0.7183     1.7702     1.7702    -0.0000
 19 H      0.6239     1.0000     0.3761     0.8738     0.8738    -0.0000
 20 H      0.6242     1.0000     0.3758     0.8788     0.8788    -0.0000

  Mayer bond orders larger than 0.100000
B(  0-O ,  1-H ) :   0.8894 B(  0-O ,  2-H ) :   0.8692 B(  3-O ,  4-H ) :   0.8746 
B(  3-O ,  5-H ) :   0.8656 B(  6-O ,  7-H ) :   0.8870 B(  6-O ,  8-H ) :   0.7994 
B(  9-O , 10-H ) :   0.8617 B(  9-O , 11-H ) :   0.8517 B( 12-O , 13-H ) :   0.8985 
B( 12-O , 14-H ) :   0.8287 B( 15-O , 16-H ) :   0.8268 B( 15-O , 17-H ) :   0.8682 
B( 18-O , 19-H ) :   0.8656 B( 18-O , 20-H ) :   0.8632 

-------
TIMINGS
-------

Total SCF time: 0 days 0 hours 0 min 15 sec 

Total time                  ....      15.304 sec
Sum of individual times     ....      15.043 sec  ( 98.3%)

Fock matrix formation       ....      14.576 sec  ( 95.2%)
Diagonalization             ....       0.112 sec  (  0.7%)
Density matrix formation    ....       0.013 sec  (  0.1%)
Population analysis         ....       0.011 sec  (  0.1%)
Initial guess               ....       0.162 sec  (  1.1%)
Orbital Transformation      ....       0.000 sec  (  0.0%)
Orbital Orthonormalization  ....       0.000 sec  (  0.0%)
DIIS solution               ....       0.041 sec  (  0.3%)
SOSCF solution              ....       0.049 sec  (  0.3%)


           ************************************************************
           *        Program running with 6 parallel MPI-processes     *
           *              working on a common directory               *
           ************************************************************

------------------------------------------------------------------------------
                                ORCA  MP2 
------------------------------------------------------------------------------

Freezing NCore=14 chemical core electrons
MP2 will be done in the AO integral direct mode
The Q1-step will be done using symmetric double matrices
Dimension of the basis                    ...  301
Memory devoted for MP2                    ... 8000 MB   
Memory needed for all in one shot         ...  523 MB
Number of MOs that can be treated together...   75      
MP2 density construction                  ... relaxed
The MP2 gradient is requested => amplitudes will be stored on disk
Total number of MOs              ...   28
Number of MOs treated per batch  ...    5 
Number of batches necessary      ...    1 
OPERATORS   0/  0 PASS   0
-----------------------------------------------
 MP2 CORRELATION ENERGY   :     -1.805465294 Eh
-----------------------------------------------


---------------------
MP2 DENSITY FORMATION
---------------------

Completing the external part of the density      ... done
Storing the unrelaxed density                    ... done

Calculating G(D)                                 ... done
Completing the Lagrangian                        ... done
Solving the Z-vector equations                   ... 

------------------------------------------------------------------------------
                           ORCA CP-SCF CALCULATION
------------------------------------------------------------------------------

Input orbitals are from        ... 12h2o.su.etal.mol0,1,2,3,4,7,8-orca.engrad-mp2.def2tzvp.frozencore.gbw
Input Perturbation             ... 12h2o.su.etal.mol0,1,2,3,4,7,8-orca.engrad-mp2.def2tzvp.frozencore.pin.tmp
Wavefunction output            ... 12h2o.su.etal.mol0,1,2,3,4,7,8-orca.engrad-mp2.def2tzvp.frozencore.pout.tmp
Perturbation mode              ... Real perturbation (singlet)
Solver                         ... POPLE
Max. number of iterations      ... 128
Convergence tolerance          ... 1.000e-08
Integral handling              ... Direct
Number of perturbations        ... 1
Number of operators            ... 1
Orbital ranges used for CP-SCF:
 Operator 0:  Orbitals   0... 34  to  35...300
Variables per vector in CP-SCF ... 9310
Number of vectors sought       ... 1
     CP-SCF ITERATION   0: 
     CP-SCF ITERATION   1:      0.000877636019
     CP-SCF ITERATION   2:      0.000021600757
     CP-SCF ITERATION   3:      0.000001142282
     CP-SCF ITERATION   4:      0.000000092275
     CP-SCF ITERATION   5:      0.000000007731
                                                 ... done
Finalizing the relaxed density                   ... done
Transforming P to the AO basis                   ... done
Storing the relaxed density                      ... done

------------------------------------
ENERGY WEIGHTED DENSITY FINALIZATION
------------------------------------

Gathering the parts of the W-matrix              ...                                                      done
Forming the Z-density                            ... done
Transforming Z to the AO basis                   ... done
Calculating G(Z)                                 ... done
Finalizing the W-matrix                          ...                                                      done
Transforming W to the AO basis and storing       ... done

                *********************************************
                * UNRELAXED MP2 DENSITY POPULATION ANALYSIS *
                *********************************************

------------------------------------------------------------------------------
                           ORCA POPULATION ANALYSIS
------------------------------------------------------------------------------
Input electron density              ... 12h2o.su.etal.mol0,1,2,3,4,7,8-orca.engrad-mp2.def2tzvp.frozencore.pmp2ur
BaseName (.gbw .S,...)              ... 12h2o.su.etal.mol0,1,2,3,4,7,8-orca.engrad-mp2.def2tzvp.frozencore

                    ********************************
                    * MULLIKEN POPULATION ANALYSIS *
                    ********************************

-----------------------
MULLIKEN ATOMIC CHARGES
-----------------------
   0 O :   -0.709855
   1 H :    0.343835
   2 H :    0.365581
   3 O :   -0.718461
   4 H :    0.362877
   5 H :    0.368181
   6 O :   -0.765243
   7 H :    0.345884
   8 H :    0.400395
   9 O :   -0.760445
  10 H :    0.376189
  11 H :    0.367123
  12 O :   -0.739372
  13 H :    0.330093
  14 H :    0.385847
  15 O :   -0.752033
  16 H :    0.400875
  17 H :    0.363841
  18 O :   -0.712064
  19 H :    0.373630
  20 H :    0.373122
Sum of atomic charges:    0.0000000

--------------------------------
MULLIKEN REDUCED ORBITAL CHARGES
--------------------------------
  0 O s       :     3.809342  s :     3.809342
      pz      :     1.711604  p :     4.844741
      px      :     1.350690
      py      :     1.782447
      dz2     :     0.009792  d :     0.051689
      dxz     :     0.010154
      dyz     :     0.011115
      dx2y2   :     0.007852
      dxy     :     0.012775
      f0      :     0.000458  f :     0.004083
      f+1     :     0.000704
      f-1     :     0.000555
      f+2     :     0.000435
      f-2     :     0.000721
      f+3     :     0.000465
      f-3     :     0.000745
  1 H s       :     0.608689  s :     0.608689
      pz      :     0.017774  p :     0.047476
      px      :     0.013925
      py      :     0.015776
  2 H s       :     0.590903  s :     0.590903
      pz      :     0.012011  p :     0.043516
      px      :     0.017821
      py      :     0.013684
  3 O s       :     3.806160  s :     3.806160
      pz      :     1.707839  p :     4.856809
      px      :     1.356403
      py      :     1.792567
      dz2     :     0.009452  d :     0.051426
      dxz     :     0.009625
      dyz     :     0.011162
      dx2y2   :     0.007851
      dxy     :     0.013336
      f0      :     0.000453  f :     0.004066
      f+1     :     0.000690
      f-1     :     0.000550
      f+2     :     0.000437
      f-2     :     0.000713
      f+3     :     0.000468
      f-3     :     0.000754
  4 H s       :     0.590200  s :     0.590200
      pz      :     0.017491  p :     0.046922
      px      :     0.013857
      py      :     0.015574
  5 H s       :     0.588714  s :     0.588714
      pz      :     0.011481  p :     0.043106
      px      :     0.017765
      py      :     0.013861
  6 O s       :     3.801848  s :     3.801848
      pz      :     1.719470  p :     4.908948
      px      :     1.772313
      py      :     1.417165
      dz2     :     0.009493  d :     0.050434
      dxz     :     0.010707
      dyz     :     0.010171
      dx2y2   :     0.007945
      dxy     :     0.012119
      f0      :     0.000459  f :     0.004012
      f+1     :     0.000542
      f-1     :     0.000697
      f+2     :     0.000433
      f-2     :     0.000722
      f+3     :     0.000700
      f-3     :     0.000459
  7 H s       :     0.606709  s :     0.606709
      pz      :     0.017576  p :     0.047407
      px      :     0.015648
      py      :     0.014182
  8 H s       :     0.541831  s :     0.541831
      pz      :     0.011437  p :     0.057774
      px      :     0.013974
      py      :     0.032364
  9 O s       :     3.801077  s :     3.801077
      pz      :     1.536333  p :     4.903827
      px      :     1.558318
      py      :     1.809175
      dz2     :     0.016609  d :     0.051532
      dxz     :     0.006699
      dyz     :     0.008340
      dx2y2   :     0.007569
      dxy     :     0.012316
      f0      :     0.000634  f :     0.004009
      f+1     :     0.000740
      f-1     :     0.000533
      f+2     :     0.000416
      f-2     :     0.000421
      f+3     :     0.000432
      f-3     :     0.000834
 10 H s       :     0.573665  s :     0.573665
      pz      :     0.023916  p :     0.050146
      px      :     0.012275
      py      :     0.013955
 11 H s       :     0.580726  s :     0.580726
      pz      :     0.010915  p :     0.052150
      px      :     0.024081
      py      :     0.017154
 12 O s       :     3.806141  s :     3.806141
      pz      :     1.513310  p :     4.877534
      px      :     1.864788
      py      :     1.499435
      dz2     :     0.016509  d :     0.051685
      dxz     :     0.008031
      dyz     :     0.008296
      dx2y2   :     0.008484
      dxy     :     0.010364
      f0      :     0.000565  f :     0.004013
      f+1     :     0.000494
      f-1     :     0.000818
      f+2     :     0.000439
      f-2     :     0.000407
      f+3     :     0.000807
      f-3     :     0.000484
 13 H s       :     0.623152  s :     0.623152
      pz      :     0.018384  p :     0.046755
      px      :     0.015407
      py      :     0.012964
 14 H s       :     0.558758  s :     0.558758
      pz      :     0.010304  p :     0.055395
      px      :     0.016240
      py      :     0.028850
 15 O s       :     3.798338  s :     3.798338
      pz      :     1.599958  p :     4.898093
      px      :     1.458970
      py      :     1.839165
      dz2     :     0.016067  d :     0.051621
      dxz     :     0.008023
      dyz     :     0.007864
      dx2y2   :     0.009072
      dxy     :     0.010595
      f0      :     0.000555  f :     0.003981
      f+1     :     0.000810
      f-1     :     0.000492
      f+2     :     0.000435
      f-2     :     0.000404
      f+3     :     0.000477
      f-3     :     0.000808
 16 H s       :     0.549314  s :     0.549314
      pz      :     0.025176  p :     0.049812
      px      :     0.011410
      py      :     0.013226
 17 H s       :     0.592594  s :     0.592594
      pz      :     0.010223  p :     0.043565
      px      :     0.018574
      py      :     0.014767
 18 O s       :     3.794765  s :     3.794765
      pz      :     1.525261  p :     4.860482
      px      :     1.555911
      py      :     1.779310
      dz2     :     0.017611  d :     0.052790
      dxz     :     0.006616
      dyz     :     0.007989
      dx2y2   :     0.008056
      dxy     :     0.012518
      f0      :     0.000627  f :     0.004028
      f+1     :     0.000759
      f-1     :     0.000538
      f+2     :     0.000413
      f-2     :     0.000423
      f+3     :     0.000427
      f-3     :     0.000840
 19 H s       :     0.581403  s :     0.581403
      pz      :     0.019659  p :     0.044967
      px      :     0.012145
      py      :     0.013163
 20 H s       :     0.582238  s :     0.582238
      pz      :     0.010825  p :     0.044640
      px      :     0.018709
      py      :     0.015105


                     *******************************
                     * LOEWDIN POPULATION ANALYSIS *
                     *******************************

----------------------
LOEWDIN ATOMIC CHARGES
----------------------
   0 O :   -0.340986
   1 H :    0.155818
   2 H :    0.184137
   3 O :   -0.311675
   4 H :    0.163892
   5 H :    0.186405
   6 O :   -0.344618
   7 H :    0.153040
   8 H :    0.152439
   9 O :   -0.359752
  10 H :    0.149346
  11 H :    0.146240
  12 O :   -0.360311
  13 H :    0.153419
  14 H :    0.149792
  15 O :   -0.290794
  16 H :    0.160088
  17 H :    0.176152
  18 O :   -0.275600
  19 H :    0.176579
  20 H :    0.176387

-------------------------------
LOEWDIN REDUCED ORBITAL CHARGES
-------------------------------
  0 O s       :     3.471153  s :     3.471153
      pz      :     1.696237  p :     4.805301
      px      :     1.346493
      py      :     1.762570
      dz2     :     0.010390  d :     0.059683
      dxz     :     0.012831
      dyz     :     0.011505
      dx2y2   :     0.009344
      dxy     :     0.015613
      f0      :     0.000455  f :     0.004850
      f+1     :     0.000865
      f-1     :     0.000658
      f+2     :     0.000408
      f-2     :     0.001033
      f+3     :     0.000474
      f-3     :     0.000958
  1 H s       :     0.678251  s :     0.678251
      pz      :     0.067373  p :     0.165931
      px      :     0.044816
      py      :     0.053742
  2 H s       :     0.664796  s :     0.664796
      pz      :     0.034083  p :     0.151067
      px      :     0.072465
      py      :     0.044520
  3 O s       :     3.463920  s :     3.463920
      pz      :     1.670372  p :     4.783163
      px      :     1.349173
      py      :     1.763618
      dz2     :     0.010866  d :     0.059757
      dxz     :     0.012244
      dyz     :     0.011407
      dx2y2   :     0.009290
      dxy     :     0.015950
      f0      :     0.000468  f :     0.004834
      f+1     :     0.000853
      f-1     :     0.000655
      f+2     :     0.000409
      f-2     :     0.001011
      f+3     :     0.000473
      f-3     :     0.000965
  4 H s       :     0.669753  s :     0.669753
      pz      :     0.067520  p :     0.166355
      px      :     0.045086
      py      :     0.053749
  5 H s       :     0.662132  s :     0.662132
      pz      :     0.034124  p :     0.151463
      px      :     0.072737
      py      :     0.044601
  6 O s       :     3.457548  s :     3.457548
      pz      :     1.699018  p :     4.824643
      px      :     1.735226
      py      :     1.390399
      dz2     :     0.009988  d :     0.057669
      dxz     :     0.011158
      dyz     :     0.012613
      dx2y2   :     0.009434
      dxy     :     0.014475
      f0      :     0.000454  f :     0.004759
      f+1     :     0.000650
      f-1     :     0.000854
      f+2     :     0.000410
      f-2     :     0.001030
      f+3     :     0.000888
      f-3     :     0.000474
  7 H s       :     0.678881  s :     0.678881
      pz      :     0.067057  p :     0.168079
      px      :     0.054178
      py      :     0.046844
  8 H s       :     0.649983  s :     0.649983
      pz      :     0.034273  p :     0.197578
      px      :     0.048373
      py      :     0.114933
  9 O s       :     3.456647  s :     3.456647
      pz      :     1.521630  p :     4.840360
      px      :     1.537554
      py      :     1.781176
      dz2     :     0.020752  d :     0.057956
      dxz     :     0.007390
      dyz     :     0.007657
      dx2y2   :     0.007618
      dxy     :     0.014540
      f0      :     0.000874  f :     0.004789
      f+1     :     0.000968
      f-1     :     0.000699
      f+2     :     0.000388
      f-2     :     0.000421
      f+3     :     0.000377
      f-3     :     0.001061
 10 H s       :     0.676886  s :     0.676886
      pz      :     0.092781  p :     0.173768
      px      :     0.037788
      py      :     0.043198
 11 H s       :     0.675974  s :     0.675974
      pz      :     0.031764  p :     0.177786
      px      :     0.087058
      py      :     0.058964
 12 O s       :     3.466943  s :     3.466943
      pz      :     1.526514  p :     4.829856
      px      :     1.827392
      py      :     1.475949
      dz2     :     0.020683  d :     0.058698
      dxz     :     0.007131
      dyz     :     0.009780
      dx2y2   :     0.009473
      dxy     :     0.011630
      f0      :     0.000808  f :     0.004815
      f+1     :     0.000578
      f-1     :     0.001191
      f+2     :     0.000418
      f-2     :     0.000417
      f+3     :     0.000960
      f-3     :     0.000443
 13 H s       :     0.684499  s :     0.684499
      pz      :     0.079979  p :     0.162082
      px      :     0.044538
      py      :     0.037565
 14 H s       :     0.663184  s :     0.663184
      pz      :     0.029772  p :     0.187024
      px      :     0.053312
      py      :     0.103940
 15 O s       :     3.453812  s :     3.453812
      pz      :     1.552457  p :     4.772153
      px      :     1.444892
      py      :     1.774804
      dz2     :     0.020522  d :     0.060020
      dxz     :     0.009124
      dyz     :     0.006954
      dx2y2   :     0.011032
      dxy     :     0.012388
      f0      :     0.000754  f :     0.004809
      f+1     :     0.001144
      f-1     :     0.000597
      f+2     :     0.000411
      f-2     :     0.000417
      f+3     :     0.000454
      f-3     :     0.001034
 16 H s       :     0.664192  s :     0.664192
      pz      :     0.096068  p :     0.175721
      px      :     0.036478
      py      :     0.043175
 17 H s       :     0.665849  s :     0.665849
      pz      :     0.031400  p :     0.157998
      px      :     0.076394
      py      :     0.050204
 18 O s       :     3.453324  s :     3.453324
      pz      :     1.512929  p :     4.756368
      px      :     1.527106
      py      :     1.716333
      dz2     :     0.022206  d :     0.060957
      dxz     :     0.007282
      dyz     :     0.007407
      dx2y2   :     0.009195
      dxy     :     0.014867
      f0      :     0.000868  f :     0.004951
      f+1     :     0.001005
      f-1     :     0.000741
      f+2     :     0.000389
      f-2     :     0.000422
      f+3     :     0.000407
      f-3     :     0.001119
 19 H s       :     0.661613  s :     0.661613
      pz      :     0.083346  p :     0.161808
      px      :     0.036281
      py      :     0.042182
 20 H s       :     0.662674  s :     0.662674
      pz      :     0.030420  p :     0.160939
      px      :     0.074583
      py      :     0.055935


                      *****************************
                      * MAYER POPULATION ANALYSIS *
                      *****************************

  NA   - Mulliken gross atomic population
  ZA   - Total nuclear charge
  QA   - Mulliken gross atomic charge
  VA   - Mayer's total valence
  BVA  - Mayer's bonded valence
  FA   - Mayer's free valence

  ATOM       NA         ZA         QA         VA         BVA        FA
  0 O      8.7099     8.0000    -0.7099     2.0687     1.6810     0.3877
  1 H      0.6562     1.0000     0.3438     0.9010     0.8546     0.0464
  2 H      0.6344     1.0000     0.3656     0.8849     0.8374     0.0475
  3 O      8.7185     8.0000    -0.7185     2.0747     1.6850     0.3898
  4 H      0.6371     1.0000     0.3629     0.8876     0.8426     0.0450
  5 H      0.6318     1.0000     0.3682     0.8835     0.8358     0.0477
  6 O      8.7652     8.0000    -0.7652     2.0117     1.6180     0.3938
  7 H      0.6541     1.0000     0.3459     0.9013     0.8544     0.0469
  8 H      0.5996     1.0000     0.4004     0.8760     0.8307     0.0453
  9 O      8.7604     8.0000    -0.7604     2.0316     1.6398     0.3918
 10 H      0.6238     1.0000     0.3762     0.8846     0.8394     0.0452
 11 H      0.6329     1.0000     0.3671     0.9058     0.8594     0.0464
 12 O      8.7394     8.0000    -0.7394     2.0334     1.6419     0.3915
 13 H      0.6699     1.0000     0.3301     0.9124     0.8631     0.0493
 14 H      0.6142     1.0000     0.3858     0.8896     0.8438     0.0458
 15 O      8.7520     8.0000    -0.7520     2.0488     1.6553     0.3935
 16 H      0.5991     1.0000     0.4009     0.8730     0.8300     0.0430
 17 H      0.6362     1.0000     0.3638     0.8899     0.8422     0.0478
 18 O      8.7121     8.0000    -0.7121     2.0772     1.6909     0.3863
 19 H      0.6264     1.0000     0.3736     0.8795     0.8344     0.0451
 20 H      0.6269     1.0000     0.3731     0.8849     0.8393     0.0456

  Mayer bond orders larger than 0.100000
B(  0-O ,  1-H ) :   0.8492 B(  0-O ,  2-H ) :   0.8282 B(  3-O ,  4-H ) :   0.8357 
B(  3-O ,  5-H ) :   0.8246 B(  6-O ,  7-H ) :   0.8466 B(  6-O ,  8-H ) :   0.7633 
B(  9-O , 10-H ) :   0.8231 B(  9-O , 11-H ) :   0.8136 B( 12-O , 13-H ) :   0.8561 
B( 12-O , 14-H ) :   0.7916 B( 15-O , 16-H ) :   0.7909 B( 15-O , 17-H ) :   0.8275 
B( 18-O , 19-H ) :   0.8267 B( 18-O , 20-H ) :   0.8245 


                *******************************************
                * RELAXED MP2 DENSITY POPULATION ANALYSIS *
                *******************************************

------------------------------------------------------------------------------
                           ORCA POPULATION ANALYSIS
------------------------------------------------------------------------------
Input electron density              ... 12h2o.su.etal.mol0,1,2,3,4,7,8-orca.engrad-mp2.def2tzvp.frozencore.pmp2re
BaseName (.gbw .S,...)              ... 12h2o.su.etal.mol0,1,2,3,4,7,8-orca.engrad-mp2.def2tzvp.frozencore

                    ********************************
                    * MULLIKEN POPULATION ANALYSIS *
                    ********************************

-----------------------
MULLIKEN ATOMIC CHARGES
-----------------------
   0 O :   -0.696054
   1 H :    0.337658
   2 H :    0.357661
   3 O :   -0.699750
   4 H :    0.356264
   5 H :    0.361033
   6 O :   -0.739848
   7 H :    0.339320
   8 H :    0.379267
   9 O :   -0.737057
  10 H :    0.363852
  11 H :    0.349046
  12 O :   -0.720253
  13 H :    0.323704
  14 H :    0.364734
  15 O :   -0.722878
  16 H :    0.384770
  17 H :    0.355818
  18 O :   -0.688908
  19 H :    0.367004
  20 H :    0.364617
Sum of atomic charges:    0.0000000

--------------------------------
MULLIKEN REDUCED ORBITAL CHARGES
--------------------------------
  0 O s       :     3.813899  s :     3.813899
      pz      :     1.705954  p :     4.828732
      px      :     1.346828
      py      :     1.775951
      dz2     :     0.009504  d :     0.049412
      dxz     :     0.009560
      dyz     :     0.010834
      dx2y2   :     0.007585
      dxy     :     0.011929
      f0      :     0.000456  f :     0.004011
      f+1     :     0.000685
      f-1     :     0.000546
      f+2     :     0.000435
      f-2     :     0.000700
      f+3     :     0.000463
      f-3     :     0.000725
  1 H s       :     0.614157  s :     0.614157
      pz      :     0.017930  p :     0.048184
      px      :     0.013865
      py      :     0.016390
  2 H s       :     0.598211  s :     0.598211
      pz      :     0.012887  p :     0.044128
      px      :     0.016828
      py      :     0.014414
  3 O s       :     3.810242  s :     3.810242
      pz      :     1.697530  p :     4.836336
      px      :     1.352454
      py      :     1.786352
      dz2     :     0.009199  d :     0.049179
      dxz     :     0.009039
      dyz     :     0.010883
      dx2y2   :     0.007607
      dxy     :     0.012450
      f0      :     0.000451  f :     0.003993
      f+1     :     0.000670
      f-1     :     0.000542
      f+2     :     0.000437
      f-2     :     0.000692
      f+3     :     0.000466
      f-3     :     0.000734
  4 H s       :     0.596147  s :     0.596147
      pz      :     0.017620  p :     0.047589
      px      :     0.013789
      py      :     0.016179
  5 H s       :     0.595258  s :     0.595258
      pz      :     0.012310  p :     0.043709
      px      :     0.016766
      py      :     0.014633
  6 O s       :     3.803522  s :     3.803522
      pz      :     1.714111  p :     4.883770
      px      :     1.757909
      py      :     1.411750
      dz2     :     0.009300  d :     0.048611
      dxz     :     0.010411
      dyz     :     0.009611
      dx2y2   :     0.007820
      dxy     :     0.011469
      f0      :     0.000456  f :     0.003945
      f+1     :     0.000534
      f-1     :     0.000681
      f+2     :     0.000432
      f-2     :     0.000703
      f+3     :     0.000682
      f-3     :     0.000457
  7 H s       :     0.612494  s :     0.612494
      pz      :     0.017668  p :     0.048186
      px      :     0.016328
      py      :     0.014190
  8 H s       :     0.562724  s :     0.562724
      pz      :     0.012166  p :     0.058009
      px      :     0.014465
      py      :     0.031379
  9 O s       :     3.798695  s :     3.798695
      pz      :     1.531729  p :     4.884836
      px      :     1.552377
      py      :     1.800729
      dz2     :     0.015418  d :     0.049587
      dxz     :     0.006661
      dyz     :     0.008311
      dx2y2   :     0.007515
      dxy     :     0.011681
      f0      :     0.000618  f :     0.003940
      f+1     :     0.000719
      f-1     :     0.000523
      f+2     :     0.000416
      f-2     :     0.000419
      f+3     :     0.000432
      f-3     :     0.000811
 10 H s       :     0.585493  s :     0.585493
      pz      :     0.023051  p :     0.050655
      px      :     0.012762
      py      :     0.014842
 11 H s       :     0.598192  s :     0.598192
      pz      :     0.011598  p :     0.052762
      px      :     0.023524
      py      :     0.017640
 12 O s       :     3.806903  s :     3.806903
      pz      :     1.506333  p :     4.859763
      px      :     1.857725
      py      :     1.495704
      dz2     :     0.015290  d :     0.049642
      dxz     :     0.008068
      dyz     :     0.008040
      dx2y2   :     0.008283
      dxy     :     0.009961
      f0      :     0.000551  f :     0.003945
      f+1     :     0.000488
      f-1     :     0.000790
      f+2     :     0.000438
      f-2     :     0.000405
      f+3     :     0.000789
      f-3     :     0.000483
 13 H s       :     0.628728  s :     0.628728
      pz      :     0.017689  p :     0.047568
      px      :     0.016439
      py      :     0.013440
 14 H s       :     0.579551  s :     0.579551
      pz      :     0.010999  p :     0.055715
      px      :     0.016779
      py      :     0.027937
 15 O s       :     3.799955  s :     3.799955
      pz      :     1.593567  p :     4.869370
      px      :     1.451433
      py      :     1.824370
      dz2     :     0.015054  d :     0.049644
      dxz     :     0.007766
      dyz     :     0.007917
      dx2y2   :     0.008790
      dxy     :     0.010116
      f0      :     0.000543  f :     0.003909
      f+1     :     0.000781
      f-1     :     0.000486
      f+2     :     0.000435
      f-2     :     0.000402
      f+3     :     0.000476
      f-3     :     0.000787
 16 H s       :     0.564873  s :     0.564873
      pz      :     0.024512  p :     0.050357
      px      :     0.011754
      py      :     0.014091
 17 H s       :     0.599898  s :     0.599898
      pz      :     0.011007  p :     0.044283
      px      :     0.017747
      py      :     0.015529
 18 O s       :     3.796497  s :     3.796497
      pz      :     1.520566  p :     4.837769
      px      :     1.552854
      py      :     1.764349
      dz2     :     0.016295  d :     0.050691
      dxz     :     0.006559
      dyz     :     0.007970
      dx2y2   :     0.008008
      dxy     :     0.011859
      f0      :     0.000609  f :     0.003951
      f+1     :     0.000737
      f-1     :     0.000528
      f+2     :     0.000414
      f-2     :     0.000421
      f+3     :     0.000427
      f-3     :     0.000815
 19 H s       :     0.587485  s :     0.587485
      pz      :     0.018900  p :     0.045511
      px      :     0.012645
      py      :     0.013967
 20 H s       :     0.590194  s :     0.590194
      pz      :     0.011466  p :     0.045189
      px      :     0.018148
      py      :     0.015575


                     *******************************
                     * LOEWDIN POPULATION ANALYSIS *
                     *******************************

----------------------
LOEWDIN ATOMIC CHARGES
----------------------
   0 O :   -0.343854
   1 H :    0.157647
   2 H :    0.184989
   3 O :   -0.309850
   4 H :    0.165713
   5 H :    0.187558
   6 O :   -0.341650
   7 H :    0.154939
   8 H :    0.145214
   9 O :   -0.358860
  10 H :    0.146265
  11 H :    0.141535
  12 O :   -0.361890
  13 H :    0.154862
  14 H :    0.143028
  15 O :   -0.282669
  16 H :    0.155864
  17 H :    0.176962
  18 O :   -0.270360
  19 H :    0.177803
  20 H :    0.176756

-------------------------------
LOEWDIN REDUCED ORBITAL CHARGES
-------------------------------
  0 O s       :     3.473232  s :     3.473232
      pz      :     1.695402  p :     4.807417
      px      :     1.351327
      py      :     1.760688
      dz2     :     0.010210  d :     0.058336
      dxz     :     0.012429
      dyz     :     0.011451
      dx2y2   :     0.009102
      dxy     :     0.015145
      f0      :     0.000457  f :     0.004870
      f+1     :     0.000872
      f-1     :     0.000658
      f+2     :     0.000409
      f-2     :     0.001032
      f+3     :     0.000477
      f-3     :     0.000965
  1 H s       :     0.676413  s :     0.676413
      pz      :     0.067540  p :     0.165940
      px      :     0.044066
      py      :     0.054333
  2 H s       :     0.663940  s :     0.663940
      pz      :     0.034857  p :     0.151071
      px      :     0.070957
      py      :     0.045257
  3 O s       :     3.465726  s :     3.465726
      pz      :     1.664988  p :     4.780739
      px      :     1.354130
      py      :     1.761621
      dz2     :     0.010771  d :     0.058532
      dxz     :     0.011873
      dyz     :     0.011372
      dx2y2   :     0.009062
      dxy     :     0.015454
      f0      :     0.000471  f :     0.004853
      f+1     :     0.000859
      f-1     :     0.000655
      f+2     :     0.000409
      f-2     :     0.001011
      f+3     :     0.000476
      f-3     :     0.000971
  4 H s       :     0.668155  s :     0.668155
      pz      :     0.067482  p :     0.166132
      px      :     0.044287
      py      :     0.054363
  5 H s       :     0.660993  s :     0.660993
      pz      :     0.034787  p :     0.151450
      px      :     0.071286
      py      :     0.045376
  6 O s       :     3.459005  s :     3.459005
      pz      :     1.698606  p :     4.820809
      px      :     1.727850
      py      :     1.394352
      dz2     :     0.009960  d :     0.057041
      dxz     :     0.011091
      dyz     :     0.012261
      dx2y2   :     0.009460
      dxy     :     0.014269
      f0      :     0.000456  f :     0.004796
      f+1     :     0.000651
      f-1     :     0.000865
      f+2     :     0.000410
      f-2     :     0.001032
      f+3     :     0.000903
      f-3     :     0.000479
  7 H s       :     0.676914  s :     0.676914
      pz      :     0.067054  p :     0.168147
      px      :     0.054627
      py      :     0.046467
  8 H s       :     0.656984  s :     0.656984
      pz      :     0.034916  p :     0.197802
      px      :     0.048838
      py      :     0.114048
  9 O s       :     3.457387  s :     3.457387
      pz      :     1.522633  p :     4.839623
      px      :     1.538786
      py      :     1.778204
      dz2     :     0.020206  d :     0.057037
      dxz     :     0.007274
      dyz     :     0.007684
      dx2y2   :     0.007583
      dxy     :     0.014289
      f0      :     0.000878  f :     0.004812
      f+1     :     0.000977
      f-1     :     0.000699
      f+2     :     0.000390
      f-2     :     0.000421
      f+3     :     0.000376
      f-3     :     0.001072
 10 H s       :     0.679569  s :     0.679569
      pz      :     0.091935  p :     0.174166
      px      :     0.038234
      py      :     0.043997
 11 H s       :     0.679975  s :     0.679975
      pz      :     0.032230  p :     0.178490
      px      :     0.086749
      py      :     0.059511
 12 O s       :     3.468479  s :     3.468479
      pz      :     1.527999  p :     4.830853
      px      :     1.824217
      py      :     1.478637
      dz2     :     0.020051  d :     0.057714
      dxz     :     0.007190
      dyz     :     0.009529
      dx2y2   :     0.009419
      dxy     :     0.011524
      f0      :     0.000805  f :     0.004844
      f+1     :     0.000578
      f-1     :     0.001205
      f+2     :     0.000420
      f-2     :     0.000415
      f+3     :     0.000975
      f-3     :     0.000446
 13 H s       :     0.682608  s :     0.682608
      pz      :     0.079411  p :     0.162530
      px      :     0.045459
      py      :     0.037660
 14 H s       :     0.669447  s :     0.669447
      pz      :     0.030193  p :     0.187525
      px      :     0.053970
      py      :     0.103362
 15 O s       :     3.455057  s :     3.455057
      pz      :     1.551056  p :     4.763481
      px      :     1.447358
      py      :     1.765067
      dz2     :     0.020240  d :     0.059298
      dxz     :     0.008948
      dyz     :     0.007043
      dx2y2   :     0.010900
      dxy     :     0.012168
      f0      :     0.000757  f :     0.004833
      f+1     :     0.001152
      f-1     :     0.000598
      f+2     :     0.000413
      f-2     :     0.000415
      f+3     :     0.000456
      f-3     :     0.001041
 16 H s       :     0.668229  s :     0.668229
      pz      :     0.095538  p :     0.175907
      px      :     0.036438
      py      :     0.043931
 17 H s       :     0.664959  s :     0.664959
      pz      :     0.031957  p :     0.158079
      px      :     0.075355
      py      :     0.050767
 18 O s       :     3.454482  s :     3.454482
      pz      :     1.515099  p :     4.750982
      px      :     1.529258
      py      :     1.706625
      dz2     :     0.021514  d :     0.059929
      dxz     :     0.007146
      dyz     :     0.007441
      dx2y2   :     0.009250
      dxy     :     0.014578
      f0      :     0.000867  f :     0.004967
      f+1     :     0.001011
      f-1     :     0.000742
      f+2     :     0.000391
      f-2     :     0.000422
      f+3     :     0.000408
      f-3     :     0.001126
 19 H s       :     0.660601  s :     0.660601
      pz      :     0.082358  p :     0.161595
      px      :     0.036436
      py      :     0.042801
 20 H s       :     0.662475  s :     0.662475
      pz      :     0.030730  p :     0.160768
      px      :     0.073735
      py      :     0.056303


                      *****************************
                      * MAYER POPULATION ANALYSIS *
                      *****************************

  NA   - Mulliken gross atomic population
  ZA   - Total nuclear charge
  QA   - Mulliken gross atomic charge
  VA   - Mayer's total valence
  BVA  - Mayer's bonded valence
  FA   - Mayer's free valence

  ATOM       NA         ZA         QA         VA         BVA        FA
  0 O      8.6961     8.0000    -0.6961     2.0745     1.6917     0.3828
  1 H      0.6623     1.0000     0.3377     0.9055     0.8590     0.0465
  2 H      0.6423     1.0000     0.3577     0.8922     0.8447     0.0475
  3 O      8.6997     8.0000    -0.6997     2.0973     1.7132     0.3841
  4 H      0.6437     1.0000     0.3563     0.8925     0.8475     0.0451
  5 H      0.6390     1.0000     0.3610     0.8906     0.8430     0.0476
  6 O      8.7398     8.0000    -0.7398     2.0380     1.6499     0.3881
  7 H      0.6607     1.0000     0.3393     0.9058     0.8588     0.0470
  8 H      0.6207     1.0000     0.3793     0.9013     0.8566     0.0446
  9 O      8.7371     8.0000    -0.7371     2.0514     1.6651     0.3863
 10 H      0.6361     1.0000     0.3639     0.9006     0.8556     0.0450
 11 H      0.6510     1.0000     0.3490     0.9312     0.8854     0.0457
 12 O      8.7203     8.0000    -0.7203     2.0423     1.6559     0.3863
 13 H      0.6763     1.0000     0.3237     0.9174     0.8681     0.0493
 14 H      0.6353     1.0000     0.3647     0.9187     0.8738     0.0449
 15 O      8.7229     8.0000    -0.7229     2.0985     1.7116     0.3869
 16 H      0.6152     1.0000     0.3848     0.8945     0.8519     0.0426
 17 H      0.6442     1.0000     0.3558     0.8986     0.8510     0.0476
 18 O      8.6889     8.0000    -0.6889     2.1067     1.7261     0.3806
 19 H      0.6330     1.0000     0.3670     0.8855     0.8405     0.0450
 20 H      0.6354     1.0000     0.3646     0.8947     0.8495     0.0452

  Mayer bond orders larger than 0.100000
B(  0-O ,  1-H ) :   0.8534 B(  0-O ,  2-H ) :   0.8326 B(  3-O ,  4-H ) :   0.8395 
B(  3-O ,  5-H ) :   0.8280 B(  6-O ,  7-H ) :   0.8495 B(  6-O ,  8-H ) :   0.7637 
B(  9-O , 10-H ) :   0.8283 B(  9-O , 11-H ) :   0.8165 B( 12-O , 13-H ) :   0.8590 
B( 12-O , 14-H ) :   0.7933 B( 15-O , 16-H ) :   0.7948 B( 15-O , 17-H ) :   0.8300 
B( 18-O , 19-H ) :   0.8303 B( 18-O , 20-H ) :   0.8280 


----------------------------------
MP2 DERIVATIVE INTEGRAL GENERATION
----------------------------------


Input Wavefunction Amplitudes       ... 12h2o.su.etal.mol0,1,2,3,4,7,8-orca.engrad-mp2.def2tzvp.frozencore.mp2tsaa.tmp
Input Correlated Electron Density   ... 12h2o.su.etal.mol0,1,2,3,4,7,8-orca.engrad-mp2.def2tzvp.frozencore.pmp2re
Input Energy Weighted Density       ... 12h2o.su.etal.mol0,1,2,3,4,7,8-orca.engrad-mp2.def2tzvp.frozencore.wmp2.tmp
Input SCF Electron Density          ... 12h2o.su.etal.mol0,1,2,3,4,7,8-orca.engrad-mp2.def2tzvp.frozencore.scfp

One-Electron Terms    ...
                        ... One-Electron Terms done
Prescreening matrices              ... done

Batch handling in the gradient evaluation:
Memory available                      ... 8000.0 MB
Memory per occupied orbital in Q2     ...   19.4 MB
Memory per occupied orbital in Q3     ...    0.1 MB
Total memory requirement per |i>      ...   19.5 MB
Max. Number of orbitals possible      ...    410
Number of orbitals treated per batch  ...     28
Number of batches to be done          ...      1
Batch   0: i=    7 ...    34

---------------------------------------
MP2 TOTAL ENERGY:     -534.238516995 Eh
---------------------------------------

The final MP2 gradient
  0:   0.02690276  -0.00535270  -0.00109957
  1:   0.00257890  -0.00192560  -0.00097359
  2:  -0.02809812   0.00793081   0.00350124
  3:  -0.02568887   0.01007872   0.00237854
  4:  -0.00112380   0.00178525  -0.00245570
  5:   0.02625433  -0.01080517  -0.00129851
  6:  -0.00188345  -0.00822625  -0.00060423
  7:  -0.00042111  -0.00055496  -0.00001602
  8:   0.00378005   0.01449319   0.00110378
  9:  -0.00176990   0.00046320  -0.00299892
 10:  -0.00147490  -0.00161008   0.00645348
 11:   0.00298271  -0.00063200  -0.00119169
 12:   0.00141313   0.00142577   0.01028838
 13:   0.00057568   0.00348458  -0.01005393
 14:  -0.00300520  -0.00898351   0.00126640
 15:  -0.01543854   0.01056088  -0.00365266
 16:  -0.00067031  -0.00131345  -0.00147182
 17:   0.01506404  -0.00554442   0.00312713
 18:   0.00482432  -0.00940967  -0.00798328
 19:   0.00123586  -0.00052507   0.00535247
 20:  -0.00603756   0.00466047   0.00032850

-----------------------------------
NORM OF THE MP2 GRADIENT:  0.069254
-----------------------------------

-------------------------   --------------------
FINAL SINGLE POINT ENERGY      -534.238516995452
-------------------------   --------------------


                            ***************************************
                            *     ORCA property calculations      *
                            ***************************************

                                    ---------------------
                                    Active property flags
                                    ---------------------
   (+) Dipole Moment


------------------------------------------------------------------------------
                       ORCA ELECTRIC PROPERTIES CALCULATION
------------------------------------------------------------------------------

Dipole Moment Calculation                       ... on
Quadrupole Moment Calculation                   ... off
Polarizability Calculation                      ... off
GBWName                                         ... 12h2o.su.etal.mol0,1,2,3,4,7,8-orca.engrad-mp2.def2tzvp.frozencore.gbw
Electron density file                           ... 12h2o.su.etal.mol0,1,2,3,4,7,8-orca.engrad-mp2.def2tzvp.frozencore.scfp
The origin for moment calculation is the CENTER OF MASS  = (-0.446587, -0.265220 -0.780036)

-------------
DIPOLE MOMENT
-------------
                                X             Y             Z
Electronic contribution:      0.02300       0.08377       0.08459
Nuclear contribution   :      0.67960      -0.59936       2.00481
                        -----------------------------------------
Total Dipole Moment    :      0.70259      -0.51558       2.08939
                        -----------------------------------------
Magnitude (a.u.)       :      2.26385
Magnitude (Debye)      :      5.75426



--------------------
Rotational spectrum 
--------------------
 
Rotational constants in cm-1:     0.036262     0.019848     0.015928 
Rotational constants in MHz :  1087.096788   595.034928   477.497805 

 Dipole components along the rotational axes: 
x,y,z [a.u.] :     1.900940    -0.496865     1.124538 
x,y,z [Debye]:     4.831805    -1.262930     2.858348 

 

                         *** MP2 UNRELAXED DENSITY ***

------------------------------------------------------------------------------
                       ORCA ELECTRIC PROPERTIES CALCULATION
------------------------------------------------------------------------------

Dipole Moment Calculation                       ... on
Quadrupole Moment Calculation                   ... off
Polarizability Calculation                      ... off
GBWName                                         ... 12h2o.su.etal.mol0,1,2,3,4,7,8-orca.engrad-mp2.def2tzvp.frozencore.gbw
Electron density file                           ... 12h2o.su.etal.mol0,1,2,3,4,7,8-orca.engrad-mp2.def2tzvp.frozencore.pmp2ur
The origin for moment calculation is the CENTER OF MASS  = (-0.446587, -0.265220 -0.780036)

-------------
DIPOLE MOMENT
-------------
                                X             Y             Z
Electronic contribution:      0.01720       0.09002       0.06805
Nuclear contribution   :      0.67960      -0.59936       2.00481
                        -----------------------------------------
Total Dipole Moment    :      0.69680      -0.50934       2.07286
                        -----------------------------------------
Magnitude (a.u.)       :      2.24537
Magnitude (Debye)      :      5.70728



--------------------
Rotational spectrum 
--------------------
 
Rotational constants in cm-1:     0.036262     0.019848     0.015928 
Rotational constants in MHz :  1087.096788   595.034928   477.497805 

 Dipole components along the rotational axes: 
x,y,z [a.u.] :     1.886209    -0.493700     1.113625 
x,y,z [Debye]:     4.794363    -1.254887     2.830610 

 

                           *** MP2 RELAXED DENSITY ***

------------------------------------------------------------------------------
                       ORCA ELECTRIC PROPERTIES CALCULATION
------------------------------------------------------------------------------

Dipole Moment Calculation                       ... on
Quadrupole Moment Calculation                   ... off
Polarizability Calculation                      ... off
GBWName                                         ... 12h2o.su.etal.mol0,1,2,3,4,7,8-orca.engrad-mp2.def2tzvp.frozencore.gbw
Electron density file                           ... 12h2o.su.etal.mol0,1,2,3,4,7,8-orca.engrad-mp2.def2tzvp.frozencore.pmp2re
The origin for moment calculation is the CENTER OF MASS  = (-0.446587, -0.265220 -0.780036)

-------------
DIPOLE MOMENT
-------------
                                X             Y             Z
Electronic contribution:      0.02412       0.09793       0.05469
Nuclear contribution   :      0.67960      -0.59936       2.00481
                        -----------------------------------------
Total Dipole Moment    :      0.70371      -0.50143       2.05949
                        -----------------------------------------
Magnitude (a.u.)       :      2.23342
Magnitude (Debye)      :      5.67690



--------------------
Rotational spectrum 
--------------------
 
Rotational constants in cm-1:     0.036262     0.019848     0.015928 
Rotational constants in MHz :  1087.096788   595.034928   477.497805 

 Dipole components along the rotational axes: 
x,y,z [a.u.] :     1.873279    -0.502770     1.107340 
x,y,z [Debye]:     4.761498    -1.277940     2.814634 

 

Timings for individual modules:

Sum of individual times         ...       98.884 sec (=   1.648 min)
GTO integral calculation        ...        0.963 sec (=   0.016 min)   1.0 %
SCF iterations                  ...       15.956 sec (=   0.266 min)  16.1 %
MP2 module                      ...       81.965 sec (=   1.366 min)  82.9 %
                             ****ORCA TERMINATED NORMALLY****
TOTAL RUN TIME: 0 days 0 hours 1 minutes 39 seconds 916 msec
