52
Energy:  -1521.05982030
O   -1.83709269   2.46677814  -1.57495801
H   -1.38516334   2.08262402  -0.82368088
H   -1.66274605   1.86105578  -2.29532981
O   -0.20636125  -2.38105260  -3.36041206
H   -0.73406201  -1.62434445  -3.10515427
H    0.21025001  -2.66818678  -2.54787229
O   -1.49099718  -0.14561974  -2.47404886
H   -0.85576568  -0.09709556  -1.75965528
H   -2.34316904  -0.14152273  -2.03813810
O    2.10000981  -0.89872421  -3.13475058
H    1.78862753  -0.30155758  -2.45455580
H    1.31121714  -1.34673036  -3.44024762
O    0.44820366  -1.43403785   2.34724472
H    0.30244540  -1.12522410   1.45302973
H   -0.18102434  -0.94351319   2.87610153
O    1.81033618   3.81679083   0.83780740
H    1.42957074   3.67806907  -0.02937527
H    1.26505218   3.29408347   1.42574806
O   -1.84014817  -2.88844047   0.32383380
H   -1.19770945  -3.47519764   0.72285806
H   -1.32007796  -2.16395583  -0.02384542
O    0.40791921   2.07256666   2.42237010
H    1.16732897   1.52532788   2.62251597
H    0.07157312   1.72368557   1.59690954
O    0.57317276  -3.95137052   1.23757796
H    0.94329257  -3.68638071   0.39554258
H    0.55271803  -3.14619470   1.75478715
O    0.79107446   3.21122724  -1.61673131
H    0.95547986   2.28519103  -1.43879973
H   -0.16287497   3.28421178  -1.64648997
O   -2.54554100  -0.34514151   1.16883331
H   -2.43084676  -1.28316369   1.01654587
H   -1.77097905   0.05810386   0.77681441
O    2.48888005   0.35534518   2.79172356
H    2.78820404   0.64795671   1.93090100
H    1.86239365  -0.34337934   2.60322769
O   -1.34552055   0.27796770   3.52533723
H   -1.87582899   0.07040237   2.75597292
H   -0.77308755   0.98909312   3.23749534
O   -3.78091027   0.62518551  -1.04978736
H   -3.21642607   1.38541055  -1.18995630
H   -3.45497809   0.23010225  -0.24114079
O    3.10005499   1.43098287   0.36706479
H    2.79700885   2.32461617   0.52773344
H    2.36594194   1.00444523  -0.07494824
O    1.43302356  -2.69849848  -1.14130789
H    2.00824088  -2.23317562  -1.74862290
H    0.88015776  -2.01484965  -0.76289603
C    0.36910725   0.24219537  -0.05767277
O    1.00199052   0.60589532  -1.21704307
O   -0.20282606  -0.99245140  -0.21779279
O   -0.60291878   1.16131167   0.23926294
