52
Energy:  -1522.75793825
O    1.25835114   0.96587126  -2.75619010
H    1.12136759   0.32742024  -2.05629892
H    0.51912856   1.56903308  -2.67887495
O   -0.01660075  -3.01733344  -1.79964077
H   -0.39756090  -2.53131020  -2.53099747
H    0.39707945  -2.34713140  -1.25564651
O   -2.98296546  -0.79850077   0.02610104
H   -2.98401916  -0.63702742   0.96958241
H   -2.09983791  -0.56144808  -0.25696009
O   -0.81692509  -0.90491288  -3.37503316
H   -0.91297663  -0.65702176  -2.45549200
H   -0.01724484  -0.46300559  -3.66044739
O    1.84867636   1.98856374  -0.26193217
H    1.91585241   1.77079569  -1.19160755
H    1.31081716   1.28957503   0.11002766
O    2.27655232  -0.30879387   2.61927084
H    2.37770987  -1.22016469   2.34467617
H    1.55640001   0.02459092   2.08404464
O   -0.96888463   2.39655231  -1.88417668
H   -0.84942439   1.52373786  -1.50980249
H   -0.66409243   2.99427965  -1.20149404
O   -2.73470678  -0.26877191   2.69460206
H   -2.01358663  -0.89822993   2.69417592
H   -2.34065522   0.54781158   2.38776886
O    3.98408965  -0.58042709  -0.74498157
H    3.03568048  -0.69319626  -0.80850314
H    4.10403508   0.04562224  -0.03090371
O    3.98990397   1.29619269   1.26250876
H    3.50751592   0.71524614   1.85075592
H    3.31935938   1.66848346   0.68979470
O   -1.94188813  -3.32210332   0.16531446
H   -1.25149090  -3.30332290  -0.49743045
H   -2.40018229  -2.48861079   0.05813005
O   -0.69398149  -2.02970239   2.26698688
H   -1.11455657  -2.58200837   1.60796749
H   -0.32985318  -1.29747022   1.76951480
O   -1.65619525   1.87944403   1.40184291
H   -2.27847875   1.86350372   0.67469712
H   -0.96750266   1.26763634   1.14179346
O   -3.39875140   1.81433734  -0.71947774
H   -3.35089064   0.86629890  -0.59633422
H   -2.64100878   2.02397682  -1.26547157
O   -0.08245691   3.80101299   0.27924220
H   -0.66369264   3.24528564   0.79843772
H    0.69749931   3.26490132   0.13611838
O    1.84204947  -2.69197795   1.37157784
H    1.00000069  -2.66231561   1.82578688
H    1.74925967  -2.06650852   0.65296119
C    0.08774251  -0.55786634  -0.07381759
O    1.27580770  -0.82500670  -0.70158787
O   -0.76309166   0.06118468  -0.95128886
O    0.31353115   0.26281084   1.00009519
