52
Energy:  -1522.11869701
O    1.17343102   1.46144359  -2.85337882
H    1.22323997   0.83486495  -2.13147154
H    0.33013433   1.89833987  -2.73419753
O    0.60602406  -2.65082438  -1.62373211
H    0.19594594  -2.35238381  -2.43552088
H    0.76756932  -1.84846632  -1.12738897
O   -2.83805678  -0.96015153   0.08480492
H   -2.87029500  -0.73303765   1.01411209
H   -2.01066973  -0.59089775  -0.22392501
O   -0.50987838  -0.77546845  -3.33930758
H   -0.68613719  -0.54966833  -2.42597358
H    0.17524802  -0.16415619  -3.60973501
O    1.58763301   2.64872838  -0.37909687
H    1.66920740   2.41772472  -1.30441561
H    1.20708934   1.87134922   0.02968181
O    2.55358794   0.89150495   2.27974135
H    3.13931692   0.50572289   1.62833854
H    1.69737218   0.90895061   1.85216437
O   -1.24337243   2.44160583  -1.94427787
H   -1.00582236   1.61180118  -1.53048315
H   -1.03191733   3.10600330  -1.28846191
O   -2.68330615  -0.19923126   2.70317691
H   -1.87612599  -0.71360803   2.71359739
H   -2.42313126   0.64832626   2.34236239
O    3.37810854  -1.22519858   0.60533603
H    2.65773927  -0.80846736   0.13243535
H    2.97698157  -1.55943969   1.40759029
O    3.27832841  -3.29996168  -1.22468846
H    3.45608011  -2.60586086  -0.58997574
H    2.36069932  -3.17473488  -1.46657056
O   -1.33533097  -3.24114117   0.29048699
H   -0.64844249  -3.10010991  -0.36106979
H   -1.93899350  -2.50894474   0.16514029
O   -0.39224789  -1.61018559   2.32142096
H   -0.12635276  -0.87730679   1.76606495
H   -0.66527075  -2.29077027   1.70620159
O   -1.89908631   1.99315389   1.29864079
H   -2.50416004   1.84980634   0.57092580
H   -1.12031712   1.48736536   1.06641597
O   -3.59749861   1.54314797  -0.81239997
H   -3.41732881   0.61965714  -0.63651541
H   -2.86042409   1.83335646  -1.34973788
O   -0.61717219   4.09839559   0.13821814
H   -1.10318624   3.46735597   0.66907706
H    0.24427972   3.69853871   0.01885768
O    2.22015134  -1.65733312   3.09690022
H    2.35297305  -0.71493436   2.99455362
H    1.29844927  -1.79492053   2.87834393
C    0.23260713  -0.18374945  -0.08507989
O    1.41186979  -0.17113952  -0.78231654
O   -0.79360335   0.17882249  -0.91726521
O    0.30980131   0.70145027   0.95810884
