52
Energy:  -1524.08617310
O    1.66622114  -0.10734226  -2.58110908
H    1.50107514  -0.39033023  -1.68173349
H    0.92402329   0.45804482  -2.79491189
O   -0.71088220  -2.98467827  -0.88314061
H   -0.63706630  -2.03859983  -0.75776654
H    0.15883471  -3.32347013  -0.67090394
O   -3.08258743  -0.31465985   0.12417791
H   -3.08692268   0.19769858   0.93269624
H   -2.16057421  -0.35426755  -0.12989828
O    0.77137233  -2.61874758  -3.19182406
H    0.07261916  -2.69652773  -2.54226567
H    1.10125000  -1.72670359  -3.08379584
O    2.33664982   1.80395283  -0.69988422
H    2.37303120   1.23631734  -1.46975316
H    1.70507564   1.38005545  -0.11880167
O    0.86419658   0.84835425   3.35956908
H    0.78502851   0.97405859   2.41396732
H    0.22708773   0.16412403   3.56488144
O   -0.54878848   1.45882776  -2.47836263
H   -0.52643547   0.80125814  -1.78314009
H   -0.19269379   2.24926415  -2.07260565
O   -2.86122173   1.11897077   2.41443762
H   -2.24701835   0.42406001   2.65126052
H   -2.34387742   1.72671281   1.88600945
O    2.80588080  -0.67710169   2.18961190
H    2.26296163  -0.13642490   2.76331848
H    2.29687539  -0.75711875   1.38292570
O    4.44024994   1.14059929   0.94853349
H    3.99014178   0.46367584   1.45391367
H    3.78069874   1.45798761   0.33169581
O   -2.58952133  -2.79548283   1.13465401
H   -1.89757649  -3.02979413   0.51615389
H   -2.93616644  -1.96667869   0.80427134
O   -1.17964452  -1.01620517   2.73809647
H   -0.62915021  -0.70909971   2.01776731
H   -1.66585667  -1.75435491   2.37072127
O   -1.47897696   2.54080261   0.53359287
H   -2.04448924   2.29562780  -0.19874382
H   -0.81698365   1.85024982   0.56726121
O   -3.08325650   1.79828901  -1.57742030
H   -3.20898889   0.99495007  -1.07237599
H   -2.25686719   1.66332639  -2.04120650
O    0.39248123   3.63768156  -1.13232504
H    1.15259666   3.08795557  -0.94191048
H   -0.24891155   3.40071161  -0.46247998
O    1.98470674  -3.43025745  -0.84417530
H    1.78184836  -3.26183225  -1.76434555
H    1.90986280  -2.57473232  -0.42143780
C    0.24101938  -0.40043437   0.32778697
O    1.43295129  -0.92090609  -0.10275442
O   -0.64889278  -0.37541130  -0.71362024
O    0.44001688   0.87419270   0.78985410
