30
Energy:    -93.80208604
C    3.86579132  -2.05175626  -1.14839109
H    4.88204392  -2.38471970  -1.18397454
H    3.84108909  -0.98209284  -1.13794744
H    3.34202286  -2.41222809  -2.00898726
C    3.19253385  -2.59324451   0.12640883
N    2.69126305  -2.99640713   1.07555532
C   -0.00125517   1.84718755  -2.42117184
H    0.45277530   2.13259641  -3.34707588
H    0.19617987   2.59491376  -1.68169635
H   -1.05815286   1.75031749  -2.55712242
C    0.58226512   0.49966342  -1.95718607
N    1.01672250  -0.50362954  -1.61172757
C   -1.73233818  -2.12523799   0.14264830
H   -1.69345448  -1.86923403   1.18084396
H   -0.74593456  -2.34821413  -0.20690660
H   -2.35991759  -2.98161148   0.00972873
C   -2.30474129  -0.94023357  -0.65717619
N   -2.73092142  -0.05794392  -1.25268187
C   -2.83024177   2.74586174   0.90937877
H   -3.25719889   2.46281677  -0.03003240
H   -1.88050886   3.21017141   0.74408202
H   -3.48252616   3.43446089   1.40461141
C   -2.64384587   1.49390580   1.78656912
N   -2.50506565   0.56176771   2.43967721
C    0.89375562  -0.22579182   2.11447411
H    1.83726181  -0.32811372   2.60866688
H    0.80794105  -0.97127404   1.35172172
H    0.10355927  -0.35003623   2.82514432
C    0.79661272   1.17323391   1.47816423
N    0.72428542   2.21487216   1.00440260
