30
Energy:    -93.04470279
C    1.24192579   2.00249510  -1.10083867
H    1.37125397   0.99396458  -0.76761114
H    2.01599830   2.61608258  -0.68947357
H    1.29149793   2.03425619  -2.16921731
C   -0.12964515   2.52520655  -0.63482803
N   -1.15084205   2.91438897  -0.28786192
C   -2.98861522   0.53813452  -2.23019961
H   -3.35738423  -0.13669313  -1.48621222
H   -3.62555022   0.50455895  -3.08931868
H   -2.97521760   1.53229545  -1.83477117
C   -1.56043325   0.12685632  -2.63361812
N   -0.49708685  -0.17935900  -2.93398154
C    3.47318667  -0.51687372   2.39075045
H    2.78932582  -1.31663909   2.58468312
H    3.10428330   0.38362526   2.83562231
H    4.42888300  -0.75557081   2.80856297
C    3.61289211  -0.31830910   0.87000902
N    3.71690916  -0.17046871  -0.26225209
C   -2.42967734   0.50521989   1.90032901
H   -2.58516525   1.55168872   1.74024564
H   -2.86970265   0.21772433   2.83232854
H   -2.88405473  -0.04856979   1.10549741
C   -0.91861700   0.20990838   1.93331015
N    0.20643611  -0.00996446   1.95786611
C    0.63955961  -2.58707478  -0.53576139
H    1.14654911  -2.13089367   0.28871458
H    0.93955460  -2.11163291  -1.44617730
H    0.88947402  -3.62665702  -0.57712140
C   -0.88158741  -2.43169388  -0.35254430
N   -2.01415052  -2.31600573  -0.21613085
