30
Energy:    -97.22794393
C   -1.78724786   1.27037544   2.16643731
H   -2.83216041   1.29100852   1.93702016
H   -1.54525591   2.09642110   2.80203746
H   -1.54978357   0.35442947   2.66598989
C   -0.97341205   1.37006864   0.86285282
N   -0.36747429   1.44429476  -0.10772509
C    2.97131665   1.63586215   1.82505365
H    3.81256976   1.02560507   1.57053516
H    3.30131158   2.47724656   2.39783172
H    2.49527493   1.97827277   0.93004620
C    1.97073744   0.81039480   2.65514094
N    1.22576073   0.19579684   3.27317865
C   -2.79151399  -0.29167963  -2.36661075
H   -1.95077176   0.37014345  -2.37316096
H   -3.62881857   0.19079691  -2.82599787
H   -2.54971610  -1.18086918  -2.91046258
C   -3.14447045  -0.65884806  -0.91326665
N   -3.40726257  -0.93222165   0.16881409
C    1.53543711   0.20003743  -2.81784378
H    1.06173437  -0.65628050  -3.25053940
H    2.20269063   0.63699877  -3.53110153
H    0.79129064   0.91685879  -2.53979294
C    2.32788472  -0.22809022  -1.56871068
N    2.91789799  -0.54685072  -0.63867431
C    0.06189084  -2.24462681   0.94960080
H    0.24798398  -3.20733875   1.37791755
H   -0.81019720  -1.81705279   1.39853509
H    0.90291910  -1.60711589   1.12609551
C   -0.16124171  -2.39196766  -0.56700810
N   -0.32737403  -2.50166962  -1.69619236
