
                                 *****************
                                 * O   R   C   A *
                                 *****************

           --- An Ab Initio, DFT and Semiempirical electronic structure package ---

                  #######################################################
                  #                        -***-                        #
                  #          Department of theory and spectroscopy      #
                  #               Directorship: Frank Neese             #
                  #        Max Planck Institute fuer Kohlenforschung    #
                  #                Kaiser Wilhelm Platz 1               #
                  #                 D-45470 Muelheim/Ruhr               #
                  #                      Germany                        #
                  #                                                     #
                  #                  All rights reserved                #
                  #                        -***-                        #
                  #######################################################


                         Program Version 4.2.0 -  RELEASE  -


 With contributions from (in alphabetic order):
   Daniel Aravena         : Magnetic Suceptibility
   Michael Atanasov       : Ab Initio Ligand Field Theory (pilot matlab implementation)
   Alexander A. Auer      : GIAO ZORA, VPT2
   Ute Becker             : Parallelization
   Giovanni Bistoni       : ED, misc. LED, open-shell LED, HFLED
   Martin Brehm           : Molecular dynamics
   Dmytro Bykov           : SCF Hessian
   Vijay G. Chilkuri      : MRCI spin determinant printing, contributions to CSF-ICE
   Dipayan Datta          : RHF DLPNO-CCSD density
   Achintya Kumar Dutta   : EOM-CC, STEOM-CC
   Dmitry Ganyushin       : Spin-Orbit,Spin-Spin,Magnetic field MRCI
   Miquel Garcia          : C-PCM Hessian, Gaussian charge scheme
   Yang Guo               : DLPNO-NEVPT2, CIM, IAO-localization
   Andreas Hansen         : Spin unrestricted coupled pair/coupled cluster methods
   Benjamin Helmich-Paris : CASSCF linear response (MC-RPA)
   Lee Huntington         : MR-EOM, pCC
   Robert Izsak           : Overlap fitted RIJCOSX, COSX-SCS-MP3, EOM
   Christian Kollmar      : KDIIS, OOCD, Brueckner-CCSD(T), CCSD density
   Simone Kossmann        : Meta GGA functionals, TD-DFT gradient, OOMP2, MP2 Hessian
   Martin Krupicka        : AUTO-CI
   Lucas Lang             : DCDCAS
   Dagmar Lenk            : GEPOL surface, SMD
   Dimitrios Liakos       : Extrapolation schemes; Compound Job, initial MDCI parallelization
   Dimitrios Manganas     : Further ROCIS development; embedding schemes
   Dimitrios Pantazis     : SARC Basis sets
   Taras Petrenko         : DFT Hessian,TD-DFT gradient, ASA, ECA, R-Raman, ABS, FL, XAS/XES, NRVS
   Peter Pinski           : DLPNO-MP2, DLPNO-MP2 Gradient
   Christoph Reimann      : Effective Core Potentials
   Marius Retegan         : Local ZFS, SOC
   Christoph Riplinger    : Optimizer, TS searches, QM/MM, DLPNO-CCSD(T), (RO)-DLPNO pert. Triples
   Tobias Risthaus        : Range-separated hybrids, TD-DFT gradient, RPA, STAB
   Michael Roemelt        : Original ROCIS implementation
   Masaaki Saitow         : Open-shell DLPNO-CCSD energy and density
   Barbara Sandhoefer     : DKH picture change effects
   Avijit Sen             : IP-ROCIS
   Kantharuban Sivalingam : CASSCF convergence, NEVPT2, FIC-MRCI
   Bernardo de Souza      : ESD, SOC TD-DFT
   Georgi Stoychev        : AutoAux, RI-MP2 NMR
   Willem Van den Heuvel  : Paramagnetic NMR
   Boris Wezisla          : Elementary symmetry handling
   Frank Wennmohs         : Technical directorship


 We gratefully acknowledge several colleagues who have allowed us to
 interface, adapt or use parts of their codes:
   Stefan Grimme, W. Hujo, H. Kruse,             : VdW corrections, initial TS optimization,
                  C. Bannwarth                     DFT functionals, gCP, sTDA/sTD-DF
   Ed Valeev, F. Pavosevic, A. Kumar             : LibInt (2-el integral package), F12 methods
   Garnet Chan, S. Sharma, J. Yang, R. Olivares  : DMRG
   Ulf Ekstrom                                   : XCFun DFT Library
   Mihaly Kallay                                 : mrcc  (arbitrary order and MRCC methods)
   Andreas Klamt, Michael Diedenhofen            : otool_cosmo (COSMO solvation model)
   Jiri Pittner, Ondrej Demel                    : Mk-CCSD
   Frank Weinhold                                : gennbo (NPA and NBO analysis)
   Christopher J. Cramer and Donald G. Truhlar   : smd solvation model
   Lars Goerigk                                  : TD-DFT with DH, B97 family of functionals
   V. Asgeirsson, H. Jonsson                     : NEB implementation
   FAccTs GmbH                                   : IRC, NEB, NEB-TS, Multilevel, MM, QM/MM, CI optimization
   S Lehtola, MJT Oliveira, MAL Marques          : LibXC Library


 Your calculation uses the libint2 library for the computation of 2-el integrals
 For citations please refer to: http://libint.valeyev.net

 Your ORCA version has been built with support for libXC version: 4.2.3
 For citations please refer to: https://tddft.org/programs/libxc/

 This ORCA versions uses:
   CBLAS   interface :  Fast vector & matrix operations
   LAPACKE interface :  Fast linear algebra routines
   SCALAPACK package :  Parallel linear algebra routines


----- Orbital basis set information -----
Your calculation utilizes the basis: def2-TZVP
   F. Weigend and R. Ahlrichs, Phys. Chem. Chem. Phys. 7, 3297 (2005).

================================================================================
                                        WARNINGS
                       Please study these warnings very carefully!
================================================================================


WARNING: The frozen-core approximation for MP2-gradient calculations is turned on by default.

INFO   : the flag for use of LIBINT has been found!

================================================================================
                                       INPUT FILE
================================================================================
NAME = 12h2o.su.etal.mol0,1,2,4,5,6,7,8,9,10,11-orca.engrad-mp2.def2tzvp.frozencore.inp
|  1> # 12h2o.su.etal.mol0,1,2,4,5,6,7,8,9,10,11
|  2> ! MP2 def2-TZVP EnGrad TightSCF
|  3> 
|  4> %pal
|  5>     nprocs 6
|  6> end
|  7> 
|  8> %maxcore 8000
|  9> 
| 10> %scf
| 11>     ConvForced true
| 12> end
| 13> 
| 14> *xyz 0 1
| 15> O   1.794470000   0.923410000   2.768350000
| 16> H   2.338250000   1.359750000   3.430940000
| 17> H   0.879480000   1.303000000   2.865760000
| 18> O  -1.794470000  -0.923410000   2.768350000
| 19> H  -2.338250000  -1.359750000   3.430940000
| 20> H  -0.879480000  -1.303000000   2.865760000
| 21> O   0.923410000  -1.794470000  -2.768350000
| 22> H   1.359750000  -2.338250000  -3.430940000
| 23> H   1.303000000  -0.879480000  -2.865760000
| 24> O  -0.885520000   1.737840000   0.052730000
| 25> H  -1.032320000   2.090180000  -0.841890000
| 26> H  -1.284090000   0.839590000   0.017130000
| 27> O   0.885520000  -1.737840000   0.052730000
| 28> H   1.284090000  -0.839590000   0.017130000
| 29> H   1.032320000  -2.090180000  -0.841890000
| 30> O   1.737840000   0.885520000  -0.052730000
| 31> H   2.090180000   1.032320000   0.841890000
| 32> H   0.839590000   1.284090000  -0.017130000
| 33> O  -1.737840000  -0.885520000  -0.052730000
| 34> H  -2.090180000  -1.032320000   0.841890000
| 35> H  -0.839590000  -1.284090000  -0.017130000
| 36> O   1.752130000   0.741530000  -2.896280000
| 37> H   2.036450000   0.920500000  -1.984040000
| 38> H   0.921210000   1.242140000  -2.984230000
| 39> O   0.741530000  -1.752130000   2.896280000
| 40> H   0.920500000  -2.036450000   1.984040000
| 41> H   1.242140000  -0.921210000   2.984230000
| 42> O  -0.923410000   1.794470000  -2.768350000
| 43> H  -1.359750000   2.338250000  -3.430940000
| 44> H  -1.303000000   0.879480000  -2.865760000
| 45> O  -0.741530000   1.752130000   2.896280000
| 46> H  -0.920500000   2.036450000   1.984040000
| 47> H  -1.242140000   0.921210000   2.984230000
| 48> *
| 49> 
| 50>                          ****END OF INPUT****
================================================================================

                     *******************************
                     * Energy+Gradient Calculation *
                     *******************************

---------------------------------
CARTESIAN COORDINATES (ANGSTROEM)
---------------------------------
  O      1.794470    0.923410    2.768350
  H      2.338250    1.359750    3.430940
  H      0.879480    1.303000    2.865760
  O     -1.794470   -0.923410    2.768350
  H     -2.338250   -1.359750    3.430940
  H     -0.879480   -1.303000    2.865760
  O      0.923410   -1.794470   -2.768350
  H      1.359750   -2.338250   -3.430940
  H      1.303000   -0.879480   -2.865760
  O     -0.885520    1.737840    0.052730
  H     -1.032320    2.090180   -0.841890
  H     -1.284090    0.839590    0.017130
  O      0.885520   -1.737840    0.052730
  H      1.284090   -0.839590    0.017130
  H      1.032320   -2.090180   -0.841890
  O      1.737840    0.885520   -0.052730
  H      2.090180    1.032320    0.841890
  H      0.839590    1.284090   -0.017130
  O     -1.737840   -0.885520   -0.052730
  H     -2.090180   -1.032320    0.841890
  H     -0.839590   -1.284090   -0.017130
  O      1.752130    0.741530   -2.896280
  H      2.036450    0.920500   -1.984040
  H      0.921210    1.242140   -2.984230
  O      0.741530   -1.752130    2.896280
  H      0.920500   -2.036450    1.984040
  H      1.242140   -0.921210    2.984230
  O     -0.923410    1.794470   -2.768350
  H     -1.359750    2.338250   -3.430940
  H     -1.303000    0.879480   -2.865760
  O     -0.741530    1.752130    2.896280
  H     -0.920500    2.036450    1.984040
  H     -1.242140    0.921210    2.984230

----------------------------
CARTESIAN COORDINATES (A.U.)
----------------------------
  NO LB      ZA    FRAG     MASS         X           Y           Z
   0 O     8.0000    0    15.999    3.391057    1.744992    5.231423
   1 H     1.0000    0     1.008    4.418652    2.569555    6.483537
   2 H     1.0000    0     1.008    1.661976    2.462313    5.415502
   3 O     8.0000    0    15.999   -3.391057   -1.744992    5.231423
   4 H     1.0000    0     1.008   -4.418652   -2.569555    6.483537
   5 H     1.0000    0     1.008   -1.661976   -2.462313    5.415502
   6 O     8.0000    0    15.999    1.744992   -3.391057   -5.231423
   7 H     1.0000    0     1.008    2.569555   -4.418652   -6.483537
   8 H     1.0000    0     1.008    2.462313   -1.661976   -5.415502
   9 O     8.0000    0    15.999   -1.673390    3.284042    0.099645
  10 H     1.0000    0     1.008   -1.950802    3.949868   -1.590942
  11 H     1.0000    0     1.008   -2.426578    1.586595    0.032371
  12 O     8.0000    0    15.999    1.673390   -3.284042    0.099645
  13 H     1.0000    0     1.008    2.426578   -1.586595    0.032371
  14 H     1.0000    0     1.008    1.950802   -3.949868   -1.590942
  15 O     8.0000    0    15.999    3.284042    1.673390   -0.099645
  16 H     1.0000    0     1.008    3.949868    1.950802    1.590942
  17 H     1.0000    0     1.008    1.586595    2.426578   -0.032371
  18 O     8.0000    0    15.999   -3.284042   -1.673390   -0.099645
  19 H     1.0000    0     1.008   -3.949868   -1.950802    1.590942
  20 H     1.0000    0     1.008   -1.586595   -2.426578   -0.032371
  21 O     8.0000    0    15.999    3.311046    1.401289   -5.473176
  22 H     1.0000    0     1.008    3.848333    1.739493   -3.749292
  23 H     1.0000    0     1.008    1.740835    2.347304   -5.639377
  24 O     8.0000    0    15.999    1.401289   -3.311046    5.473176
  25 H     1.0000    0     1.008    1.739493   -3.848333    3.749292
  26 H     1.0000    0     1.008    2.347304   -1.740835    5.639377
  27 O     8.0000    0    15.999   -1.744992    3.391057   -5.231423
  28 H     1.0000    0     1.008   -2.569555    4.418652   -6.483537
  29 H     1.0000    0     1.008   -2.462313    1.661976   -5.415502
  30 O     8.0000    0    15.999   -1.401289    3.311046    5.473176
  31 H     1.0000    0     1.008   -1.739493    3.848333    3.749292
  32 H     1.0000    0     1.008   -2.347304    1.740835    5.639377

--------------------------------
INTERNAL COORDINATES (ANGSTROEM)
--------------------------------
 O      0   0   0     0.000000000000     0.00000000     0.00000000
 H      1   0   0     0.961828878803     0.00000000     0.00000000
 H      1   2   0     0.995381322057   106.21731035     0.00000000
 O      3   1   2     3.480861789658   117.35405144   223.81249033
 H      4   3   1     0.961828878803   134.84484566    98.22461471
 H      4   3   1     0.995381322057    62.29205096    12.66575463
 O      6   4   3     5.935920367146   102.58474291   273.48279218
 H      7   6   4     0.961828878803   146.97742434   224.01286022
 H      7   6   4     0.995381322057    97.62005672    87.72090689
 O      3   1   2     3.349245975813   116.85538783   143.82107740
 H     10   3   1     0.972645187106   154.03893681   304.15813038
 H     10   3   1     0.983350632989    97.20424340    87.67157074
 O      7   6   4     2.821902722526    17.32744736   169.52589616
 H     13   7   6     0.983350632989    88.66470709   258.45499027
 H     13   7   6     0.972645187106    21.75017499   124.29821266
 O     14  13   7     1.785153773264   170.81379649    89.95043540
 H     16  14  13     0.972645187106   101.65007623   109.44492584
 H     16  14  13     0.983350632989    99.09581498     3.33484705
 O     12  10   3     1.785153773264   170.81379649   301.36914736
 H     19  12  10     0.972645187106   101.65007623   109.44492584
 H     19  12  10     0.983350632989    99.09581498     3.33484705
 O      9   7   6     1.682356278379   171.61043709   321.17145860
 H     22   9   7     0.972136791249   103.79460456    70.64587838
 H     22   9   7     0.974050112161   105.61118924   321.69395179
 O      6   4   3     1.682356278379   171.61043709   328.33166207
 H     25   6   4     0.972136791249   103.79460456   289.35412162
 H     25   6   4     0.974050112161   105.61118924    38.30604821
 O     24  22   9     1.937600461318   161.54375213    39.05245435
 H     28  24  22     0.961828878803   121.08403650   202.75419110
 H     28  24  22     0.995381322057    95.17003195   315.21089530
 O      3   1   2     1.682356278379   171.61043709   195.73896161
 H     31   3   1     0.972136791249   103.79460456   289.35412162
 H     31   3   1     0.974050112161   105.61118924    38.30604821

---------------------------
INTERNAL COORDINATES (A.U.)
---------------------------
 O      0   0   0     0.000000000000     0.00000000     0.00000000
 H      1   0   0     1.817593168635     0.00000000     0.00000000
 H      1   2   0     1.880998097508   106.21731035     0.00000000
 O      3   1   2     6.577875492484   117.35405144   223.81249033
 H      4   3   1     1.817593168635   134.84484566    98.22461471
 H      4   3   1     1.880998097508    62.29205096    12.66575463
 O      6   4   3    11.217263846671   102.58474291   273.48279218
 H      7   6   4     1.817593168635   146.97742434   224.01286022
 H      7   6   4     1.880998097508    97.62005672    87.72090689
 O      3   1   2     6.329157649425   116.85538783   143.82107740
 H     10   3   1     1.838033029106   154.03893681   304.15813038
 H     10   3   1     1.858263389967    97.20424340    87.67157074
 O      7   6   4     5.332623322141    17.32744736   169.52589616
 H     13   7   6     1.858263389967    88.66470709   258.45499027
 H     13   7   6     1.838033029106    21.75017499   124.29821266
 O     14  13   7     3.373451738406   170.81379649    89.95043540
 H     16  14  13     1.838033029106   101.65007623   109.44492584
 H     16  14  13     1.858263389967    99.09581498     3.33484705
 O     12  10   3     3.373451738406   170.81379649   301.36914736
 H     19  12  10     1.838033029106   101.65007623   109.44492584
 H     19  12  10     1.858263389967    99.09581498     3.33484705
 O      9   7   6     3.179192625819   171.61043709   321.17145860
 H     22   9   7     1.837072300170   103.79460456    70.64587838
 H     22   9   7     1.840687952699   105.61118924   321.69395179
 O      6   4   3     3.179192625819   171.61043709   328.33166207
 H     25   6   4     1.837072300170   103.79460456   289.35412162
 H     25   6   4     1.840687952699   105.61118924    38.30604821
 O     24  22   9     3.661534228851   161.54375213    39.05245435
 H     28  24  22     1.817593168635   121.08403650   202.75419110
 H     28  24  22     1.880998097508    95.17003195   315.21089530
 O      3   1   2     3.179192625819   171.61043709   195.73896161
 H     31   3   1     1.837072300170   103.79460456   289.35412162
 H     31   3   1     1.840687952699   105.61118924    38.30604821

---------------------
BASIS SET INFORMATION
---------------------
There are 2 groups of distinct atoms

 Group   1 Type O   : 11s6p2d1f contracted to 5s3p2d1f pattern {62111/411/11/1}
 Group   2 Type H   : 5s1p contracted to 3s1p pattern {311/1}

Atom   0O    basis set group =>   1
Atom   1H    basis set group =>   2
Atom   2H    basis set group =>   2
Atom   3O    basis set group =>   1
Atom   4H    basis set group =>   2
Atom   5H    basis set group =>   2
Atom   6O    basis set group =>   1
Atom   7H    basis set group =>   2
Atom   8H    basis set group =>   2
Atom   9O    basis set group =>   1
Atom  10H    basis set group =>   2
Atom  11H    basis set group =>   2
Atom  12O    basis set group =>   1
Atom  13H    basis set group =>   2
Atom  14H    basis set group =>   2
Atom  15O    basis set group =>   1
Atom  16H    basis set group =>   2
Atom  17H    basis set group =>   2
Atom  18O    basis set group =>   1
Atom  19H    basis set group =>   2
Atom  20H    basis set group =>   2
Atom  21O    basis set group =>   1
Atom  22H    basis set group =>   2
Atom  23H    basis set group =>   2
Atom  24O    basis set group =>   1
Atom  25H    basis set group =>   2
Atom  26H    basis set group =>   2
Atom  27O    basis set group =>   1
Atom  28H    basis set group =>   2
Atom  29H    basis set group =>   2
Atom  30O    basis set group =>   1
Atom  31H    basis set group =>   2
Atom  32H    basis set group =>   2


           ************************************************************
           *        Program running with 6 parallel MPI-processes     *
           *              working on a common directory               *
           ************************************************************
------------------------------------------------------------------------------
                           ORCA GTO INTEGRAL CALCULATION
------------------------------------------------------------------------------

                         BASIS SET STATISTICS AND STARTUP INFO

 # of primitive gaussian shells          ...  352
 # of primitive gaussian functions       ...  682
 # of contracted shells                  ...  209
 # of contracted basis functions         ...  473
 Highest angular momentum                ...    3
 Maximum contraction depth               ...    6
 Integral package used                   ... LIBINT
 Integral threshhold            Thresh   ...  2.500e-11
 Primitive cut-off              TCut     ...  2.500e-12


------------------------------ INTEGRAL EVALUATION ----------------------------


 * One electron integrals 
 Pre-screening matrix                    ... done
 Shell pair data                         ... done (   0.004 sec)



           ************************************************************
           *        Program running with 6 parallel MPI-processes     *
           *              working on a common directory               *
           ************************************************************
-------------------------------------------------------------------------------
                                 ORCA SCF
-------------------------------------------------------------------------------

------------
SCF SETTINGS
------------
Hamiltonian:
 Ab initio Hamiltonian  Method          .... Hartree-Fock(GTOs)


General Settings:
 Integral files         IntName         .... 12h2o.su.etal.mol0,1,2,4,5,6,7,8,9,10,11-orca.engrad-mp2.def2tzvp.frozencore
 Hartree-Fock type      HFTyp           .... RHF
 Total Charge           Charge          ....    0
 Multiplicity           Mult            ....    1
 Number of Electrons    NEL             ....  110
 Basis Dimension        Dim             ....  473
 Nuclear Repulsion      ENuc            ....    858.4300714036 Eh

Convergence Acceleration:
 DIIS                   CNVDIIS         .... on
   Start iteration      DIISMaxIt       ....    12
   Startup error        DIISStart       ....  0.200000
   # of expansion vecs  DIISMaxEq       ....     5
   Bias factor          DIISBfac        ....   1.050
   Max. coefficient     DIISMaxC        ....  10.000
 Newton-Raphson         CNVNR           .... off
 SOSCF                  CNVSOSCF        .... on
   Start iteration      SOSCFMaxIt      ....   150
   Startup grad/error   SOSCFStart      ....  0.003300
 Level Shifting         CNVShift        .... on
   Level shift para.    LevelShift      ....    0.2500
   Turn off err/grad.   ShiftErr        ....    0.0010
 Zerner damping         CNVZerner       .... off
 Static damping         CNVDamp         .... on
   Fraction old density DampFac         ....    0.7000
   Max. Damping (<1)    DampMax         ....    0.9800
   Min. Damping (>=0)   DampMin         ....    0.0000
   Turn off err/grad.   DampErr         ....    0.1000
 Fernandez-Rico         CNVRico         .... off

SCF Procedure:
 Maximum # iterations   MaxIter         ....   125
 SCF integral mode      SCFMode         .... Direct
   Integral package                     .... LIBINT
 Reset frequency        DirectResetFreq ....    20
 Integral Threshold     Thresh          ....  2.500e-11 Eh
 Primitive CutOff       TCut            ....  2.500e-12 Eh

Convergence Tolerance:
 Convergence Check Mode ConvCheckMode   .... Total+1el-Energy
 Convergence forced     ConvForced      .... 1
 Energy Change          TolE            ....  1.000e-08 Eh
 1-El. energy change                    ....  1.000e-05 Eh
 Orbital Gradient       TolG            ....  1.000e-05
 Orbital Rotation angle TolX            ....  1.000e-05
 DIIS Error             TolErr          ....  5.000e-07


Diagonalization of the overlap matrix:
Smallest eigenvalue                        ... 2.660e-03
Time for diagonalization                   ...    0.036 sec
Threshold for overlap eigenvalues          ... 1.000e-08
Number of eigenvalues below threshold      ... 0
Time for construction of square roots      ...    0.018 sec
Total time needed                          ...    0.055 sec

-------------------
DFT GRID GENERATION
-------------------

General Integration Accuracy     IntAcc      ...  4.340
Radial Grid Type                 RadialGrid  ... Gauss-Chebyshev
Angular Grid (max. acc.)         AngularGrid ... Lebedev-110
Angular grid pruning method      GridPruning ... 3 (G Style)
Weight generation scheme         WeightScheme... Becke
Basis function cutoff            BFCut       ...    1.0000e-11
Integration weight cutoff        WCut        ...    1.0000e-14
Grids for H and He will be reduced by one unit

# of grid points (after initial pruning)     ...  36344 (   0.0 sec)
# of grid points (after weights+screening)   ...  33151 (   0.1 sec)
nearest neighbour list constructed           ...    0.0 sec
Grid point re-assignment to atoms done       ...    0.0 sec
Grid point division into batches done        ...    0.0 sec
Reduced shell lists constructed in    0.1 sec

Total number of grid points                  ...    33151
Total number of batches                      ...      538
Average number of points per batch           ...       61
Average number of grid points per atom       ...     1005
Average number of shells per batch           ...    89.87 (43.00%)
Average number of basis functions per batch  ...   176.31 (37.27%)
Average number of large shells per batch     ...    57.31 (63.77%)
Average number of large basis fcns per batch ...   109.53 (62.12%)
Maximum spatial batch extension              ...  13.26, 17.21, 11.66 au
Average spatial batch extension              ...   0.54,  0.63,  0.52 au

Time for grid setup =    0.161 sec

------------------------------
INITIAL GUESS: MODEL POTENTIAL
------------------------------
Loading Hartree-Fock densities                     ... done
Calculating cut-offs                               ... done
Setting up the integral package                    ... done
Initializing the effective Hamiltonian             ... done
Starting the Coulomb interaction                   ... done (   0.1 sec)
Reading the grid                                   ... done
Mapping shells                                     ... done
Starting the XC term evaluation                    ... done (   0.1 sec)
Transforming the Hamiltonian                       ... done (   0.0 sec)
Diagonalizing the Hamiltonian                      ... done (   0.0 sec)
Back transforming the eigenvectors                 ... done (   0.0 sec)
Now organizing SCF variables                       ... done
                      ------------------
                      INITIAL GUESS DONE (   0.5 sec)
                      ------------------
--------------
SCF ITERATIONS
--------------
ITER       Energy         Delta-E        Max-DP      RMS-DP      [F,P]     Damp
               ***  Starting incremental Fock matrix formation  ***
  0   -835.8745236175   0.000000000000 0.04171610  0.00068892  0.3205693 0.7000
  1   -836.2129289549  -0.338405337400 0.02773655  0.00047903  0.2167468 0.7000
                               ***Turning on DIIS***
  2   -836.3945801925  -0.181651237596 0.01565044  0.00027194  0.1631061 0.7000
  3   -838.1629576417  -1.768377449246 0.00740975  0.00012861  0.1212729 0.7000
  4   -837.8088372627   0.354120379032 0.01687810  0.00029828  0.0858256 0.0000
  5   -836.8064446651   1.002392597616 0.00212380  0.00004705  0.0051138 0.0000
                      *** Initiating the SOSCF procedure ***
                           *** Shutting down DIIS ***
                      *** Re-Reading the Fockian *** 
                      *** Removing any level shift *** 
ITER      Energy       Delta-E        Grad      Rot      Max-DP    RMS-DP
  6   -836.76131635   0.0451283185  0.000759  0.000759  0.001424  0.000029
               *** Restarting incremental Fock matrix formation ***
  7   -836.74777755   0.0135387975  0.000295  0.000426  0.000655  0.000013
  8   -836.74779217  -0.0000146232  0.000122  0.000373  0.000584  0.000011
  9   -836.74779586  -0.0000036856  0.000061  0.000035  0.000102  0.000002
 10   -836.74779613  -0.0000002723  0.000017  0.000014  0.000021  0.000000
                  ***Gradient check signals convergence***
              ***Rediagonalizing the Fockian in SOSCF/NRSCF***

               *****************************************************
               *                     SUCCESS                       *
               *           SCF CONVERGED AFTER  11 CYCLES          *
               *****************************************************


----------------
TOTAL SCF ENERGY
----------------

Total Energy       :         -836.74779614 Eh          -22769.06509 eV

Components:
Nuclear Repulsion  :          858.43007140 Eh           23359.06980 eV
Electronic Energy  :        -1695.17786755 Eh          -46128.13488 eV
One Electron Energy:        -2868.56967886 Eh          -78057.74934 eV
Two Electron Energy:         1173.39181131 Eh           31929.61446 eV

Virial components:
Potential Energy   :        -1672.55278369 Eh          -45512.47505 eV
Kinetic Energy     :          835.80498755 Eh           22743.40996 eV
Virial Ratio       :            2.00112802


---------------
SCF CONVERGENCE
---------------

  Last Energy change         ...   -1.1372e-08  Tolerance :   1.0000e-08
  Last MAX-Density change    ...    5.6495e-06  Tolerance :   1.0000e-07
  Last RMS-Density change    ...    9.7687e-08  Tolerance :   5.0000e-09
  Last Orbital Gradient      ...    2.1660e-06  Tolerance :   1.0000e-05
  Last Orbital Rotation      ...    2.0509e-06  Tolerance :   1.0000e-05

             **** THE GBW FILE WAS UPDATED (12h2o.su.etal.mol0,1,2,4,5,6,7,8,9,10,11-orca.engrad-mp2.def2tzvp.frozencore.gbw) ****
             **** DENSITY FILE WAS UPDATED (12h2o.su.etal.mol0,1,2,4,5,6,7,8,9,10,11-orca.engrad-mp2.def2tzvp.frozencore.scfp) ****
             **** ENERGY FILE WAS UPDATED (12h2o.su.etal.mol0,1,2,4,5,6,7,8,9,10,11-orca.engrad-mp2.def2tzvp.frozencore.en.tmp) ****
             **** THE GBW FILE WAS UPDATED (12h2o.su.etal.mol0,1,2,4,5,6,7,8,9,10,11-orca.engrad-mp2.def2tzvp.frozencore.gbw) ****
             **** DENSITY FILE WAS UPDATED (12h2o.su.etal.mol0,1,2,4,5,6,7,8,9,10,11-orca.engrad-mp2.def2tzvp.frozencore.scfp) ****
----------------
ORBITAL ENERGIES
----------------

  NO   OCC          E(Eh)            E(eV) 
   0   2.0000     -20.618137      -561.0480 
   1   2.0000     -20.565550      -559.6171 
   2   2.0000     -20.560706      -559.4853 
   3   2.0000     -20.559950      -559.4647 
   4   2.0000     -20.555686      -559.3486 
   5   2.0000     -20.554353      -559.3124 
   6   2.0000     -20.551062      -559.2228 
   7   2.0000     -20.546932      -559.1105 
   8   2.0000     -20.544344      -559.0400 
   9   2.0000     -20.540672      -558.9401 
  10   2.0000     -20.533365      -558.7413 
  11   2.0000      -1.398831       -38.0641 
  12   2.0000      -1.366984       -37.1975 
  13   2.0000      -1.356638       -36.9160 
  14   2.0000      -1.353140       -36.8208 
  15   2.0000      -1.351468       -36.7753 
  16   2.0000      -1.344055       -36.5736 
  17   2.0000      -1.336386       -36.3649 
  18   2.0000      -1.334851       -36.3231 
  19   2.0000      -1.328895       -36.1611 
  20   2.0000      -1.320882       -35.9430 
  21   2.0000      -1.313199       -35.7340 
  22   2.0000      -0.764087       -20.7919 
  23   2.0000      -0.731089       -19.8940 
  24   2.0000      -0.727234       -19.7890 
  25   2.0000      -0.723956       -19.6998 
  26   2.0000      -0.721932       -19.6448 
  27   2.0000      -0.712607       -19.3910 
  28   2.0000      -0.710802       -19.3419 
  29   2.0000      -0.706611       -19.2279 
  30   2.0000      -0.705045       -19.1852 
  31   2.0000      -0.698211       -18.9993 
  32   2.0000      -0.694096       -18.8873 
  33   2.0000      -0.647985       -17.6326 
  34   2.0000      -0.632358       -17.2073 
  35   2.0000      -0.615822       -16.7574 
  36   2.0000      -0.608004       -16.5446 
  37   2.0000      -0.600992       -16.3538 
  38   2.0000      -0.592928       -16.1344 
  39   2.0000      -0.585695       -15.9376 
  40   2.0000      -0.572785       -15.5863 
  41   2.0000      -0.568774       -15.4771 
  42   2.0000      -0.563707       -15.3392 
  43   2.0000      -0.546312       -14.8659 
  44   2.0000      -0.538443       -14.6518 
  45   2.0000      -0.513360       -13.9692 
  46   2.0000      -0.509978       -13.8772 
  47   2.0000      -0.507580       -13.8120 
  48   2.0000      -0.503643       -13.7048 
  49   2.0000      -0.497800       -13.5458 
  50   2.0000      -0.497271       -13.5314 
  51   2.0000      -0.495581       -13.4854 
  52   2.0000      -0.490595       -13.3498 
  53   2.0000      -0.489702       -13.3255 
  54   2.0000      -0.482215       -13.1217 
  55   0.0000       0.098359         2.6765 
  56   0.0000       0.128896         3.5074 
  57   0.0000       0.148894         4.0516 
  58   0.0000       0.150736         4.1017 
  59   0.0000       0.185898         5.0585 
  60   0.0000       0.192748         5.2449 
  61   0.0000       0.212795         5.7904 
  62   0.0000       0.218879         5.9560 
  63   0.0000       0.250291         6.8108 
  64   0.0000       0.257094         6.9959 
  65   0.0000       0.257753         7.0138 
  66   0.0000       0.274090         7.4584 
  67   0.0000       0.308878         8.4050 
  68   0.0000       0.310288         8.4434 
  69   0.0000       0.314400         8.5553 
  70   0.0000       0.323821         8.8116 
  71   0.0000       0.332824         9.0566 
  72   0.0000       0.345390         9.3985 
  73   0.0000       0.348248         9.4763 
  74   0.0000       0.351207         9.5568 
  75   0.0000       0.364510         9.9188 
  76   0.0000       0.367123         9.9899 
  77   0.0000       0.404048        10.9947 
  78   0.0000       0.466844        12.7035 
  79   0.0000       0.484329        13.1793 
  80   0.0000       0.488053        13.2806 
  81   0.0000       0.496476        13.5098 
  82   0.0000       0.501170        13.6375 
  83   0.0000       0.516297        14.0491 
  84   0.0000       0.525826        14.3085 
  85   0.0000       0.529371        14.4049 
  86   0.0000       0.534369        14.5409 
  87   0.0000       0.539617        14.6837 
  88   0.0000       0.545741        14.8504 
  89   0.0000       0.551774        15.0145 
  90   0.0000       0.558310        15.1924 
  91   0.0000       0.558950        15.2098 
  92   0.0000       0.560877        15.2622 
  93   0.0000       0.568283        15.4638 
  94   0.0000       0.578906        15.7528 
  95   0.0000       0.596240        16.2245 
  96   0.0000       0.610159        16.6033 
  97   0.0000       0.615928        16.7603 
  98   0.0000       0.630461        17.1557 
  99   0.0000       0.641768        17.4634 
 100   0.0000       0.652250        17.7486 
 101   0.0000       0.665000        18.0956 
 102   0.0000       0.672806        18.3080 
 103   0.0000       0.706314        19.2198 
 104   0.0000       0.707684        19.2571 
 105   0.0000       0.712481        19.3876 
 106   0.0000       0.723431        19.6855 
 107   0.0000       0.732002        19.9188 
 108   0.0000       0.740996        20.1635 
 109   0.0000       0.745817        20.2947 
 110   0.0000       0.757299        20.6072 
 111   0.0000       0.761376        20.7181 
 112   0.0000       0.764123        20.7929 
 113   0.0000       0.786685        21.4068 
 114   0.0000       0.791301        21.5324 
 115   0.0000       0.802093        21.8261 
 116   0.0000       0.808167        21.9914 
 117   0.0000       0.815537        22.1919 
 118   0.0000       0.822443        22.3798 
 119   0.0000       0.834949        22.7201 
 120   0.0000       0.836883        22.7728 
 121   0.0000       0.851295        23.1649 
 122   0.0000       0.868274        23.6269 
 123   0.0000       0.872597        23.7446 
 124   0.0000       0.892842        24.2955 
 125   0.0000       0.903310        24.5803 
 126   0.0000       0.918608        24.9966 
 127   0.0000       0.931521        25.3480 
 128   0.0000       0.933393        25.3989 
 129   0.0000       0.957813        26.0634 
 130   0.0000       0.967253        26.3203 
 131   0.0000       1.005109        27.3504 
 132   0.0000       1.019973        27.7549 
 133   0.0000       1.041949        28.3529 
 134   0.0000       1.049688        28.5635 
 135   0.0000       1.054093        28.6833 
 136   0.0000       1.061859        28.8946 
 137   0.0000       1.083677        29.4883 
 138   0.0000       1.122253        30.5380 
 139   0.0000       1.147009        31.2117 
 140   0.0000       1.169030        31.8109 
 141   0.0000       1.208501        32.8850 
 142   0.0000       1.290987        35.1295 
 143   0.0000       1.346128        36.6300 
 144   0.0000       1.365038        37.1446 
 145   0.0000       1.388774        37.7905 
 146   0.0000       1.392001        37.8783 
 147   0.0000       1.398901        38.0660 
 148   0.0000       1.408232        38.3199 
 149   0.0000       1.415310        38.5125 
 150   0.0000       1.419486        38.6262 
 151   0.0000       1.426309        38.8118 
 152   0.0000       1.432575        38.9824 
 153   0.0000       1.442192        39.2440 
 154   0.0000       1.446144        39.3516 
 155   0.0000       1.448706        39.4213 
 156   0.0000       1.452402        39.5219 
 157   0.0000       1.494004        40.6539 
 158   0.0000       1.498544        40.7775 
 159   0.0000       1.513956        41.1968 
 160   0.0000       1.531750        41.6810 
 161   0.0000       1.536503        41.8104 
 162   0.0000       1.551160        42.2092 
 163   0.0000       1.555580        42.3295 
 164   0.0000       1.565962        42.6120 
 165   0.0000       1.570735        42.7419 
 166   0.0000       1.583800        43.0974 
 167   0.0000       1.595959        43.4283 
 168   0.0000       1.603852        43.6430 
 169   0.0000       1.616189        43.9787 
 170   0.0000       1.623701        44.1832 
 171   0.0000       1.627342        44.2822 
 172   0.0000       1.643498        44.7219 
 173   0.0000       1.653031        44.9813 
 174   0.0000       1.657173        45.0940 
 175   0.0000       1.687781        45.9269 
 176   0.0000       1.801021        49.0083 
 177   0.0000       1.836947        49.9859 
 178   0.0000       1.868207        50.8365 
 179   0.0000       1.884465        51.2789 
 180   0.0000       1.899966        51.7007 
 181   0.0000       1.907899        51.9166 
 182   0.0000       1.916445        52.1491 
 183   0.0000       1.921857        52.2964 
 184   0.0000       1.931888        52.5693 
 185   0.0000       1.948851        53.0309 
 186   0.0000       1.953160        53.1482 
 187   0.0000       1.966226        53.5037 
 188   0.0000       1.976855        53.7930 
 189   0.0000       1.985246        54.0213 
 190   0.0000       1.999996        54.4227 
 191   0.0000       2.010967        54.7212 
 192   0.0000       2.012181        54.7542 
 193   0.0000       2.019148        54.9438 
 194   0.0000       2.027372        55.1676 
 195   0.0000       2.036684        55.4210 
 196   0.0000       2.061541        56.0974 
 197   0.0000       2.081255        56.6338 
 198   0.0000       2.084782        56.7298 
 199   0.0000       2.116521        57.5935 
 200   0.0000       2.133623        58.0588 
 201   0.0000       2.147234        58.4292 
 202   0.0000       2.159052        58.7508 
 203   0.0000       2.182491        59.3886 
 204   0.0000       2.188895        59.5629 
 205   0.0000       2.196637        59.7735 
 206   0.0000       2.212721        60.2112 
 207   0.0000       2.218868        60.3785 
 208   0.0000       2.225719        60.5649 
 209   0.0000       2.241849        61.0038 
 210   0.0000       2.255843        61.3846 
 211   0.0000       2.267959        61.7143 
 212   0.0000       2.272374        61.8344 
 213   0.0000       2.289543        62.3016 
 214   0.0000       2.302758        62.6612 
 215   0.0000       2.321206        63.1632 
 216   0.0000       2.338671        63.6385 
 217   0.0000       2.355203        64.0883 
 218   0.0000       2.356226        64.1162 
 219   0.0000       2.360033        64.2198 
 220   0.0000       2.370171        64.4956 
 221   0.0000       2.378238        64.7152 
 222   0.0000       2.392100        65.0923 
 223   0.0000       2.406251        65.4774 
 224   0.0000       2.416390        65.7533 
 225   0.0000       2.423405        65.9442 
 226   0.0000       2.425285        65.9954 
 227   0.0000       2.450955        66.6939 
 228   0.0000       2.471959        67.2654 
 229   0.0000       2.481491        67.5248 
 230   0.0000       2.509487        68.2866 
 231   0.0000       2.516087        68.4662 
 232   0.0000       2.538704        69.0816 
 233   0.0000       2.553545        69.4855 
 234   0.0000       2.555148        69.5291 
 235   0.0000       2.564910        69.7948 
 236   0.0000       2.588278        70.4306 
 237   0.0000       2.593997        70.5862 
 238   0.0000       2.599757        70.7430 
 239   0.0000       2.612975        71.1027 
 240   0.0000       2.622949        71.3741 
 241   0.0000       2.627105        71.4872 
 242   0.0000       2.632736        71.6404 
 243   0.0000       2.646865        72.0249 
 244   0.0000       2.653595        72.2080 
 245   0.0000       2.659347        72.3645 
 246   0.0000       2.660254        72.3892 
 247   0.0000       2.669878        72.6511 
 248   0.0000       2.677052        72.8463 
 249   0.0000       2.679515        72.9133 
 250   0.0000       2.686574        73.1054 
 251   0.0000       2.693583        73.2961 
 252   0.0000       2.702523        73.5394 
 253   0.0000       2.734806        74.4179 
 254   0.0000       2.740116        74.5623 
 255   0.0000       2.744508        74.6819 
 256   0.0000       2.757259        75.0288 
 257   0.0000       2.764962        75.2384 
 258   0.0000       2.781573        75.6905 
 259   0.0000       2.809306        76.4451 
 260   0.0000       2.824658        76.8629 
 261   0.0000       2.830153        77.0124 
 262   0.0000       2.839673        77.2714 
 263   0.0000       2.883382        78.4608 
 264   0.0000       2.915866        79.3448 
 265   0.0000       2.926157        79.6248 
 266   0.0000       2.940026        80.0022 
 267   0.0000       2.950088        80.2760 
 268   0.0000       2.972715        80.8917 
 269   0.0000       2.989345        81.3442 
 270   0.0000       2.999301        81.6151 
 271   0.0000       3.013182        81.9929 
 272   0.0000       3.027603        82.3853 
 273   0.0000       3.034273        82.5668 
 274   0.0000       3.038148        82.6722 
 275   0.0000       3.050364        83.0046 
 276   0.0000       3.058929        83.2377 
 277   0.0000       3.061472        83.3069 
 278   0.0000       3.079640        83.8013 
 279   0.0000       3.083021        83.8933 
 280   0.0000       3.120116        84.9027 
 281   0.0000       3.132782        85.2473 
 282   0.0000       3.144522        85.5668 
 283   0.0000       3.150106        85.7187 
 284   0.0000       3.158489        85.9469 
 285   0.0000       3.165143        86.1279 
 286   0.0000       3.176329        86.4323 
 287   0.0000       3.211296        87.3838 
 288   0.0000       3.213191        87.4354 
 289   0.0000       3.241293        88.2001 
 290   0.0000       3.283823        89.3574 
 291   0.0000       3.291168        89.5572 
 292   0.0000       3.309561        90.0577 
 293   0.0000       3.322908        90.4209 
 294   0.0000       3.330226        90.6200 
 295   0.0000       3.333075        90.6976 
 296   0.0000       3.348895        91.1281 
 297   0.0000       3.370780        91.7236 
 298   0.0000       3.385285        92.1183 
 299   0.0000       3.391495        92.2873 
 300   0.0000       3.409907        92.7883 
 301   0.0000       3.469197        94.4017 
 302   0.0000       3.479686        94.6871 
 303   0.0000       3.502362        95.3041 
 304   0.0000       3.517249        95.7092 
 305   0.0000       3.554731        96.7291 
 306   0.0000       3.583370        97.5085 
 307   0.0000       3.593484        97.7837 
 308   0.0000       3.973192       108.1161 
 309   0.0000       4.058147       110.4278 
 310   0.0000       4.084940       111.1569 
 311   0.0000       4.102016       111.6215 
 312   0.0000       4.128995       112.3557 
 313   0.0000       4.148766       112.8937 
 314   0.0000       4.150276       112.9347 
 315   0.0000       4.158013       113.1453 
 316   0.0000       4.177225       113.6681 
 317   0.0000       4.201519       114.3291 
 318   0.0000       4.240420       115.3877 
 319   0.0000       4.268014       116.1386 
 320   0.0000       4.329416       117.8094 
 321   0.0000       4.331921       117.8776 
 322   0.0000       4.336653       118.0063 
 323   0.0000       4.346576       118.2763 
 324   0.0000       4.360052       118.6431 
 325   0.0000       4.385068       119.3238 
 326   0.0000       4.389605       119.4472 
 327   0.0000       4.405652       119.8839 
 328   0.0000       4.410192       120.0074 
 329   0.0000       4.436418       120.7211 
 330   0.0000       5.495690       149.5453 
 331   0.0000       5.538340       150.7059 
 332   0.0000       5.539405       150.7349 
 333   0.0000       5.543614       150.8494 
 334   0.0000       5.544509       150.8738 
 335   0.0000       5.547227       150.9477 
 336   0.0000       5.548447       150.9809 
 337   0.0000       5.551882       151.0744 
 338   0.0000       5.554702       151.1511 
 339   0.0000       5.563810       151.3990 
 340   0.0000       5.567778       151.5070 
 341   0.0000       5.590518       152.1257 
 342   0.0000       5.633999       153.3089 
 343   0.0000       5.642957       153.5527 
 344   0.0000       5.652586       153.8147 
 345   0.0000       5.672996       154.3701 
 346   0.0000       5.680769       154.5816 
 347   0.0000       5.691831       154.8826 
 348   0.0000       5.697235       155.0297 
 349   0.0000       5.697793       155.0448 
 350   0.0000       5.700795       155.1265 
 351   0.0000       5.704054       155.2152 
 352   0.0000       5.759914       156.7352 
 353   0.0000       5.798778       157.7928 
 354   0.0000       5.807558       158.0317 
 355   0.0000       5.811829       158.1479 
 356   0.0000       5.817847       158.3117 
 357   0.0000       5.828281       158.5956 
 358   0.0000       5.830367       158.6523 
 359   0.0000       5.834017       158.7517 
 360   0.0000       5.835855       158.8017 
 361   0.0000       5.840644       158.9320 
 362   0.0000       5.842969       158.9953 
 363   0.0000       5.847381       159.1153 
 364   0.0000       5.854726       159.3152 
 365   0.0000       5.858295       159.4123 
 366   0.0000       5.863857       159.5637 
 367   0.0000       5.866809       159.6440 
 368   0.0000       5.871137       159.7618 
 369   0.0000       5.875176       159.8717 
 370   0.0000       5.885419       160.1504 
 371   0.0000       5.890968       160.3014 
 372   0.0000       5.891909       160.3270 
 373   0.0000       5.893722       160.3763 
 374   0.0000       5.896358       160.4480 
 375   0.0000       5.899753       160.5404 
 376   0.0000       5.907007       160.7378 
 377   0.0000       5.912018       160.8742 
 378   0.0000       5.917758       161.0304 
 379   0.0000       5.918853       161.0602 
 380   0.0000       5.924826       161.2227 
 381   0.0000       5.926810       161.2767 
 382   0.0000       5.928957       161.3351 
 383   0.0000       5.936762       161.5475 
 384   0.0000       5.950810       161.9298 
 385   0.0000       6.378644       173.5717 
 386   0.0000       6.467233       175.9824 
 387   0.0000       6.475193       176.1990 
 388   0.0000       6.477681       176.2667 
 389   0.0000       6.479938       176.3281 
 390   0.0000       6.489419       176.5861 
 391   0.0000       6.490739       176.6220 
 392   0.0000       6.498460       176.8321 
 393   0.0000       6.506736       177.0573 
 394   0.0000       6.511918       177.1983 
 395   0.0000       6.520081       177.4204 
 396   0.0000       6.641195       180.7161 
 397   0.0000       6.669704       181.4919 
 398   0.0000       6.680729       181.7919 
 399   0.0000       6.704274       182.4326 
 400   0.0000       6.716977       182.7782 
 401   0.0000       6.735697       183.2876 
 402   0.0000       6.747052       183.5966 
 403   0.0000       6.763965       184.0569 
 404   0.0000       6.766823       184.1346 
 405   0.0000       6.777617       184.4283 
 406   0.0000       6.806186       185.2057 
 407   0.0000       6.831179       185.8858 
 408   0.0000       6.843333       186.2166 
 409   0.0000       6.857845       186.6114 
 410   0.0000       6.861674       186.7156 
 411   0.0000       6.864444       186.7910 
 412   0.0000       6.873492       187.0372 
 413   0.0000       6.892786       187.5623 
 414   0.0000       6.894901       187.6198 
 415   0.0000       6.900419       187.7699 
 416   0.0000       6.906336       187.9310 
 417   0.0000       6.908856       187.9995 
 418   0.0000       6.915861       188.1901 
 419   0.0000       6.919287       188.2834 
 420   0.0000       6.923542       188.3992 
 421   0.0000       6.924936       188.4371 
 422   0.0000       6.938719       188.8122 
 423   0.0000       6.944807       188.9778 
 424   0.0000       6.955088       189.2576 
 425   0.0000       6.959091       189.3665 
 426   0.0000       6.964398       189.5109 
 427   0.0000       6.971692       189.7094 
 428   0.0000       6.980616       189.9522 
 429   0.0000       6.986097       190.1014 
 430   0.0000       6.994198       190.3218 
 431   0.0000       7.001045       190.5081 
 432   0.0000       7.011919       190.8040 
 433   0.0000       7.058635       192.0752 
 434   0.0000       7.062384       192.1772 
 435   0.0000       7.070804       192.4064 
 436   0.0000       7.096097       193.0946 
 437   0.0000       7.122890       193.8237 
 438   0.0000       7.126108       193.9113 
 439   0.0000       7.163893       194.9394 
 440   0.0000       7.342201       199.7915 
 441   0.0000       7.368162       200.4979 
 442   0.0000       7.398281       201.3175 
 443   0.0000       7.436180       202.3487 
 444   0.0000       7.446159       202.6203 
 445   0.0000       7.464483       203.1189 
 446   0.0000       7.482057       203.5971 
 447   0.0000       7.497674       204.0221 
 448   0.0000       7.500241       204.0919 
 449   0.0000       7.504929       204.2195 
 450   0.0000       7.511542       204.3995 
 451   0.0000       7.564703       205.8460 
 452   0.0000       7.570938       206.0157 
 453   0.0000       7.573930       206.0971 
 454   0.0000       7.579356       206.2448 
 455   0.0000       7.585650       206.4160 
 456   0.0000       7.598733       206.7720 
 457   0.0000       7.606834       206.9925 
 458   0.0000       7.632709       207.6966 
 459   0.0000       7.639220       207.8737 
 460   0.0000       7.654158       208.2802 
 461   0.0000       7.662804       208.5155 
 462   0.0000      44.899834      1221.7866 
 463   0.0000      44.994870      1224.3727 
 464   0.0000      45.011306      1224.8199 
 465   0.0000      45.024713      1225.1847 
 466   0.0000      45.036371      1225.5019 
 467   0.0000      45.046211      1225.7697 
 468   0.0000      45.084987      1226.8249 
 469   0.0000      45.120297      1227.7857 
 470   0.0000      45.144305      1228.4390 
 471   0.0000      45.159000      1228.8389 
 472   0.0000      45.312064      1233.0040 

                    ********************************
                    * MULLIKEN POPULATION ANALYSIS *
                    ********************************

-----------------------
MULLIKEN ATOMIC CHARGES
-----------------------
   0 O :   -0.800469
   1 H :    0.360754
   2 H :    0.418235
   3 O :   -0.799685
   4 H :    0.359182
   5 H :    0.417405
   6 O :   -0.777643
   7 H :    0.345271
   8 H :    0.403792
   9 O :   -0.807442
  10 H :    0.396795
  11 H :    0.398335
  12 O :   -0.812454
  13 H :    0.392517
  14 H :    0.407224
  15 O :   -0.808782
  16 H :    0.405202
  17 H :    0.393894
  18 O :   -0.787413
  19 H :    0.393150
  20 H :    0.399635
  21 O :   -0.759349
  22 H :    0.406251
  23 H :    0.382158
  24 O :   -0.770322
  25 H :    0.407064
  26 H :    0.390694
  27 O :   -0.757782
  28 H :    0.376301
  29 H :    0.399686
  30 O :   -0.769705
  31 H :    0.404183
  32 H :    0.393317
Sum of atomic charges:   -0.0000000

--------------------------------
MULLIKEN REDUCED ORBITAL CHARGES
--------------------------------
  0 O s       :     3.806599  s :     3.806599
      pz      :     1.724311  p :     4.970827
      px      :     1.449598
      py      :     1.796918
      dz2     :     0.003536  d :     0.021666
      dxz     :     0.004374
      dyz     :     0.004952
      dx2y2   :     0.002161
      dxy     :     0.006644
      f0      :     0.000080  f :     0.001377
      f+1     :     0.000313
      f-1     :     0.000169
      f+2     :     0.000061
      f-2     :     0.000346
      f+3     :     0.000081
      f-3     :     0.000328
  1 H s       :     0.593926  s :     0.593926
      pz      :     0.016893  p :     0.045320
      px      :     0.013693
      py      :     0.014735
  2 H s       :     0.526031  s :     0.526031
      pz      :     0.009656  p :     0.055734
      px      :     0.033144
      py      :     0.012934
  3 O s       :     3.805980  s :     3.805980
      pz      :     1.726105  p :     4.970613
      px      :     1.449798
      py      :     1.794709
      dz2     :     0.003597  d :     0.021713
      dxz     :     0.004433
      dyz     :     0.004949
      dx2y2   :     0.002164
      dxy     :     0.006570
      f0      :     0.000081  f :     0.001379
      f+1     :     0.000314
      f-1     :     0.000170
      f+2     :     0.000061
      f-2     :     0.000346
      f+3     :     0.000081
      f-3     :     0.000327
  4 H s       :     0.595484  s :     0.595484
      pz      :     0.016912  p :     0.045334
      px      :     0.013681
      py      :     0.014741
  5 H s       :     0.526845  s :     0.526845
      pz      :     0.009673  p :     0.055750
      px      :     0.033141
      py      :     0.012936
  6 O s       :     3.808407  s :     3.808407
      pz      :     1.709065  p :     4.945200
      px      :     1.810763
      py      :     1.425372
      dz2     :     0.003553  d :     0.022615
      dxz     :     0.005326
      dyz     :     0.004219
      dx2y2   :     0.002217
      dxy     :     0.007300
      f0      :     0.000079  f :     0.001421
      f+1     :     0.000177
      f-1     :     0.000308
      f+2     :     0.000069
      f-2     :     0.000348
      f+3     :     0.000351
      f-3     :     0.000088
  7 H s       :     0.608927  s :     0.608927
      pz      :     0.016911  p :     0.045802
      px      :     0.014993
      py      :     0.013898
  8 H s       :     0.539596  s :     0.539596
      pz      :     0.010011  p :     0.056612
      px      :     0.013951
      py      :     0.032650
  9 O s       :     3.798717  s :     3.798717
      pz      :     1.601723  p :     4.985646
      px      :     1.848896
      py      :     1.535027
      dz2     :     0.009988  d :     0.021778
      dxz     :     0.001852
      dyz     :     0.002500
      dx2y2   :     0.003032
      dxy     :     0.004407
      f0      :     0.000171  f :     0.001301
      f+1     :     0.000105
      f-1     :     0.000429
      f+2     :     0.000067
      f-2     :     0.000035
      f+3     :     0.000403
      f-3     :     0.000092
 10 H s       :     0.554741  s :     0.554741
      pz      :     0.024501  p :     0.048464
      px      :     0.012720
      py      :     0.011243
 11 H s       :     0.548874  s :     0.548874
      pz      :     0.008524  p :     0.052791
      px      :     0.014312
      py      :     0.029955
 12 O s       :     3.798963  s :     3.798963
      pz      :     1.615723  p :     4.990523
      px      :     1.850386
      py      :     1.524414
      dz2     :     0.009832  d :     0.021664
      dxz     :     0.001796
      dyz     :     0.002383
      dx2y2   :     0.003105
      dxy     :     0.004549
      f0      :     0.000166  f :     0.001304
      f+1     :     0.000105
      f-1     :     0.000428
      f+2     :     0.000068
      f-2     :     0.000035
      f+3     :     0.000408
      f-3     :     0.000095
 13 H s       :     0.554842  s :     0.554842
      pz      :     0.008811  p :     0.052641
      px      :     0.014652
      py      :     0.029177
 14 H s       :     0.544236  s :     0.544236
      pz      :     0.025369  p :     0.048540
      px      :     0.012212
      py      :     0.010959
 15 O s       :     3.798951  s :     3.798951
      pz      :     1.612232  p :     4.986773
      px      :     1.526033
      py      :     1.848507
      dz2     :     0.009888  d :     0.021754
      dxz     :     0.002426
      dyz     :     0.001830
      dx2y2   :     0.003089
      dxy     :     0.004522
      f0      :     0.000168  f :     0.001304
      f+1     :     0.000428
      f-1     :     0.000105
      f+2     :     0.000067
      f-2     :     0.000035
      f+3     :     0.000094
      f-3     :     0.000407
 16 H s       :     0.546210  s :     0.546210
      pz      :     0.025155  p :     0.048587
      px      :     0.011054
      py      :     0.012378
 17 H s       :     0.553472  s :     0.553472
      pz      :     0.008739  p :     0.052634
      px      :     0.029343
      py      :     0.014552
 18 O s       :     3.797993  s :     3.797993
      pz      :     1.600948  p :     4.964714
      px      :     1.528003
      py      :     1.835763
      dz2     :     0.011029  d :     0.023409
      dxz     :     0.002824
      dyz     :     0.001983
      dx2y2   :     0.003230
      dxy     :     0.004343
      f0      :     0.000149  f :     0.001297
      f+1     :     0.000447
      f-1     :     0.000105
      f+2     :     0.000065
      f-2     :     0.000038
      f+3     :     0.000091
      f-3     :     0.000401
 19 H s       :     0.558395  s :     0.558395
      pz      :     0.024862  p :     0.048455
      px      :     0.010947
      py      :     0.012646
 20 H s       :     0.547170  s :     0.547170
      pz      :     0.009272  p :     0.053195
      px      :     0.029302
      py      :     0.014620
 21 O s       :     3.792586  s :     3.792586
      pz      :     1.576774  p :     4.941358
      px      :     1.581142
      py      :     1.783442
      dz2     :     0.011648  d :     0.024058
      dxz     :     0.001189
      dyz     :     0.002234
      dx2y2   :     0.002361
      dxy     :     0.006626
      f0      :     0.000227  f :     0.001347
      f+1     :     0.000377
      f-1     :     0.000148
      f+2     :     0.000050
      f-2     :     0.000055
      f+3     :     0.000048
      f-3     :     0.000443
 22 H s       :     0.545852  s :     0.545852
      pz      :     0.024990  p :     0.047897
      px      :     0.010996
      py      :     0.011911
 23 H s       :     0.568304  s :     0.568304
      pz      :     0.010026  p :     0.049537
      px      :     0.023717
      py      :     0.015794
 24 O s       :     3.792437  s :     3.792437
      pz      :     1.578459  p :     4.952801
      px      :     1.782683
      py      :     1.591659
      dz2     :     0.011634  d :     0.023751
      dxz     :     0.002146
      dyz     :     0.001193
      dx2y2   :     0.002289
      dxy     :     0.006490
      f0      :     0.000225  f :     0.001332
      f+1     :     0.000146
      f-1     :     0.000376
      f+2     :     0.000050
      f-2     :     0.000054
      f+3     :     0.000435
      f-3     :     0.000045
 25 H s       :     0.545103  s :     0.545103
      pz      :     0.025056  p :     0.047833
      px      :     0.011844
      py      :     0.010933
 26 H s       :     0.559774  s :     0.559774
      pz      :     0.009770  p :     0.049532
      px      :     0.015576
      py      :     0.024186
 27 O s       :     3.807654  s :     3.807654
      pz      :     1.733771  p :     4.925031
      px      :     1.796183
      py      :     1.395076
      dz2     :     0.003987  d :     0.023630
      dxz     :     0.005323
      dyz     :     0.004509
      dx2y2   :     0.002508
      dxy     :     0.007303
      f0      :     0.000085  f :     0.001468
      f+1     :     0.000179
      f-1     :     0.000333
      f+2     :     0.000062
      f-2     :     0.000347
      f+3     :     0.000370
      f-3     :     0.000093
 28 H s       :     0.578788  s :     0.578788
      pz      :     0.017049  p :     0.044911
      px      :     0.014647
      py      :     0.013215
 29 H s       :     0.560175  s :     0.560175
      pz      :     0.010118  p :     0.040139
      px      :     0.011857
      py      :     0.018164
 30 O s       :     3.792346  s :     3.792346
      pz      :     1.574472  p :     4.952268
      px      :     1.783636
      py      :     1.594160
      dz2     :     0.011668  d :     0.023759
      dxz     :     0.002151
      dyz     :     0.001210
      dx2y2   :     0.002269
      dxy     :     0.006461
      f0      :     0.000227  f :     0.001333
      f+1     :     0.000146
      f-1     :     0.000377
      f+2     :     0.000050
      f-2     :     0.000054
      f+3     :     0.000435
      f-3     :     0.000044
 31 H s       :     0.547995  s :     0.547995
      pz      :     0.024869  p :     0.047822
      px      :     0.011948
      py      :     0.011005
 32 H s       :     0.557186  s :     0.557186
      pz      :     0.009692  p :     0.049497
      px      :     0.015517
      py      :     0.024288


                     *******************************
                     * LOEWDIN POPULATION ANALYSIS *
                     *******************************

----------------------
LOEWDIN ATOMIC CHARGES
----------------------
   0 O :   -0.328705
   1 H :    0.158863
   2 H :    0.157933
   3 O :   -0.328948
   4 H :    0.158015
   5 H :    0.157888
   6 O :   -0.350852
   7 H :    0.152857
   8 H :    0.154167
   9 O :   -0.318994
  10 H :    0.156455
  11 H :    0.153496
  12 O :   -0.320430
  13 H :    0.150942
  14 H :    0.160933
  15 O :   -0.318918
  16 H :    0.159385
  17 H :    0.151584
  18 O :   -0.333180
  19 H :    0.154330
  20 H :    0.151591
  21 O :   -0.299217
  22 H :    0.162325
  23 H :    0.154101
  24 O :   -0.301404
  25 H :    0.162342
  26 H :    0.156353
  27 O :   -0.299743
  28 H :    0.168939
  29 H :    0.199935
  30 O :   -0.300983
  31 H :    0.161371
  32 H :    0.157570

-------------------------------
LOEWDIN REDUCED ORBITAL CHARGES
-------------------------------
  0 O s       :     3.454050  s :     3.454050
      pz      :     1.682285  p :     4.844692
      px      :     1.410768
      py      :     1.751639
      dz2     :     0.004546  d :     0.028030
      dxz     :     0.006632
      dyz     :     0.005065
      dx2y2   :     0.003526
      dxy     :     0.008262
      f0      :     0.000084  f :     0.001934
      f+1     :     0.000424
      f-1     :     0.000257
      f+2     :     0.000031
      f-2     :     0.000607
      f+3     :     0.000082
      f-3     :     0.000449
  1 H s       :     0.675611  s :     0.675611
      pz      :     0.066053  p :     0.165526
      px      :     0.046355
      py      :     0.053118
  2 H s       :     0.641885  s :     0.641885
      pz      :     0.033017  p :     0.200182
      px      :     0.119478
      py      :     0.047686
  3 O s       :     3.454281  s :     3.454281
      pz      :     1.683241  p :     4.844606
      px      :     1.410631
      py      :     1.750734
      dz2     :     0.004610  d :     0.028123
      dxz     :     0.006698
      dyz     :     0.005078
      dx2y2   :     0.003536
      dxy     :     0.008201
      f0      :     0.000085  f :     0.001938
      f+1     :     0.000425
      f-1     :     0.000257
      f+2     :     0.000031
      f-2     :     0.000609
      f+3     :     0.000082
      f-3     :     0.000448
  4 H s       :     0.676451  s :     0.676451
      pz      :     0.066119  p :     0.165534
      px      :     0.046339
      py      :     0.053076
  5 H s       :     0.641995  s :     0.641995
      pz      :     0.033047  p :     0.200117
      px      :     0.119415
      py      :     0.047655
  6 O s       :     3.460397  s :     3.460397
      pz      :     1.676273  p :     4.859627
      px      :     1.782757
      py      :     1.400597
      dz2     :     0.004486  d :     0.028857
      dxz     :     0.005560
      dyz     :     0.006780
      dx2y2   :     0.003181
      dxy     :     0.008850
      f0      :     0.000081  f :     0.001970
      f+1     :     0.000260
      f-1     :     0.000424
      f+2     :     0.000034
      f-2     :     0.000618
      f+3     :     0.000469
      f-3     :     0.000084
  7 H s       :     0.682292  s :     0.682292
      pz      :     0.065689  p :     0.164851
      px      :     0.053272
      py      :     0.045890
  8 H s       :     0.647904  s :     0.647904
      pz      :     0.033244  p :     0.197929
      px      :     0.047773
      py      :     0.116912
  9 O s       :     3.448265  s :     3.448265
      pz      :     1.556145  p :     4.841102
      px      :     1.788007
      py      :     1.496950
      dz2     :     0.013261  d :     0.027757
      dxz     :     0.001126
      dyz     :     0.003693
      dx2y2   :     0.004420
      dxy     :     0.005257
      f0      :     0.000348  f :     0.001870
      f+1     :     0.000185
      f-1     :     0.000683
      f+2     :     0.000035
      f-2     :     0.000045
      f+3     :     0.000512
      f-3     :     0.000063
 10 H s       :     0.670131  s :     0.670131
      pz      :     0.092814  p :     0.173414
      px      :     0.042923
      py      :     0.037677
 11 H s       :     0.655312  s :     0.655312
      pz      :     0.029982  p :     0.191191
      px      :     0.052701
      py      :     0.108508
 12 O s       :     3.447580  s :     3.447580
      pz      :     1.564498  p :     4.843575
      px      :     1.788284
      py      :     1.490793
      dz2     :     0.012852  d :     0.027414
      dxz     :     0.001080
      dyz     :     0.003410
      dx2y2   :     0.004563
      dxy     :     0.005508
      f0      :     0.000330  f :     0.001862
      f+1     :     0.000186
      f-1     :     0.000673
      f+2     :     0.000034
      f-2     :     0.000043
      f+3     :     0.000529
      f-3     :     0.000065
 13 H s       :     0.660420  s :     0.660420
      pz      :     0.030544  p :     0.188638
      px      :     0.052761
      py      :     0.105333
 14 H s       :     0.663676  s :     0.663676
      pz      :     0.095808  p :     0.175391
      px      :     0.042336
      py      :     0.037247
 15 O s       :     3.447659  s :     3.447659
      pz      :     1.562064  p :     4.841787
      px      :     1.491801
      py      :     1.787922
      dz2     :     0.013011  d :     0.027606
      dxz     :     0.003489
      dyz     :     0.001102
      dx2y2   :     0.004541
      dxy     :     0.005464
      f0      :     0.000336  f :     0.001867
      f+1     :     0.000677
      f-1     :     0.000185
      f+2     :     0.000034
      f-2     :     0.000043
      f+3     :     0.000064
      f-3     :     0.000527
 16 H s       :     0.665689  s :     0.665689
      pz      :     0.094979  p :     0.174926
      px      :     0.037381
      py      :     0.042567
 17 H s       :     0.659374  s :     0.659374
      pz      :     0.030422  p :     0.189042
      px      :     0.105913
      py      :     0.052707
 18 O s       :     3.454073  s :     3.454073
      pz      :     1.575819  p :     4.849067
      px      :     1.492649
      py      :     1.780600
      dz2     :     0.013289  d :     0.028168
      dxz     :     0.003756
      dyz     :     0.001150
      dx2y2   :     0.004670
      dxy     :     0.005304
      f0      :     0.000329  f :     0.001871
      f+1     :     0.000689
      f-1     :     0.000190
      f+2     :     0.000035
      f-2     :     0.000044
      f+3     :     0.000064
      f-3     :     0.000520
 19 H s       :     0.671298  s :     0.671298
      pz      :     0.093882  p :     0.174372
      px      :     0.037708
      py      :     0.042782
 20 H s       :     0.660228  s :     0.660228
      pz      :     0.030312  p :     0.188181
      px      :     0.105303
      py      :     0.052567
 21 O s       :     3.446336  s :     3.446336
      pz      :     1.545347  p :     4.820932
      px      :     1.548297
      py      :     1.727289
      dz2     :     0.014718  d :     0.029935
      dxz     :     0.001740
      dyz     :     0.001690
      dx2y2   :     0.003463
      dxy     :     0.008324
      f0      :     0.000409  f :     0.002014
      f+1     :     0.000541
      f-1     :     0.000318
      f+2     :     0.000019
      f-2     :     0.000048
      f+3     :     0.000025
      f-3     :     0.000653
 22 H s       :     0.664433  s :     0.664433
      pz      :     0.094922  p :     0.173241
      px      :     0.036825
      py      :     0.041494
 23 H s       :     0.671832  s :     0.671832
      pz      :     0.031316  p :     0.174067
      px      :     0.085018
      py      :     0.057733
 24 O s       :     3.445043  s :     3.445043
      pz      :     1.546254  p :     4.825161
      px      :     1.725427
      py      :     1.553480
      dz2     :     0.014525  d :     0.029221
      dxz     :     0.001617
      dyz     :     0.001757
      dx2y2   :     0.003353
      dxy     :     0.007969
      f0      :     0.000408  f :     0.001979
      f+1     :     0.000314
      f-1     :     0.000535
      f+2     :     0.000019
      f-2     :     0.000048
      f+3     :     0.000631
      f-3     :     0.000025
 25 H s       :     0.664230  s :     0.664230
      pz      :     0.095116  p :     0.173428
      px      :     0.041369
      py      :     0.036943
 26 H s       :     0.667926  s :     0.667926
      pz      :     0.031113  p :     0.175721
      px      :     0.057853
      py      :     0.086756
 27 O s       :     3.460421  s :     3.460421
      pz      :     1.687563  p :     4.806614
      px      :     1.748374
      py      :     1.370677
      dz2     :     0.005274  d :     0.030674
      dxz     :     0.005192
      dyz     :     0.006674
      dx2y2   :     0.004076
      dxy     :     0.009459
      f0      :     0.000089  f :     0.002034
      f+1     :     0.000268
      f-1     :     0.000439
      f+2     :     0.000033
      f-2     :     0.000598
      f+3     :     0.000518
      f-3     :     0.000089
 28 H s       :     0.666867  s :     0.666867
      pz      :     0.066715  p :     0.164195
      px      :     0.052747
      py      :     0.044733
 29 H s       :     0.650271  s :     0.650271
      pz      :     0.033022  p :     0.149794
      px      :     0.043388
      py      :     0.073384
 30 O s       :     3.445021  s :     3.445021
      pz      :     1.544098  p :     4.824753
      px      :     1.725781
      py      :     1.554875
      dz2     :     0.014611  d :     0.029228
      dxz     :     0.001628
      dyz     :     0.001799
      dx2y2   :     0.003317
      dxy     :     0.007873
      f0      :     0.000412  f :     0.001980
      f+1     :     0.000314
      f-1     :     0.000536
      f+2     :     0.000019
      f-2     :     0.000049
      f+3     :     0.000626
      f-3     :     0.000025
 31 H s       :     0.665704  s :     0.665704
      pz      :     0.094405  p :     0.172925
      px      :     0.041495
      py      :     0.037025
 32 H s       :     0.666393  s :     0.666393
      pz      :     0.030956  p :     0.176037
      px      :     0.057859
      py      :     0.087222


                      *****************************
                      * MAYER POPULATION ANALYSIS *
                      *****************************

  NA   - Mulliken gross atomic population
  ZA   - Total nuclear charge
  QA   - Mulliken gross atomic charge
  VA   - Mayer's total valence
  BVA  - Mayer's bonded valence
  FA   - Mayer's free valence

  ATOM       NA         ZA         QA         VA         BVA        FA
  0 O      8.8005     8.0000    -0.8005     1.6648     1.6648     0.0000
  1 H      0.6392     1.0000     0.3608     0.8874     0.8874     0.0000
  2 H      0.5818     1.0000     0.4182     0.8658     0.8658    -0.0000
  3 O      8.7997     8.0000    -0.7997     1.6656     1.6656    -0.0000
  4 H      0.6408     1.0000     0.3592     0.8884     0.8884     0.0000
  5 H      0.5826     1.0000     0.4174     0.8677     0.8677    -0.0000
  6 O      8.7776     8.0000    -0.7776     1.6816     1.6816    -0.0000
  7 H      0.6547     1.0000     0.3453     0.8976     0.8976    -0.0000
  8 H      0.5962     1.0000     0.4038     0.8763     0.8763    -0.0000
  9 O      8.8074     8.0000    -0.8074     1.6569     1.6569    -0.0000
 10 H      0.6032     1.0000     0.3968     0.8710     0.8710    -0.0000
 11 H      0.6017     1.0000     0.3983     0.8905     0.8905    -0.0000
 12 O      8.8125     8.0000    -0.8125     1.6600     1.6600     0.0000
 13 H      0.6075     1.0000     0.3925     0.8876     0.8876     0.0000
 14 H      0.5928     1.0000     0.4072     0.8714     0.8714    -0.0000
 15 O      8.8088     8.0000    -0.8088     1.6606     1.6606    -0.0000
 16 H      0.5948     1.0000     0.4052     0.8702     0.8702    -0.0000
 17 H      0.6061     1.0000     0.3939     0.8871     0.8871    -0.0000
 18 O      8.7874     8.0000    -0.7874     1.6985     1.6985     0.0000
 19 H      0.6068     1.0000     0.3932     0.8758     0.8758     0.0000
 20 H      0.6004     1.0000     0.3996     0.8796     0.8796    -0.0000
 21 O      8.7593     8.0000    -0.7593     1.7300     1.7300    -0.0000
 22 H      0.5937     1.0000     0.4063     0.8612     0.8612    -0.0000
 23 H      0.6178     1.0000     0.3822     0.8824     0.8824    -0.0000
 24 O      8.7703     8.0000    -0.7703     1.7220     1.7220    -0.0000
 25 H      0.5929     1.0000     0.4071     0.8611     0.8611    -0.0000
 26 H      0.6093     1.0000     0.3907     0.8819     0.8819    -0.0000
 27 O      8.7578     8.0000    -0.7578     1.7433     1.7433     0.0000
 28 H      0.6237     1.0000     0.3763     0.8744     0.8744     0.0000
 29 H      0.6003     1.0000     0.3997     0.8554     0.8554    -0.0000
 30 O      8.7697     8.0000    -0.7697     1.7231     1.7231     0.0000
 31 H      0.5958     1.0000     0.4042     0.8617     0.8617     0.0000
 32 H      0.6067     1.0000     0.3933     0.8813     0.8813     0.0000

  Mayer bond orders larger than 0.100000
B(  0-O ,  1-H ) :   0.8775 B(  0-O ,  2-H ) :   0.7604 B(  3-O ,  4-H ) :   0.8783 
B(  3-O ,  5-H ) :   0.7606 B(  6-O ,  7-H ) :   0.8890 B(  6-O ,  8-H ) :   0.7851 
B(  9-O , 10-H ) :   0.8404 B(  9-O , 11-H ) :   0.7809 B( 12-O , 13-H ) :   0.8030 
B( 12-O , 14-H ) :   0.8204 B( 15-O , 16-H ) :   0.8261 B( 15-O , 17-H ) :   0.7994 
B( 18-O , 19-H ) :   0.8390 B( 18-O , 20-H ) :   0.8075 B( 21-O , 22-H ) :   0.8306 
B( 21-O , 23-H ) :   0.8489 B( 24-O , 25-H ) :   0.8287 B( 24-O , 26-H ) :   0.8342 
B( 27-O , 28-H ) :   0.8657 B( 27-O , 29-H ) :   0.8418 B( 30-O , 31-H ) :   0.8336 
B( 30-O , 32-H ) :   0.8298 

-------
TIMINGS
-------

Total SCF time: 0 days 0 hours 1 min 17 sec 

Total time                  ....      77.657 sec
Sum of individual times     ....      77.206 sec  ( 99.4%)

Fock matrix formation       ....      75.990 sec  ( 97.9%)
Diagonalization             ....       0.360 sec  (  0.5%)
Density matrix formation    ....       0.028 sec  (  0.0%)
Population analysis         ....       0.055 sec  (  0.1%)
Initial guess               ....       0.327 sec  (  0.4%)
Orbital Transformation      ....       0.000 sec  (  0.0%)
Orbital Orthonormalization  ....       0.000 sec  (  0.0%)
DIIS solution               ....       0.140 sec  (  0.2%)
SOSCF solution              ....       0.144 sec  (  0.2%)


           ************************************************************
           *        Program running with 6 parallel MPI-processes     *
           *              working on a common directory               *
           ************************************************************

------------------------------------------------------------------------------
                                ORCA  MP2 
------------------------------------------------------------------------------

Freezing NCore=22 chemical core electrons
MP2 will be done in the AO integral direct mode
The Q1-step will be done using symmetric double matrices
Dimension of the basis                    ...  473
Memory devoted for MP2                    ... 8000 MB   
Memory needed for all in one shot         ... 3237 MB
Number of MOs that can be treated together...   18      
MP2 density construction                  ... relaxed
The MP2 gradient is requested => amplitudes will be stored on disk
Total number of MOs              ...   44
Number of MOs treated per batch  ...    8 
Number of batches necessary      ...    1 
OPERATORS   0/  0 PASS   0
-----------------------------------------------
 MP2 CORRELATION ENERGY   :     -2.866921759 Eh
-----------------------------------------------


---------------------
MP2 DENSITY FORMATION
---------------------

Completing the external part of the density      ... done
Storing the unrelaxed density                    ... done

Calculating G(D)                                 ... done
Completing the Lagrangian                        ... done
Solving the Z-vector equations                   ... 

------------------------------------------------------------------------------
                           ORCA CP-SCF CALCULATION
------------------------------------------------------------------------------

Input orbitals are from        ... 12h2o.su.etal.mol0,1,2,4,5,6,7,8,9,10,11-orca.engrad-mp2.def2tzvp.frozencore.gbw
Input Perturbation             ... 12h2o.su.etal.mol0,1,2,4,5,6,7,8,9,10,11-orca.engrad-mp2.def2tzvp.frozencore.pin.tmp
Wavefunction output            ... 12h2o.su.etal.mol0,1,2,4,5,6,7,8,9,10,11-orca.engrad-mp2.def2tzvp.frozencore.pout.tmp
Perturbation mode              ... Real perturbation (singlet)
Solver                         ... POPLE
Max. number of iterations      ... 128
Convergence tolerance          ... 1.000e-08
Integral handling              ... Direct
Number of perturbations        ... 1
Number of operators            ... 1
Orbital ranges used for CP-SCF:
 Operator 0:  Orbitals   0... 54  to  55...472
Variables per vector in CP-SCF ... 22990
Number of vectors sought       ... 1
     CP-SCF ITERATION   0: 
     CP-SCF ITERATION   1:      0.001439301095
     CP-SCF ITERATION   2:      0.000045724981
     CP-SCF ITERATION   3:      0.000001721561
     CP-SCF ITERATION   4:      0.000000217017
     CP-SCF ITERATION   5:      0.000000015388
     CP-SCF ITERATION   6:      0.000000001210
                                                 ... done
Finalizing the relaxed density                   ... done
Transforming P to the AO basis                   ... done
Storing the relaxed density                      ... done

------------------------------------
ENERGY WEIGHTED DENSITY FINALIZATION
------------------------------------

Gathering the parts of the W-matrix              ...                                                      done
Forming the Z-density                            ... done
Transforming Z to the AO basis                   ... done
Calculating G(Z)                                 ... done
Finalizing the W-matrix                          ...                                                      done
Transforming W to the AO basis and storing       ... done

                *********************************************
                * UNRELAXED MP2 DENSITY POPULATION ANALYSIS *
                *********************************************

------------------------------------------------------------------------------
                           ORCA POPULATION ANALYSIS
------------------------------------------------------------------------------
Input electron density              ... 12h2o.su.etal.mol0,1,2,4,5,6,7,8,9,10,11-orca.engrad-mp2.def2tzvp.frozencore.pmp2ur
BaseName (.gbw .S,...)              ... 12h2o.su.etal.mol0,1,2,4,5,6,7,8,9,10,11-orca.engrad-mp2.def2tzvp.frozencore

                    ********************************
                    * MULLIKEN POPULATION ANALYSIS *
                    ********************************

-----------------------
MULLIKEN ATOMIC CHARGES
-----------------------
   0 O :   -0.793611
[...]
      px      :     1.770023
      py      :     1.395512
      dz2     :     0.010293  d :     0.056948
      dxz     :     0.011284
      dyz     :     0.012148
      dx2y2   :     0.008864
      dxy     :     0.014359
      f0      :     0.000468  f :     0.004791
      f+1     :     0.000646
      f-1     :     0.000851
      f+2     :     0.000412
      f-2     :     0.001031
      f+3     :     0.000905
      f-3     :     0.000477
  7 H s       :     0.678295  s :     0.678295
      pz      :     0.066906  p :     0.168184
      px      :     0.054834
      py      :     0.046444
  8 H s       :     0.656022  s :     0.656022
      pz      :     0.034626  p :     0.200467
      px      :     0.049150
      py      :     0.116691
  9 O s       :     3.445374  s :     3.445374
      pz      :     1.543909  p :     4.796745
      px      :     1.763226
      py      :     1.489609
      dz2     :     0.019234  d :     0.057050
      dxz     :     0.006957
      dyz     :     0.009174
      dx2y2   :     0.010430
      dxy     :     0.011254
      f0      :     0.000776  f :     0.004733
      f+1     :     0.000584
      f-1     :     0.001141
      f+2     :     0.000413
      f-2     :     0.000421
      f+3     :     0.000946
      f-3     :     0.000451
 10 H s       :     0.672865  s :     0.672865
      pz      :     0.093549  p :     0.176623
      px      :     0.044338
      py      :     0.038736
 11 H s       :     0.663000  s :     0.663000
      pz      :     0.031215  p :     0.194662
      px      :     0.053930
      py      :     0.109517
 12 O s       :     3.444523  s :     3.444523
      pz      :     1.552314  p :     4.799482
      px      :     1.763865
      py      :     1.483304
      dz2     :     0.018849  d :     0.056664
      dxz     :     0.006905
      dyz     :     0.008906
      dx2y2   :     0.010539
      dxy     :     0.011465
      f0      :     0.000759  f :     0.004723
      f+1     :     0.000584
      f-1     :     0.001131
      f+2     :     0.000412
      f-2     :     0.000420
      f+3     :     0.000963
      f-3     :     0.000453
 13 H s       :     0.667043  s :     0.667043
      pz      :     0.031892  p :     0.192197
      px      :     0.054105
      py      :     0.106200
 14 H s       :     0.667684  s :     0.667684
      pz      :     0.096544  p :     0.178361
      px      :     0.043640
      py      :     0.038177
 15 O s       :     3.444669  s :     3.444669
      pz      :     1.549876  p :     4.797513
      px      :     1.484277
      py      :     1.763360
      dz2     :     0.019001  d :     0.056878
      dxz     :     0.008980
      dyz     :     0.006936
      dx2y2   :     0.010529
      dxy     :     0.011432
      f0      :     0.000765  f :     0.004729
      f+1     :     0.001135
      f-1     :     0.000583
      f+2     :     0.000413
      f-2     :     0.000420
      f+3     :     0.000453
      f-3     :     0.000961
 16 H s       :     0.669461  s :     0.669461
      pz      :     0.095724  p :     0.177994
      px      :     0.038353
      py      :     0.043917
 17 H s       :     0.666264  s :     0.666264
      pz      :     0.031756  p :     0.192584
      px      :     0.106796
      py      :     0.054032
 18 O s       :     3.450975  s :     3.450975
      pz      :     1.567287  p :     4.807536
      px      :     1.485789
      py      :     1.754459
      dz2     :     0.018932  d :     0.056766
      dxz     :     0.009128
      dyz     :     0.006869
      dx2y2   :     0.010598
      dxy     :     0.011239
      f0      :     0.000750  f :     0.004715
      f+1     :     0.001144
      f-1     :     0.000585
      f+2     :     0.000412
      f-2     :     0.000420
      f+3     :     0.000452
      f-3     :     0.000952
 19 H s       :     0.674525  s :     0.674525
      pz      :     0.094762  p :     0.177623
      px      :     0.038792
      py      :     0.044069
 20 H s       :     0.666854  s :     0.666854
      pz      :     0.031704  p :     0.191610
      px      :     0.106141
      py      :     0.053765
 21 O s       :     3.442916  s :     3.442916
      pz      :     1.537332  p :     4.780733
      px      :     1.539581
      py      :     1.703820
      dz2     :     0.020244  d :     0.058130
      dxz     :     0.007132
      dyz     :     0.007339
      dx2y2   :     0.009252
      dxy     :     0.014163
      f0      :     0.000840  f :     0.004852
      f+1     :     0.000975
      f-1     :     0.000723
      f+2     :     0.000391
      f-2     :     0.000425
      f+3     :     0.000409
      f-3     :     0.001089
 22 H s       :     0.667303  s :     0.667303
      pz      :     0.095433  p :     0.176219
      px      :     0.037989
      py      :     0.042797
 23 H s       :     0.674591  s :     0.674591
      pz      :     0.032662  p :     0.177597
      px      :     0.085894
      py      :     0.059041
 24 O s       :     3.441485  s :     3.441485
      pz      :     1.538306  p :     4.784333
      px      :     1.701184
      py      :     1.544842
      dz2     :     0.020072  d :     0.057510
      dxz     :     0.007272
      dyz     :     0.007165
      dx2y2   :     0.009153
      dxy     :     0.013849
      f0      :     0.000839  f :     0.004817
      f+1     :     0.000719
      f-1     :     0.000970
      f+2     :     0.000390
      f-2     :     0.000426
      f+3     :     0.001066
      f-3     :     0.000409
 25 H s       :     0.667211  s :     0.667211
      pz      :     0.095648  p :     0.176369
      px      :     0.042597
      py      :     0.038123
 26 H s       :     0.671730  s :     0.671730
      pz      :     0.032414  p :     0.179081
      px      :     0.059043
      py      :     0.087624
 27 O s       :     3.458169  s :     3.458169
      pz      :     1.671044  p :     4.767924
      px      :     1.729514
      py      :     1.367367
      dz2     :     0.010941  d :     0.058117
      dxz     :     0.010992
      dyz     :     0.011943
      dx2y2   :     0.009483
      dxy     :     0.014758
      f0      :     0.000476  f :     0.004817
      f+1     :     0.000656
      f-1     :     0.000855
      f+2     :     0.000409
      f-2     :     0.001007
      f+3     :     0.000937
      f-3     :     0.000477
 28 H s       :     0.663570  s :     0.663570
      pz      :     0.067841  p :     0.166772
      px      :     0.054155
      py      :     0.044776
 29 H s       :     0.648887  s :     0.648887
      pz      :     0.034483  p :     0.152321
      px      :     0.044901
      py      :     0.072938
 30 O s       :     3.441465  s :     3.441465
      pz      :     1.536025  p :     4.783808
      px      :     1.701506
      py      :     1.546277
      dz2     :     0.020150  d :     0.057518
      dxz     :     0.007283
      dyz     :     0.007203
      dx2y2   :     0.009120
      dxy     :     0.013762
      f0      :     0.000843  f :     0.004818
      f+1     :     0.000718
      f-1     :     0.000971
      f+2     :     0.000390
      f-2     :     0.000426
      f+3     :     0.001061
      f-3     :     0.000409
 31 H s       :     0.668391  s :     0.668391
      pz      :     0.094907  p :     0.175885
      px      :     0.042743
      py      :     0.038235
 32 H s       :     0.670434  s :     0.670434
      pz      :     0.032229  p :     0.179343
      px      :     0.059023
      py      :     0.088091


                      *****************************
                      * MAYER POPULATION ANALYSIS *
                      *****************************

  NA   - Mulliken gross atomic population
  ZA   - Total nuclear charge
  QA   - Mulliken gross atomic charge
  VA   - Mayer's total valence
  BVA  - Mayer's bonded valence
  FA   - Mayer's free valence

  ATOM       NA         ZA         QA         VA         BVA        FA
  0 O      8.7612     8.0000    -0.7612     2.0283     1.6369     0.3915
  1 H      0.6488     1.0000     0.3512     0.8984     0.8521     0.0463
  2 H      0.6136     1.0000     0.3864     0.9059     0.8617     0.0442
  3 O      8.7608     8.0000    -0.7608     2.0288     1.6374     0.3914
  4 H      0.6503     1.0000     0.3497     0.8993     0.8529     0.0464
  5 H      0.6148     1.0000     0.3852     0.9084     0.8641     0.0443
  6 O      8.7452     8.0000    -0.7452     2.0228     1.6333     0.3895
  7 H      0.6636     1.0000     0.3364     0.9079     0.8606     0.0473
  8 H      0.6267     1.0000     0.3733     0.9150     0.8700     0.0450
  9 O      8.7588     8.0000    -0.7588     2.0328     1.6412     0.3917
 10 H      0.6216     1.0000     0.3784     0.8964     0.8528     0.0436
 11 H      0.6351     1.0000     0.3649     0.9361     0.8906     0.0455
 12 O      8.7649     8.0000    -0.7649     2.0362     1.6444     0.3918
 13 H      0.6378     1.0000     0.3622     0.9301     0.8839     0.0462
 14 H      0.6145     1.0000     0.3855     0.9025     0.8597     0.0427
 15 O      8.7602     8.0000    -0.7602     2.0372     1.6455     0.3917
 16 H      0.6159     1.0000     0.3841     0.9003     0.8573     0.0430
 17 H      0.6371     1.0000     0.3629     0.9303     0.8842     0.0461
 18 O      8.7407     8.0000    -0.7407     2.0628     1.6729     0.3899
 19 H      0.6260     1.0000     0.3740     0.9038     0.8597     0.0441
 20 H      0.6288     1.0000     0.3712     0.9206     0.8753     0.0452
 21 O      8.7182     8.0000    -0.7182     2.0878     1.7031     0.3847
 22 H      0.6110     1.0000     0.3890     0.8866     0.8437     0.0429
 23 H      0.6366     1.0000     0.3634     0.9102     0.8653     0.0448
 24 O      8.7268     8.0000    -0.7268     2.0825     1.6967     0.3857
 25 H      0.6103     1.0000     0.3897     0.8866     0.8437     0.0428
 26 H      0.6309     1.0000     0.3691     0.9142     0.8698     0.0444
 27 O      8.7284     8.0000    -0.7284     2.0973     1.7106     0.3867
 28 H      0.6327     1.0000     0.3673     0.8851     0.8407     0.0444
 29 H      0.6112     1.0000     0.3888     0.8700     0.8245     0.0455
 30 O      8.7261     8.0000    -0.7261     2.0837     1.6980     0.3857
 31 H      0.6126     1.0000     0.3874     0.8862     0.8431     0.0431
 32 H      0.6289     1.0000     0.3711     0.9145     0.8704     0.0441

  Mayer bond orders larger than 0.100000
B(  0-O ,  1-H ) :   0.8403 B(  0-O ,  2-H ) :   0.7226 B(  2-H , 30-O ) :   0.1271 
B(  3-O ,  4-H ) :   0.8408 B(  3-O ,  5-H ) :   0.7229 B(  5-H , 24-O ) :   0.1264 
B(  6-O ,  7-H ) :   0.8510 B(  6-O ,  8-H ) :   0.7481 B(  8-H , 21-O ) :   0.1134 
B(  9-O , 10-H ) :   0.8076 B(  9-O , 11-H ) :   0.7407 B(  9-O , 17-H ) :   0.1055 
B( 11-H , 18-O ) :   0.1337 B( 12-O , 13-H ) :   0.7621 B( 12-O , 14-H ) :   0.7883 
B( 15-O , 16-H ) :   0.7939 B( 15-O , 17-H ) :   0.7587 B( 18-O , 19-H ) :   0.8055 
B( 18-O , 20-H ) :   0.7698 B( 21-O , 22-H ) :   0.7981 B( 21-O , 23-H ) :   0.8135 
B( 24-O , 25-H ) :   0.7962 B( 24-O , 26-H ) :   0.7992 B( 27-O , 28-H ) :   0.8306 
B( 27-O , 29-H ) :   0.8062 B( 30-O , 31-H ) :   0.8009 B( 30-O , 32-H ) :   0.7950 



----------------------------------
MP2 DERIVATIVE INTEGRAL GENERATION
----------------------------------


Input Wavefunction Amplitudes       ... 12h2o.su.etal.mol0,1,2,4,5,6,7,8,9,10,11-orca.engrad-mp2.def2tzvp.frozencore.mp2tsaa.tmp
Input Correlated Electron Density   ... 12h2o.su.etal.mol0,1,2,4,5,6,7,8,9,10,11-orca.engrad-mp2.def2tzvp.frozencore.pmp2re
Input Energy Weighted Density       ... 12h2o.su.etal.mol0,1,2,4,5,6,7,8,9,10,11-orca.engrad-mp2.def2tzvp.frozencore.wmp2.tmp
Input SCF Electron Density          ... 12h2o.su.etal.mol0,1,2,4,5,6,7,8,9,10,11-orca.engrad-mp2.def2tzvp.frozencore.scfp

One-Electron Terms    ...
                        ... One-Electron Terms done
Prescreening matrices              ... done

Batch handling in the gradient evaluation:
Memory available                      ... 8000.0 MB
Memory per occupied orbital in Q2     ...   75.1 MB
Memory per occupied orbital in Q3     ...    0.2 MB
Total memory requirement per |i>      ...   75.3 MB
Max. Number of orbitals possible      ...    106
Number of orbitals treated per batch  ...     44
Number of batches to be done          ...      1
Batch   0: i=   11 ...    54

---------------------------------------
MP2 TOTAL ENERGY:     -839.614717901 Eh
---------------------------------------

The final MP2 gradient
  0:   0.00059027   0.00117682   0.00113786
  1:  -0.00025595  -0.00073384  -0.00118114
  2:  -0.00080327  -0.00083380  -0.00154448
  3:  -0.00077629  -0.00223815  -0.00067297
  4:   0.00008010   0.00083259  -0.00113164
  5:   0.00107788   0.00115091  -0.00103909
  6:  -0.00224349  -0.00356051  -0.00225728
  7:  -0.00038054  -0.00091070   0.00043422
  8:   0.00230907   0.00825590   0.00182529
  9:  -0.00220984  -0.00359796   0.00223096
 10:   0.00025005   0.00012572  -0.00320341
 11:   0.00308402   0.00638611   0.00036922
 12:  -0.00100462  -0.00130157  -0.00345216
 13:  -0.00065071   0.00142080   0.00111567
 14:   0.00110838  -0.00008003   0.00388998
 15:   0.00030077  -0.00024888   0.00164076
 16:  -0.00001975  -0.00008961  -0.00169258
 17:   0.00007194  -0.00062855  -0.00142656
 18:  -0.00094515  -0.00540563  -0.00044792
 19:  -0.00166799   0.00002740   0.00028506
 20:   0.00251656   0.00181872   0.00129312
 21:   0.00257839  -0.00313153   0.00026222
 22:  -0.00091286  -0.00054179  -0.00160402
 23:  -0.00454955   0.00002739  -0.00054315
 24:   0.00165775  -0.00119457  -0.00017665
 25:  -0.00086514   0.00082835   0.00206043
 26:  -0.00172468   0.00004046   0.00015861
 27:   0.00724356   0.02480211   0.00104273
 28:   0.00240554  -0.00004361   0.00281840
 29:  -0.00737174  -0.02317825  -0.00185054
 30:  -0.00213430   0.00016407   0.00090908
 31:   0.00113134  -0.00052487   0.00063141
 32:   0.00211028   0.00118650   0.00011858

-----------------------------------
NORM OF THE MP2 GRADIENT:  0.040458
-----------------------------------

-------------------------   --------------------
FINAL SINGLE POINT ENERGY      -839.614717900916
-------------------------   --------------------


                            ***************************************
                            *     ORCA property calculations      *
                            ***************************************

                                    ---------------------
                                    Active property flags
                                    ---------------------
   (+) Dipole Moment


------------------------------------------------------------------------------
                       ORCA ELECTRIC PROPERTIES CALCULATION
------------------------------------------------------------------------------

Dipole Moment Calculation                       ... on
Quadrupole Moment Calculation                   ... off
Polarizability Calculation                      ... off
GBWName                                         ... 12h2o.su.etal.mol0,1,2,4,5,6,7,8,9,10,11-orca.engrad-mp2.def2tzvp.frozencore.gbw
Electron density file                           ... 12h2o.su.etal.mol0,1,2,4,5,6,7,8,9,10,11-orca.engrad-mp2.def2tzvp.frozencore.scfp
The origin for moment calculation is the CENTER OF MASS  = ( 0.295750,  0.133922  0.489638)

-------------
DIPOLE MOMENT
-------------
                                X             Y             Z
Electronic contribution:     -0.02134       0.23177      -0.08995
Nuclear contribution   :     -0.45497       0.56566      -0.68611
                        -----------------------------------------
Total Dipole Moment    :     -0.47631       0.79742      -0.77606
                        -----------------------------------------
Magnitude (a.u.)       :      1.21038
Magnitude (Debye)      :      3.07654



--------------------
Rotational spectrum 
--------------------
 
Rotational constants in cm-1:     0.022519     0.012489     0.011736 
Rotational constants in MHz :   675.087998   374.408393   351.840236 

 Dipole components along the rotational axes: 
x,y,z [a.u.] :    -0.750554     0.921680     0.228459 
x,y,z [Debye]:    -1.907756     2.342723     0.580697 

 

                         *** MP2 UNRELAXED DENSITY ***

------------------------------------------------------------------------------
                       ORCA ELECTRIC PROPERTIES CALCULATION
------------------------------------------------------------------------------

Dipole Moment Calculation                       ... on
Quadrupole Moment Calculation                   ... off
Polarizability Calculation                      ... off
GBWName                                         ... 12h2o.su.etal.mol0,1,2,4,5,6,7,8,9,10,11-orca.engrad-mp2.def2tzvp.frozencore.gbw
Electron density file                           ... 12h2o.su.etal.mol0,1,2,4,5,6,7,8,9,10,11-orca.engrad-mp2.def2tzvp.frozencore.pmp2ur
The origin for moment calculation is the CENTER OF MASS  = ( 0.295750,  0.133922  0.489638)

-------------
DIPOLE MOMENT
-------------
                                X             Y             Z
Electronic contribution:     -0.01799       0.22926      -0.08542
Nuclear contribution   :     -0.45497       0.56566      -0.68611
                        -----------------------------------------
Total Dipole Moment    :     -0.47295       0.79491      -0.77153
                        -----------------------------------------
Magnitude (a.u.)       :      1.20450
Magnitude (Debye)      :      3.06160



--------------------
Rotational spectrum 
--------------------
 
Rotational constants in cm-1:     0.022519     0.012489     0.011736 
Rotational constants in MHz :   675.087998   374.408393   351.840236 

 Dipole components along the rotational axes: 
x,y,z [a.u.] :    -0.746391     0.918023     0.225742 
x,y,z [Debye]:    -1.897174     2.333428     0.573791 

 

                           *** MP2 RELAXED DENSITY ***

------------------------------------------------------------------------------
                       ORCA ELECTRIC PROPERTIES CALCULATION
------------------------------------------------------------------------------

Dipole Moment Calculation                       ... on
Quadrupole Moment Calculation                   ... off
Polarizability Calculation                      ... off
GBWName                                         ... 12h2o.su.etal.mol0,1,2,4,5,6,7,8,9,10,11-orca.engrad-mp2.def2tzvp.frozencore.gbw
Electron density file                           ... 12h2o.su.etal.mol0,1,2,4,5,6,7,8,9,10,11-orca.engrad-mp2.def2tzvp.frozencore.pmp2re
The origin for moment calculation is the CENTER OF MASS  = ( 0.295750,  0.133922  0.489638)

-------------
DIPOLE MOMENT
-------------
                                X             Y             Z
Electronic contribution:     -0.02459       0.23155      -0.08775
Nuclear contribution   :     -0.45497       0.56566      -0.68611
                        -----------------------------------------
Total Dipole Moment    :     -0.47956       0.79720      -0.77386
                        -----------------------------------------
Magnitude (a.u.)       :      1.21011
Magnitude (Debye)      :      3.07586



--------------------
Rotational spectrum 
--------------------
 
Rotational constants in cm-1:     0.022519     0.012489     0.011736 
Rotational constants in MHz :   675.087998   374.408393   351.840236 

 Dipole components along the rotational axes: 
x,y,z [a.u.] :    -0.747904     0.922812     0.231138 
x,y,z [Debye]:    -1.901020     2.345601     0.587507 

 

Timings for individual modules:

Sum of individual times         ...      688.558 sec (=  11.476 min)
GTO integral calculation        ...        1.188 sec (=   0.020 min)   0.2 %
SCF iterations                  ...       78.330 sec (=   1.306 min)  11.4 %
MP2 module                      ...      609.041 sec (=  10.151 min)  88.5 %
                             ****ORCA TERMINATED NORMALLY****
TOTAL RUN TIME: 0 days 0 hours 11 minutes 29 seconds 749 msec
