      -----------------------------------------------------------      
     |                   =====================                   |     
     |                           x T B                           |     
     |                   =====================                   |     
     |                         S. Grimme                         |     
     |          Mulliken Center for Theoretical Chemistry        |     
     |                    University of Bonn                     |     
      -----------------------------------------------------------      

   * xtb version 6.4.1 (afa7bdf) compiled by 'ehlert@majestix' on 2021-06-10

   xtb is free software: you can redistribute it and/or modify it under
   the terms of the GNU Lesser General Public License as published by
   the Free Software Foundation, either version 3 of the License, or
   (at your option) any later version.
   
   xtb is distributed in the hope that it will be useful,
   but WITHOUT ANY WARRANTY; without even the implied warranty of
   MERCHANTABILITY or FITNESS FOR A PARTICULAR PURPOSE.  See the
   GNU Lesser General Public License for more details.
   
   Cite this work as:
   * C. Bannwarth, E. Caldeweyher, S. Ehlert, A. Hansen, P. Pracht,
     J. Seibert, S. Spicher, S. Grimme, WIREs Comput. Mol. Sci., 2020, 11,
     e01493. DOI: 10.1002/wcms.1493
   
   for GFN2-xTB:
   * C. Bannwarth, S. Ehlert and S. Grimme., J. Chem. Theory Comput., 2019,
     15, 1652-1671. DOI: 10.1021/acs.jctc.8b01176
   for GFN1-xTB:
   * S. Grimme, C. Bannwarth, P. Shushkov, J. Chem. Theory Comput., 2017,
     13, 1989-2009. DOI: 10.1021/acs.jctc.7b00118
   for GFN0-xTB:
   * P. Pracht, E. Caldeweyher, S. Ehlert, S. Grimme, ChemRxiv, 2019, preprint.
     DOI: 10.26434/chemrxiv.8326202.v1
   for GFN-FF:
   * S. Spicher and S. Grimme, Angew. Chem. Int. Ed., 2020, 59, 15665-15673.
     DOI: 10.1002/anie.202004239
   
   for DFT-D4:
   * E. Caldeweyher, C. Bannwarth and S. Grimme, J. Chem. Phys., 2017,
     147, 034112. DOI: 10.1063/1.4993215
   * E. Caldeweyher, S. Ehlert, A. Hansen, H. Neugebauer, S. Spicher,
     C. Bannwarth and S. Grimme, J. Chem. Phys., 2019, 150, 154122.
     DOI: 10.1063/1.5090222
   * E. Caldeweyher, J.-M. Mewes, S. Ehlert and S. Grimme, Phys. Chem. Chem. Phys.
     2020, 22, 8499-8512. DOI: 10.1039/D0CP00502A
   
   for sTDA-xTB:
   * S. Grimme and C. Bannwarth, J. Chem. Phys., 2016, 145, 054103.
     DOI: 10.1063/1.4959605
   
   in the mass-spec context:
   * V. Asgeirsson, C. Bauer and S. Grimme, Chem. Sci., 2017, 8, 4879.
     DOI: 10.1039/c7sc00601b
   * J. Koopman and S. Grimme, ACS Omega 2019, 4, 12, 15120-15133.
     DOI: 10.1021/acsomega.9b02011
   
   for metadynamics refer to:
   * S. Grimme, J. Chem. Theory Comput., 2019, 155, 2847-2862
     DOI: 10.1021/acs.jctc.9b00143
   
   for SPH calculations refer to:
   * S. Spicher and S. Grimme, J. Chem. Theory Comput., 2021, 17, 1701-1714
     DOI: 10.1021/acs.jctc.0c01306
   
   with help from (in alphabetical order)
   P. Atkinson, C. Bannwarth, F. Bohle, G. Brandenburg, E. Caldeweyher
   M. Checinski, S. Dohm, S. Ehlert, S. Ehrlich, I. Gerasimov, J. Koopman
   C. Lavigne, S. Lehtola, F. März, M. Müller, F. Musil, H. Neugebauer
   J. Pisarek, C. Plett, P. Pracht, J. Seibert, P. Shushkov, S. Spicher
   M. Stahn, M. Steiner, T. Strunk, J. Stückrath, T. Rose, and J. Unsleber
   
 * started run on 2022/02/14 at 08:29:39.659     

           -------------------------------------------------
          |                Calculation Setup                |
           -------------------------------------------------

          program call               : /ihome/jkeith/amm503/codes/xtb-6.4.1/bin/xtb ./12h2o.115meoh.pm.xyz --opt lax --gfn 2 --charge 0 --cycles 5000
          hostname                   : smp-n108
          coordinate file            : ./12h2o.115meoh.pm.xyz
          omp threads                :                     8
          number of atoms            :                   726
          number of electrons        :                  1706
          charge                     :                     0
          spin                       :                   0.0
          first test random number   :      0.93173439577102

   ID    Z sym.   atoms
    1    8 O      1, 4, 7, 10, 13, 16, 19, 22, 25, 28, 31, 34, 37, 43, 49,
                  55, 61, 67, 73, 79, 85, 91, 97, 103, 109, 115, 121, 127,
                  133, 139, 145, 151, 157, 163, 169, 175, 181, 187, 193, 199,
                  205, 211, 217, 223, 229, 235, 241, 247, 253, 259, 265, 271,
                  277, 283, 289, 295, 301, 307, 313, 319, 325, 331, 337, 343,
                  349, 355, 361, 367, 373, 379, 385, 391, 397, 403, 409, 415,
                  421, 427, 433, 439, 445, 451, 457, 463, 469, 475, 481, 487,
                  493, 499, 505, 511, 517, 523, 529, 535, 541, 547, 553, 559,
                  565, 571, 577, 583, 589, 595, 601, 607, 613, 619, 625, 631,
                  637, 643, 649, 655, 661, 667, 673, 679, 685, 691, 697, 703,
                  709, 715, 721
    2    1 H      2, 3, 5, 6, 8, 9, 11, 12, 14, 15, 17, 18, 20, 21, 23, 24,
                  26, 27, 29, 30, 32, 33, 35, 36, 38, 40-42, 44, 46-48, 50,
                  52-54, 56, 58-60, 62, 64-66, 68, 70-72, 74, 76-78, 80,
                  82-84, 86, 88-90, 92, 94-96, 98, 100-102, 104, 106-108,
                  110, 112-114, 116, 118-120, 122, 124-126, 128, 130-132,
                  134, 136-138, 140, 142-144, 146, 148-150, 152, 154-156,
                  158, 160-162, 164, 166-168, 170, 172-174, 176, 178-180,
                  182, 184-186, 188, 190-192, 194, 196-198, 200, 202-204,
                  206, 208-210, 212, 214-216, 218, 220-222, 224, 226-228,
                  230, 232-234, 236, 238-240, 242, 244-246, 248, 250-252,
                  254, 256-258, 260, 262-264, 266, 268-270, 272, 274-276,
                  278, 280-282, 284, 286-288, 290, 292-294, 296, 298-300,
                  302, 304-306, 308, 310-312, 314, 316-318, 320, 322-324,
                  326, 328-330, 332, 334-336, 338, 340-342, 344, 346-348,
                  350, 352-354, 356, 358-360, 362, 364-366, 368, 370-372,
                  374, 376-378, 380, 382-384, 386, 388-390, 392, 394-396,
                  398, 400-402, 404, 406-408, 410, 412-414, 416, 418-420,
                  422, 424-426, 428, 430-432, 434, 436-438, 440, 442-444,
                  446, 448-450, 452, 454-456, 458, 460-462, 464, 466-468,
                  470, 472-474, 476, 478-480, 482, 484-486, 488, 490-492,
                  494, 496-498, 500, 502-504, 506, 508-510, 512, 514-516,
                  518, 520-522, 524, 526-528, 530, 532-534, 536, 538-540,
                  542, 544-546, 548, 550-552, 554, 556-558, 560, 562-564,
                  566, 568-570, 572, 574-576, 578, 580-582, 584, 586-588,
                  590, 592-594, 596, 598-600, 602, 604-606, 608, 610-612,
                  614, 616-618, 620, 622-624, 626, 628-630, 632, 634-636,
                  638, 640-642, 644, 646-648, 650, 652-654, 656, 658-660,
                  662, 664-666, 668, 670-672, 674, 676-678, 680, 682-684,
                  686, 688-690, 692, 694-696, 698, 700-702, 704, 706-708,
                  710, 712-714, 716, 718-720, 722, 724-726
    3    6 C      39, 45, 51, 57, 63, 69, 75, 81, 87, 93, 99, 105, 111, 117,
                  123, 129, 135, 141, 147, 153, 159, 165, 171, 177, 183, 189,
                  195, 201, 207, 213, 219, 225, 231, 237, 243, 249, 255, 261,
                  267, 273, 279, 285, 291, 297, 303, 309, 315, 321, 327, 333,
                  339, 345, 351, 357, 363, 369, 375, 381, 387, 393, 399, 405,
                  411, 417, 423, 429, 435, 441, 447, 453, 459, 465, 471, 477,
                  483, 489, 495, 501, 507, 513, 519, 525, 531, 537, 543, 549,
                  555, 561, 567, 573, 579, 585, 591, 597, 603, 609, 615, 621,
                  627, 633, 639, 645, 651, 657, 663, 669, 675, 681, 687, 693,
                  699, 705, 711, 717, 723

molecular fragmentation (1/2 indicates fragments):
111222222222222222222222222222222222222222222222222222222222222222222222
222222222222222222222222222222222222222222222222222222222222222222222222
222222222222222222222222222222222222222222222222222222222222222222222222
222222222222222222222222222222222222222222222222222222222222222222222222
222222222222222222222222222222222222222222222222222222222222222222222222
222222222222222222222222222222222222222222222222222222222222222222222222
222222222222222222222222222222222222222222222222222222222222222222222222
222222222222222222222222222222222222222222222222222222222222222222222222
222222222222222222222222222222222222222222222222222222222222222222222222
222222222222222222222222222222222222222222222222222222222222222222222222
222222
# atoms in fragment 1/2:     3   723
 fragment masses (1/2) :       18.02     3882.99
CMA distance (Bohr)    :   7.870
constraining FC (au)   :  0.0500

           -------------------------------------------------
          |                 G F N 2 - x T B                 |
           -------------------------------------------------

        Reference                      10.1021/acs.jctc.8b01176
      * Hamiltonian:
        H0-scaling (s, p, d)           1.850000    2.230000    2.230000
        zeta-weighting                 0.500000
      * Dispersion:
        s8                             2.700000
        a1                             0.520000
        a2                             5.000000
        s9                             5.000000
      * Repulsion:
        kExp                           1.500000    1.000000
        rExp                           1.000000
      * Coulomb:
        alpha                          2.000000
        third order                    shell-resolved
        anisotropic                    true
        a3                             3.000000
        a5                             4.000000
        cn-shift                       1.200000
        cn-exp                         4.000000
        max-rad                        5.000000


          ...................................................
          :                      SETUP                      :
          :.................................................:
          :  # basis functions                1452          :
          :  # atomic orbitals                1452          :
          :  # shells                          968          :
          :  # electrons                      1706          :
          :  max. iterations                   250          :
          :  Hamiltonian                  GFN2-xTB          :
          :  restarted?                      false          :
          :  GBSA solvation                  false          :
          :  PC potential                    false          :
          :  electronic temp.          300.0000000     K    :
          :  accuracy                    1.0000000          :
          :  -> integral cutoff          0.2500000E+02      :
          :  -> integral neglect         0.1000000E-07      :
          :  -> SCF convergence          0.1000000E-05 Eh   :
          :  -> wf. convergence          0.1000000E-03 e    :
          :  Broyden damping             0.4000000          :
          ...................................................

 iter      E             dE          RMSdq      gap      omega  full diag
   1  -1014.6563628 -0.101466E+04  0.419E+00   10.79       0.0  T
   2  -1015.7711141 -0.111475E+01  0.224E+00    9.68       1.0  T
   3  -1015.8138777 -0.427635E-01  0.669E-01    8.89       1.0  T
   4  -1015.8181520 -0.427431E-02  0.126E-01    8.70       1.0  T
   5  -1015.8187088 -0.556789E-03  0.305E-02    8.81       1.0  T
   6  -1015.8187782 -0.694397E-04  0.116E-02    8.79       1.0  T
   7  -1015.8187839 -0.564340E-05  0.326E-03    8.79       1.1  T
   8  -1015.8187842 -0.322230E-06  0.503E-04    8.79       7.4  T
   9  -1015.8187842 -0.131727E-07  0.170E-04    8.79      21.8  T

   *** convergence criteria satisfied after 9 iterations ***

         #    Occupation            Energy/Eh            Energy/eV
      -------------------------------------------------------------
         1        2.0000           -0.7274335             -19.7945
       ...           ...                  ...                  ...
       847        2.0000           -0.3692360             -10.0474
       848        2.0000           -0.3658625              -9.9556
       849        2.0000           -0.3647573              -9.9256
       850        2.0000           -0.3635039              -9.8914
       851        2.0000           -0.3621946              -9.8558
       852        2.0000           -0.3570364              -9.7155
       853        2.0000           -0.3486245              -9.4866 (HOMO)
       854                         -0.0257555              -0.7008 (LUMO)
       855                         -0.0128037              -0.3484
       856                         -0.0092972              -0.2530
       857                         -0.0075552              -0.2056
       858                         -0.0059017              -0.1606
       ...                                ...                  ...
      1452                          0.3524262               9.5900
      -------------------------------------------------------------
                  HL-Gap            0.3228689 Eh            8.7857 eV
             Fermi-level           -0.1871900 Eh           -5.0937 eV

 SCC (total)                   0 d,  0 h,  0 min,  6.002 sec
 SCC setup                      ...        0 min,  0.016 sec (  0.265%)
 Dispersion                     ...        0 min,  0.089 sec (  1.487%)
 classical contributions        ...        0 min,  0.005 sec (  0.080%)
 integral evaluation            ...        0 min,  0.227 sec (  3.781%)
 iterations                     ...        0 min,  2.453 sec ( 40.877%)
 molecular gradient             ...        0 min,  3.182 sec ( 53.027%)
 printout                       ...        0 min,  0.029 sec (  0.480%)

         :::::::::::::::::::::::::::::::::::::::::::::::::::::
         ::                     SUMMARY                     ::
         :::::::::::::::::::::::::::::::::::::::::::::::::::::
         :: total energy           -1006.939338021533 Eh    ::
         :: gradient norm              0.218631262751 Eh/a0 ::
         :: HOMO-LUMO gap              8.785710736212 eV    ::
         ::.................................................::
         :: SCC energy             -1015.818784187636 Eh    ::
         :: -> isotropic ES            3.103757397071 Eh    ::
         :: -> anisotropic ES          0.212120632062 Eh    ::
         :: -> anisotropic XC          0.055230185791 Eh    ::
         :: -> dispersion             -0.602854950620 Eh    ::
         :: repulsion energy           8.811518257380 Eh    ::
         :: add. restraining           0.000000000000 Eh    ::
         :: total charge               0.000000000000 e     ::
         :::::::::::::::::::::::::::::::::::::::::::::::::::::

      ----------------------------------------------------------- 
     |                       L-ANC optimizer                     |
      ----------------------------------------------------------- 
          low memory version by Sebastian Ehlert

          ...................................................
          :                      SETUP                      :
          :.................................................:
          :   energy convergence        0.2000000E-04 Eh    :
          :   grad. convergence         0.2500000E-02 Eh/a0 :
          :   optimization log               true           :
          :   writing optlog all                1     steps :
          :   Hessian reset                    20     steps :
          :   maximium step len.        1.0000000     a0    :
          :   LBFGS images                     20           :
          ...................................................
 * calculating model hessian...
Using Lindh-Hessian (1995)
 Shifting diagonal of input Hessian by   1.153589516412467E-002
 Lowest  eigenvalues of input Hessian
    0.010000    0.010763    0.011100    0.011153    0.011155    0.011173
    0.011179    0.011191    0.011220    0.011245    0.011249    0.011257
    0.011265    0.011271    0.011282    0.011290    0.011294    0.011311
 Highest eigenvalues
    1.477999    1.479104    1.482178    1.482236    1.483703    1.486038
 

........................................................................
.............................. CYCLE    1 ..............................
........................................................................
   1  -1016.0071194 -0.101601E+04  0.947E-02    8.91       0.0  T
   2  -1016.0075146 -0.395230E-03  0.552E-02    8.92       1.0  T
   3  -1016.0075502 -0.356542E-04  0.135E-02    8.94       1.0  T
   4  -1016.0075545 -0.425863E-05  0.320E-03    8.94       1.2  T
   5  -1016.0075551 -0.570657E-06  0.113E-03    8.94       3.3  T
   6  -1016.0075551 -0.533857E-07  0.270E-04    8.94      13.7  T
   7  -1016.0075551 -0.364071E-08  0.964E-05    8.94      38.5  T
     SCC iter.                  ...        0 min,  1.731 sec
     gradient                   ...        0 min,  3.064 sec
 * total energy  : -1007.0350354 Eh     change       -0.9569740E-01 Eh
   gradient norm :     0.1182730 Eh/a0  converged?    E=F G=F D=F
   step length   :     0.7269641 a0

........................................................................
.............................. CYCLE    2 ..............................
........................................................................
   1  -1016.0728499 -0.101607E+04  0.654E-02    9.05       0.0  T
   2  -1016.0729351 -0.852194E-04  0.394E-02    9.05       1.0  T
   3  -1016.0729498 -0.147544E-04  0.565E-03    9.07       1.0  T
   4  -1016.0729510 -0.118878E-05  0.189E-03    9.07       2.0  T
   5  -1016.0729512 -0.173309E-06  0.568E-04    9.07       6.5  T
   6  -1016.0729512 -0.138137E-07  0.131E-04    9.07      28.4  T
     SCC iter.                  ...        0 min,  1.513 sec
     gradient                   ...        0 min,  2.983 sec
 * total energy  : -1007.1008045 Eh     change       -0.6576910E-01 Eh
   gradient norm :     0.0950071 Eh/a0  converged?    E=F G=F D=F
   step length   :     3.9647191 a0

........................................................................
.............................. CYCLE    3 ..............................
........................................................................
   1  -1016.1103118 -0.101611E+04  0.607E-02    9.15       0.0  T
   2  -1016.1103661 -0.543814E-04  0.366E-02    9.15       1.0  T
   3  -1016.1103769 -0.107380E-04  0.431E-03    9.16       1.0  T
   4  -1016.1103778 -0.963993E-06  0.159E-03    9.16       2.3  T
   5  -1016.1103780 -0.129274E-06  0.497E-04    9.16       7.5  T
   6  -1016.1103780 -0.108018E-07  0.107E-04    9.16      34.6  T
     SCC iter.                  ...        0 min,  1.528 sec
     gradient                   ...        0 min,  2.902 sec
 * total energy  : -1007.1534559 Eh     change       -0.5265139E-01 Eh
   gradient norm :     0.0819721 Eh/a0  converged?    E=F G=F D=F
   step length   :     8.3292079 a0

........................................................................
.............................. CYCLE    4 ..............................
........................................................................
   1  -1016.1253213 -0.101613E+04  0.612E-02    9.24       0.0  T
   2  -1016.1253673 -0.459463E-04  0.372E-02    9.24       1.0  T
   3  -1016.1253802 -0.128673E-04  0.398E-03    9.25       1.0  T
   4  -1016.1253811 -0.943300E-06  0.166E-03    9.25       2.2  T
   5  -1016.1253812 -0.110738E-06  0.548E-04    9.25       6.8  T
   6  -1016.1253812 -0.135340E-07  0.104E-04    9.25      35.8  T
     SCC iter.                  ...        0 min,  1.640 sec
     gradient                   ...        0 min,  2.955 sec
 * total energy  : -1007.1981863 Eh     change       -0.4473042E-01 Eh
   gradient norm :     0.0913722 Eh/a0  converged?    E=F G=F D=F
   step length   :    12.5405997 a0

........................................................................
.............................. CYCLE    5 ..............................
........................................................................
   1  -1016.1419232 -0.101614E+04  0.558E-02    9.32       0.0  T
   2  -1016.1419588 -0.355736E-04  0.337E-02    9.32       1.0  T
   3  -1016.1419668 -0.804802E-05  0.348E-03    9.32       1.1  T
   4  -1016.1419677 -0.813246E-06  0.136E-03    9.32       2.7  T
   5  -1016.1419677 -0.915096E-07  0.464E-04    9.32       8.0  T
   6  -1016.1419678 -0.998352E-08  0.931E-05    9.32      39.9  T
     SCC iter.                  ...        0 min,  1.570 sec
     gradient                   ...        0 min,  2.838 sec
 * total energy  : -1007.2391374 Eh     change       -0.4095112E-01 Eh
   gradient norm :     0.0835956 Eh/a0  converged?    E=F G=F D=F
   step length   :    17.3755002 a0

........................................................................
.............................. CYCLE    6 ..............................
........................................................................
   1  -1016.1564226 -0.101616E+04  0.536E-02    9.39       0.0  T
   2  -1016.1564527 -0.301761E-04  0.324E-02    9.39       1.0  T
   3  -1016.1564599 -0.719240E-05  0.320E-03    9.40       1.2  T
   4  -1016.1564606 -0.699061E-06  0.127E-03    9.40       2.9  T
   5  -1016.1564607 -0.785221E-07  0.428E-04    9.40       8.7  T
   6  -1016.1564607 -0.905106E-08  0.871E-05    9.40      42.6  T
     SCC iter.                  ...        0 min,  1.504 sec
     gradient                   ...        0 min,  2.885 sec
 * total energy  : -1007.2757203 Eh     change       -0.3658287E-01 Eh
   gradient norm :     0.0865350 Eh/a0  converged?    E=F G=F D=F
   step length   :    13.7686774 a0

........................................................................
.............................. CYCLE    7 ..............................
........................................................................
   1  -1016.1763219 -0.101618E+04  0.516E-02    9.47       0.0  T
   2  -1016.1763504 -0.285215E-04  0.311E-02    9.47       1.0  T
   3  -1016.1763568 -0.637107E-05  0.314E-03    9.47       1.2  T
   4  -1016.1763576 -0.741359E-06  0.117E-03    9.47       3.2  T
   5  -1016.1763576 -0.700358E-07  0.419E-04    9.47       8.9  T
   6  -1016.1763576 -0.814157E-08  0.806E-05    9.47      46.0  T
     SCC iter.                  ...        0 min,  1.548 sec
     gradient                   ...        0 min,  3.083 sec
 * total energy  : -1007.3090155 Eh     change       -0.3329520E-01 Eh
   gradient norm :     0.0844177 Eh/a0  converged?    E=F G=F D=F
   step length   :    14.3780341 a0

........................................................................
.............................. CYCLE    8 ..............................
........................................................................
   1  -1016.1866564 -0.101619E+04  0.537E-02    9.54       0.0  T
   2  -1016.1866890 -0.326494E-04  0.324E-02    9.54       1.0  T
   3  -1016.1866970 -0.791999E-05  0.342E-03    9.54       1.1  T
   4  -1016.1866979 -0.903948E-06  0.120E-03    9.54       3.1  T
   5  -1016.1866979 -0.635780E-07  0.457E-04    9.54       8.1  T
   6  -1016.1866979 -0.821615E-08  0.782E-05    9.54      47.5  T
     SCC iter.                  ...        0 min,  1.585 sec
     gradient                   ...        0 min,  2.927 sec
 * total energy  : -1007.3396132 Eh     change       -0.3059766E-01 Eh
   gradient norm :     0.0866982 Eh/a0  converged?    E=F G=F D=F
   step length   :    19.4078204 a0

........................................................................
.............................. CYCLE    9 ..............................
........................................................................
   1  -1016.2022470 -0.101620E+04  0.489E-02    9.59       0.0  T
   2  -1016.2022718 -0.247754E-04  0.294E-02    9.59       1.0  T
   3  -1016.2022774 -0.566381E-05  0.295E-03    9.60       1.3  T
   4  -1016.2022781 -0.677590E-06  0.109E-03    9.60       3.4  T
   5  -1016.2022782 -0.605083E-07  0.402E-04    9.60       9.2  T
   6  -1016.2022782 -0.755381E-08  0.750E-05    9.60      49.5  T
     SCC iter.                  ...        0 min,  1.519 sec
     gradient                   ...        0 min,  3.009 sec
 * total energy  : -1007.3683644 Eh     change       -0.2875124E-01 Eh
   gradient norm :     0.0850722 Eh/a0  converged?    E=F G=F D=F
   step length   :    20.3362149 a0

........................................................................
.............................. CYCLE   10 ..............................
........................................................................
   1  -1016.2151150 -0.101622E+04  0.478E-02    9.66       0.0  T
   2  -1016.2151375 -0.225089E-04  0.287E-02    9.66       1.0  T
   3  -1016.2151430 -0.548101E-05  0.282E-03    9.66       1.3  T
   4  -1016.2151436 -0.632148E-06  0.103E-03    9.66       3.6  T
   5  -1016.2151437 -0.493928E-07  0.391E-04    9.66       9.5  T
   6  -1016.2151437 -0.701232E-08  0.728E-05    9.66      50.9  T
     SCC iter.                  ...        0 min,  1.557 sec
     gradient                   ...        0 min,  3.055 sec
 * total energy  : -1007.3949786 Eh     change       -0.2661424E-01 Eh
   gradient norm :     0.0867671 Eh/a0  converged?    E=F G=F D=F
   step length   :    17.7813461 a0

........................................................................
.............................. CYCLE   11 ..............................
........................................................................
   1  -1016.2314168 -0.101623E+04  0.473E-02    9.71       0.0  T
   2  -1016.2314405 -0.237692E-04  0.285E-02    9.71       1.0  T
   3  -1016.2314466 -0.601832E-05  0.291E-03    9.71       1.3  T
   4  -1016.2314472 -0.660790E-06  0.108E-03    9.71       3.4  T
   5  -1016.2314473 -0.540902E-07  0.414E-04    9.71       9.0  T
   6  -1016.2314473 -0.741920E-08  0.718E-05    9.71      51.7  T
     SCC iter.                  ...        0 min,  1.621 sec
     gradient                   ...        0 min,  3.029 sec
 * total energy  : -1007.4199042 Eh     change       -0.2492551E-01 Eh
   gradient norm :     0.0846607 Eh/a0  converged?    E=F G=F D=F
   step length   :    25.4051443 a0

........................................................................
.............................. CYCLE   12 ..............................
........................................................................
   1  -1016.2470578 -0.101625E+04  0.448E-02    9.72       0.0  T
   2  -1016.2470777 -0.198941E-04  0.269E-02    9.72       1.0  T
   3  -1016.2470824 -0.469537E-05  0.263E-03    9.72       1.4  T
   4  -1016.2470830 -0.544217E-06  0.999E-04    9.72       3.7  T
   5  -1016.2470830 -0.511275E-07  0.369E-04    9.72      10.1  T
     SCC iter.                  ...        0 min,  1.270 sec
     gradient                   ...        0 min,  2.984 sec
 * total energy  : -1007.4434662 Eh     change       -0.2356208E-01 Eh
   gradient norm :     0.0838979 Eh/a0  converged?    E=F G=F D=F
   step length   :    19.4449149 a0

........................................................................
.............................. CYCLE   13 ..............................
........................................................................
   1  -1016.2556941 -0.101626E+04  0.458E-02    9.77       0.0  T
   2  -1016.2557155 -0.213682E-04  0.276E-02    9.77       1.0  T
   3  -1016.2557213 -0.580154E-05  0.277E-03    9.77       1.3  T
   4  -1016.2557219 -0.622633E-06  0.990E-04    9.77       3.7  T
   5  -1016.2557219 -0.400258E-07  0.402E-04    9.77       9.2  T
     SCC iter.                  ...        0 min,  1.291 sec
     gradient                   ...        0 min,  3.035 sec
 * total energy  : -1007.4653049 Eh     change       -0.2183867E-01 Eh
   gradient norm :     0.0856055 Eh/a0  converged?    E=F G=F D=F
   step length   :    24.3770427 a0

........................................................................
.............................. CYCLE   14 ..............................
........................................................................
   1  -1016.2737201 -0.101627E+04  0.431E-02    9.80       0.0  T
   2  -1016.2737396 -0.195856E-04  0.258E-02    9.79       1.0  T
   3  -1016.2737442 -0.454358E-05  0.266E-03    9.79       1.4  T
   4  -1016.2737448 -0.585804E-06  0.914E-04    9.79       4.1  T
   5  -1016.2737448 -0.407333E-07  0.369E-04    9.79      10.1  T
     SCC iter.                  ...        0 min,  1.321 sec
     gradient                   ...        0 min,  3.123 sec
 * total energy  : -1007.4861007 Eh     change       -0.2079581E-01 Eh
   gradient norm :     0.0802859 Eh/a0  converged?    E=F G=F D=F
   step length   :    22.5071156 a0

........................................................................
.............................. CYCLE   15 ..............................
........................................................................
   1  -1016.2829942 -0.101628E+04  0.436E-02    9.78       0.0  T
   2  -1016.2830130 -0.188193E-04  0.263E-02    9.78       1.0  T
   3  -1016.2830182 -0.518460E-05  0.255E-03    9.78       1.5  T
   4  -1016.2830187 -0.487030E-06  0.103E-03    9.78       3.6  T
   5  -1016.2830187 -0.478320E-07  0.373E-04    9.78       9.9  T
   6  -1016.2830187 -0.639045E-08  0.659E-05    9.78      56.3  T
     SCC iter.                  ...        0 min,  1.512 sec
     gradient                   ...        0 min,  2.974 sec
 * total energy  : -1007.5056125 Eh     change       -0.1951180E-01 Eh
   gradient norm :     0.0835583 Eh/a0  converged?    E=F G=F D=F
   step length   :    28.1598223 a0

........................................................................
.............................. CYCLE   16 ..............................
........................................................................
   1  -1016.3008016 -0.101630E+04  0.405E-02    9.82       0.0  T
   2  -1016.3008156 -0.140695E-04  0.243E-02    9.81       1.0  T
   3  -1016.3008192 -0.357986E-05  0.223E-03    9.81       1.7  T
   4  -1016.3008196 -0.406441E-06  0.833E-04    9.81       4.5  T
   5  -1016.3008196 -0.336306E-07  0.321E-04    9.81      11.6  T
     SCC iter.                  ...        0 min,  1.286 sec
     gradient                   ...        0 min,  3.030 sec
 * total energy  : -1007.5240589 Eh     change       -0.1844639E-01 Eh
   gradient norm :     0.0791906 Eh/a0  converged?    E=F G=F D=F
   step length   :    19.1116267 a0

........................................................................
.............................. CYCLE   17 ..............................
........................................................................
   1  -1016.3125352 -0.101631E+04  0.399E-02    9.82       0.0  T
   2  -1016.3125480 -0.128504E-04  0.240E-02    9.82       1.0  T
   3  -1016.3125515 -0.341521E-05  0.212E-03    9.81       1.8  T
   4  -1016.3125518 -0.352109E-06  0.835E-04    9.82       4.4  T
   5  -1016.3125518 -0.330734E-07  0.307E-04    9.82      12.1  T
     SCC iter.                  ...        0 min,  1.349 sec
     gradient                   ...        0 min,  3.122 sec
 * total energy  : -1007.5413562 Eh     change       -0.1729725E-01 Eh
   gradient norm :     0.0802283 Eh/a0  converged?    E=F G=F D=F
   step length   :    20.9808408 a0

........................................................................
.............................. CYCLE   18 ..............................
........................................................................
   1  -1016.3338041 -0.101633E+04  0.393E-02    9.84       0.0  T
   2  -1016.3338179 -0.137729E-04  0.236E-02    9.83       1.0  T
   3  -1016.3338215 -0.355321E-05  0.222E-03    9.83       1.7  T
   4  -1016.3338219 -0.411148E-06  0.797E-04    9.83       4.7  T
   5  -1016.3338219 -0.284388E-07  0.321E-04    9.83      11.6  T
     SCC iter.                  ...        0 min,  1.305 sec
     gradient                   ...        0 min,  2.950 sec
 * total energy  : -1007.5575885 Eh     change       -0.1623233E-01 Eh
   gradient norm :     0.0740514 Eh/a0  converged?    E=F G=F D=F
   step length   :    18.3060733 a0

........................................................................
.............................. CYCLE   19 ..............................
........................................................................
   1  -1016.3447911 -0.101634E+04  0.395E-02    9.83       0.0  T
   2  -1016.3448041 -0.129729E-04  0.238E-02    9.83       1.0  T
   3  -1016.3448079 -0.380470E-05  0.213E-03    9.83       1.7  T
   4  -1016.3448083 -0.342032E-06  0.871E-04    9.83       4.3  T
   5  -1016.3448083 -0.328413E-07  0.320E-04    9.83      11.6  T
     SCC iter.                  ...        0 min,  1.286 sec
     gradient                   ...        0 min,  3.023 sec
 * total energy  : -1007.5729394 Eh     change       -0.1535088E-01 Eh
   gradient norm :     0.0765839 Eh/a0  converged?    E=F G=F D=F
   step length   :    25.9695981 a0

........................................................................
.............................. CYCLE   20 ..............................
........................................................................
   1  -1016.3559830 -0.101636E+04  0.392E-02    9.87       0.0  T
   2  -1016.3559956 -0.125452E-04  0.236E-02    9.86       1.0  T
   3  -1016.3559993 -0.373405E-05  0.212E-03    9.86       1.8  T
   4  -1016.3559997 -0.356227E-06  0.813E-04    9.86       4.6  T
   5  -1016.3559997 -0.261625E-07  0.322E-04    9.86      11.5  T
     SCC iter.                  ...        0 min,  1.320 sec
     gradient                   ...        0 min,  3.113 sec
 * total energy  : -1007.5871747 Eh     change       -0.1423534E-01 Eh
   gradient norm :     0.0758310 Eh/a0  converged?    E=F G=F D=F
   step length   :    22.2306255 a0
 * RMSD in coord.:     0.6885789 a0     energy gain  -0.6478367E+00 Eh
 * calculating model hessian...
Using Lindh-Hessian (1995)
 Shifting diagonal of input Hessian by   1.043346246820875E-002
 Lowest  eigenvalues of input Hessian
    0.010000    0.010194    0.010235    0.010241    0.010242    0.010250
    0.010258    0.010270    0.010273    0.010278    0.010281    0.010286
    0.010289    0.010300    0.010302    0.010303    0.010305    0.010307
 Highest eigenvalues
    1.521533    1.525866    1.529049    1.529387    1.536818    1.545977
 

........................................................................
.............................. CYCLE   21 ..............................
........................................................................
   1  -1016.4773292 -0.101648E+04  0.583E-02   10.00       0.0  T
   2  -1016.4773647 -0.354414E-04  0.358E-02    9.99       1.0  T
   3  -1016.4773775 -0.128635E-04  0.325E-03   10.00       1.1  T
   4  -1016.4773782 -0.692869E-06  0.136E-03   10.00       2.7  T
   5  -1016.4773783 -0.523129E-07  0.441E-04   10.00       8.4  T
   6  -1016.4773783 -0.654779E-08  0.676E-05   10.00      54.9  T
     SCC iter.                  ...        0 min,  1.528 sec
     gradient                   ...        0 min,  2.990 sec
 * total energy  : -1007.6051270 Eh     change       -0.1795230E-01 Eh
   gradient norm :     0.0420722 Eh/a0  converged?    E=F G=F D=F
   step length   :     0.6432166 a0

........................................................................
.............................. CYCLE   22 ..............................
........................................................................
   1  -1016.5446694 -0.101654E+04  0.705E-02   10.05       0.0  T
   2  -1016.5447107 -0.413060E-04  0.430E-02   10.04       1.0  T
   3  -1016.5447253 -0.145727E-04  0.363E-03   10.04       1.0  T
   4  -1016.5447263 -0.960255E-06  0.145E-03   10.04       2.6  T
   5  -1016.5447263 -0.669189E-07  0.513E-04   10.04       7.2  T
   6  -1016.5447263 -0.102597E-07  0.882E-05   10.04      42.1  T
     SCC iter.                  ...        0 min,  1.547 sec
     gradient                   ...        0 min,  3.099 sec
 * total energy  : -1007.6249915 Eh     change       -0.1986454E-01 Eh
   gradient norm :     0.0407304 Eh/a0  converged?    E=F G=F D=F
   step length   :     3.3777240 a0

........................................................................
.............................. CYCLE   23 ..............................
........................................................................
   1  -1016.5656811 -0.101657E+04  0.658E-02   10.04       0.0  T
   2  -1016.5657116 -0.305563E-04  0.400E-02   10.04       1.0  T
   3  -1016.5657226 -0.110035E-04  0.321E-03   10.04       1.2  T
   4  -1016.5657234 -0.768188E-06  0.123E-03   10.04       3.0  T
   5  -1016.5657234 -0.449824E-07  0.463E-04   10.04       8.0  T
   6  -1016.5657234 -0.931652E-08  0.830E-05   10.04      44.7  T
     SCC iter.                  ...        0 min,  1.636 sec
     gradient                   ...        0 min,  2.917 sec
 * total energy  : -1007.6422291 Eh     change       -0.1723760E-01 Eh
   gradient norm :     0.0524986 Eh/a0  converged?    E=F G=F D=F
   step length   :    10.0108281 a0

........................................................................
.............................. CYCLE   24 ..............................
........................................................................
   1  -1016.5641278 -0.101656E+04  0.641E-02   10.06       0.0  T
   2  -1016.5641544 -0.265702E-04  0.390E-02   10.05       1.0  T
   3  -1016.5641642 -0.984685E-05  0.299E-03   10.05       1.2  T
   4  -1016.5641649 -0.648917E-06  0.120E-03   10.05       3.1  T
   5  -1016.5641649 -0.449423E-07  0.437E-04   10.05       8.5  T
   6  -1016.5641649 -0.920704E-08  0.828E-05   10.05      44.8  T
     SCC iter.                  ...        0 min,  1.520 sec
     gradient                   ...        0 min,  3.005 sec
 * total energy  : -1007.6583634 Eh     change       -0.1613429E-01 Eh
   gradient norm :     0.0594151 Eh/a0  converged?    E=F G=F D=F
   step length   :    15.6099129 a0

........................................................................
.............................. CYCLE   25 ..............................
........................................................................
   1  -1016.5618956 -0.101656E+04  0.605E-02   10.08       0.0  T
   2  -1016.5619164 -0.208788E-04  0.367E-02   10.08       1.0  T
   3  -1016.5619239 -0.750905E-05  0.270E-03   10.07       1.4  T
   4  -1016.5619245 -0.536855E-06  0.109E-03   10.07       3.4  T
   5  -1016.5619245 -0.412891E-07  0.405E-04   10.07       9.2  T
   6  -1016.5619245 -0.860632E-08  0.775E-05   10.07      47.9  T
     SCC iter.                  ...        0 min,  1.544 sec
     gradient                   ...        0 min,  3.111 sec
 * total energy  : -1007.6734992 Eh     change       -0.1513579E-01 Eh
   gradient norm :     0.0633096 Eh/a0  converged?    E=F G=F D=F
   step length   :    14.0664529 a0

........................................................................
.............................. CYCLE   26 ..............................
........................................................................
   1  -1016.5418833 -0.101654E+04  0.602E-02   10.09       0.0  T
   2  -1016.5419081 -0.247225E-04  0.365E-02   10.08       1.0  T
   3  -1016.5419161 -0.801251E-05  0.291E-03   10.09       1.3  T
   4  -1016.5419168 -0.733177E-06  0.105E-03   10.09       3.5  T
   5  -1016.5419168 -0.337284E-07  0.444E-04   10.09       8.4  T
   6  -1016.5419169 -0.903572E-08  0.785E-05   10.09      47.3  T
     SCC iter.                  ...        0 min,  1.627 sec
     gradient                   ...        0 min,  2.907 sec
 * total energy  : -1007.6875690 Eh     change       -0.1406975E-01 Eh
   gradient norm :     0.0716052 Eh/a0  converged?    E=F G=F D=F
   step length   :    16.6235383 a0

........................................................................
.............................. CYCLE   27 ..............................
........................................................................
   1  -1016.5288020 -0.101653E+04  0.579E-02   10.08       0.0  T
   2  -1016.5288219 -0.199533E-04  0.350E-02   10.08       1.0  T
   3  -1016.5288290 -0.710837E-05  0.268E-03   10.08       1.4  T
   4  -1016.5288296 -0.533753E-06  0.108E-03   10.08       3.4  T
   5  -1016.5288296 -0.419282E-07  0.412E-04   10.08       9.0  T
   6  -1016.5288296 -0.895170E-08  0.746E-05   10.08      49.7  T
     SCC iter.                  ...        0 min,  1.531 sec
     gradient                   ...        0 min,  3.013 sec
 * total energy  : -1007.7011168 Eh     change       -0.1354784E-01 Eh
   gradient norm :     0.0756743 Eh/a0  converged?    E=F G=F D=F
   step length   :    23.7463572 a0

........................................................................
.............................. CYCLE   28 ..............................
........................................................................
   1  -1016.5143966 -0.101651E+04  0.559E-02   10.09       0.0  T
   2  -1016.5144175 -0.209038E-04  0.338E-02   10.09       1.0  T
   3  -1016.5144240 -0.644417E-05  0.270E-03   10.09       1.4  T
   4  -1016.5144246 -0.638203E-06  0.100E-03   10.09       3.7  T
   5  -1016.5144247 -0.359903E-07  0.422E-04   10.09       8.8  T
   6  -1016.5144247 -0.881505E-08  0.752E-05   10.09      49.3  T
     SCC iter.                  ...        0 min,  1.543 sec
     gradient                   ...        0 min,  3.098 sec
 * total energy  : -1007.7137527 Eh     change       -0.1263586E-01 Eh
   gradient norm :     0.0796186 Eh/a0  converged?    E=F G=F D=F
   step length   :    16.1964527 a0

........................................................................
.............................. CYCLE   29 ..............................
........................................................................
   1  -1016.4897561 -0.101649E+04  0.545E-02   10.11       0.0  T
   2  -1016.4897750 -0.188734E-04  0.330E-02   10.11       1.0  T
   3  -1016.4897815 -0.649703E-05  0.257E-03   10.11       1.4  T
   4  -1016.4897820 -0.527932E-06  0.101E-03   10.11       3.7  T
   5  -1016.4897820 -0.350685E-07  0.405E-04   10.11       9.2  T
   6  -1016.4897821 -0.841453E-08  0.725E-05   10.11      51.2  T
     SCC iter.                  ...        0 min,  1.635 sec
     gradient                   ...        0 min,  2.916 sec
 * total energy  : -1007.7257158 Eh     change       -0.1196317E-01 Eh
   gradient norm :     0.0860036 Eh/a0  converged?    E=F G=F D=F
   step length   :    19.7585398 a0

........................................................................
.............................. CYCLE   30 ..............................
........................................................................
   1  -1016.4764524 -0.101648E+04  0.520E-02   10.11       0.0  T
   2  -1016.4764727 -0.203408E-04  0.314E-02   10.11       1.0  T
   3  -1016.4764786 -0.588004E-05  0.266E-03   10.11       1.4  T
   4  -1016.4764793 -0.652493E-06  0.961E-04   10.11       3.9  T
   5  -1016.4764793 -0.342733E-07  0.420E-04   10.11       8.8  T
     SCC iter.                  ...        0 min,  1.271 sec
     gradient                   ...        0 min,  2.996 sec
 * total energy  : -1007.7369827 Eh     change       -0.1126685E-01 Eh
   gradient norm :     0.0904755 Eh/a0  converged?    E=F G=F D=F
   step length   :    15.8001969 a0

........................................................................
.............................. CYCLE   31 ..............................
........................................................................
   1  -1016.4622603 -0.101646E+04  0.507E-02   10.06       0.0  T
   2  -1016.4622814 -0.210930E-04  0.306E-02   10.05       1.0  T
   3  -1016.4622871 -0.566193E-05  0.272E-03   10.05       1.4  T
   4  -1016.4622878 -0.697383E-06  0.926E-04   10.05       4.0  T
   5  -1016.4622878 -0.318799E-07  0.415E-04   10.05       8.9  T
     SCC iter.                  ...        0 min,  1.294 sec
     gradient                   ...        0 min,  3.080 sec
 * total energy  : -1007.7478365 Eh     change       -0.1085385E-01 Eh
   gradient norm :     0.0935743 Eh/a0  converged?    E=F G=F D=F
   step length   :    17.2348587 a0

........................................................................
.............................. CYCLE   32 ..............................
........................................................................
   1  -1016.4486956 -0.101645E+04  0.498E-02    9.98       0.0  T
   2  -1016.4487216 -0.259949E-04  0.300E-02    9.98       1.0  T
   3  -1016.4487282 -0.660986E-05  0.298E-03    9.98       1.2  T
   4  -1016.4487291 -0.874889E-06  0.979E-04    9.98       3.8  T
   5  -1016.4487292 -0.344272E-07  0.460E-04    9.98       8.1  T
     SCC iter.                  ...        0 min,  1.340 sec
     gradient                   ...        0 min,  2.911 sec
 * total energy  : -1007.7578832 Eh     change       -0.1004669E-01 Eh
   gradient norm :     0.0975224 Eh/a0  converged?    E=F G=F D=F
   step length   :    17.9062139 a0

........................................................................
.............................. CYCLE   33 ..............................
........................................................................
   1  -1016.4438987 -0.101644E+04  0.471E-02    9.95       0.0  T
   2  -1016.4439207 -0.220436E-04  0.283E-02    9.95       1.0  T
   3  -1016.4439261 -0.541854E-05  0.274E-03    9.96       1.4  T
   4  -1016.4439269 -0.728559E-06  0.925E-04    9.96       4.0  T
   5  -1016.4439269 -0.343424E-07  0.420E-04    9.96       8.8  T
     SCC iter.                  ...        0 min,  1.268 sec
     gradient                   ...        0 min,  2.996 sec
 * total energy  : -1007.7675419 Eh     change       -0.9658675E-02 Eh
   gradient norm :     0.0988003 Eh/a0  converged?    E=F G=F D=F
   step length   :    14.0144596 a0

........................................................................
.............................. CYCLE   34 ..............................
........................................................................
   1  -1016.4403379 -0.101644E+04  0.450E-02    9.95       0.0  T
   2  -1016.4403566 -0.187289E-04  0.272E-02    9.95       1.0  T
   3  -1016.4403615 -0.484263E-05  0.250E-03    9.94       1.5  T
   4  -1016.4403621 -0.620940E-06  0.871E-04    9.94       4.3  T
   5  -1016.4403621 -0.301882E-07  0.396E-04    9.94       9.4  T
     SCC iter.                  ...        0 min,  1.294 sec
     gradient                   ...        0 min,  3.072 sec
 * total energy  : -1007.7770864 Eh     change       -0.9544470E-02 Eh
   gradient norm :     0.0950498 Eh/a0  converged?    E=F G=F D=F
   step length   :    17.5404470 a0

........................................................................
.............................. CYCLE   35 ..............................
........................................................................
   1  -1016.4422381 -0.101644E+04  0.430E-02    9.92       0.0  T
   2  -1016.4422552 -0.171722E-04  0.260E-02    9.92       1.0  T
   3  -1016.4422598 -0.458685E-05  0.242E-03    9.92       1.5  T
   4  -1016.4422604 -0.555494E-06  0.866E-04    9.92       4.3  T
   5  -1016.4422604 -0.309590E-07  0.385E-04    9.92       9.6  T
     SCC iter.                  ...        0 min,  1.344 sec
     gradient                   ...        0 min,  2.970 sec
 * total energy  : -1007.7864005 Eh     change       -0.9314098E-02 Eh
   gradient norm :     0.0943113 Eh/a0  converged?    E=F G=F D=F
   step length   :    12.1765786 a0

........................................................................
.............................. CYCLE   36 ..............................
........................................................................
   1  -1016.4559615 -0.101646E+04  0.409E-02    9.92       0.0  T
   2  -1016.4559757 -0.142621E-04  0.247E-02    9.92       1.0  T
   3  -1016.4559798 -0.402706E-05  0.221E-03    9.92       1.7  T
   4  -1016.4559802 -0.442676E-06  0.827E-04    9.92       4.5  T
   5  -1016.4559802 -0.278725E-07  0.354E-04    9.92      10.5  T
     SCC iter.                  ...        0 min,  1.266 sec
     gradient                   ...        0 min,  2.986 sec
 * total energy  : -1007.7954266 Eh     change       -0.9026103E-02 Eh
   gradient norm :     0.0929958 Eh/a0  converged?    E=F G=F D=F
   step length   :    12.6378402 a0

........................................................................
.............................. CYCLE   37 ..............................
........................................................................
   1  -1016.4728608 -0.101647E+04  0.396E-02    9.92       0.0  T
   2  -1016.4728765 -0.156619E-04  0.238E-02    9.93       1.0  T
   3  -1016.4728803 -0.382411E-05  0.233E-03    9.93       1.6  T
   4  -1016.4728808 -0.516913E-06  0.797E-04    9.93       4.7  T
   5  -1016.4728809 -0.283812E-07  0.359E-04    9.93      10.4  T
     SCC iter.                  ...        0 min,  1.289 sec
     gradient                   ...        0 min,  3.056 sec
 * total energy  : -1007.8045040 Eh     change       -0.9077427E-02 Eh
   gradient norm :     0.0857187 Eh/a0  converged?    E=F G=F D=F
   step length   :    22.7972052 a0

........................................................................
.............................. CYCLE   38 ..............................
........................................................................
   1  -1016.4884895 -0.101649E+04  0.384E-02    9.90       0.0  T
   2  -1016.4885019 -0.124352E-04  0.231E-02    9.90       1.0  T
   3  -1016.4885055 -0.353476E-05  0.206E-03    9.90       1.8  T
   4  -1016.4885059 -0.374105E-06  0.806E-04    9.90       4.6  T
   5  -1016.4885059 -0.271183E-07  0.335E-04    9.90      11.1  T
     SCC iter.                  ...        0 min,  1.342 sec
     gradient                   ...        0 min,  2.980 sec
 * total energy  : -1007.8131348 Eh     change       -0.8630846E-02 Eh
   gradient norm :     0.0822100 Eh/a0  converged?    E=F G=F D=F
   step length   :    11.1140811 a0

........................................................................
.............................. CYCLE   39 ..............................
........................................................................
   1  -1016.5088403 -0.101651E+04  0.375E-02    9.94       0.0  T
   2  -1016.5088515 -0.111550E-04  0.226E-02    9.94       1.0  T
   3  -1016.5088546 -0.315155E-05  0.195E-03    9.94       1.9  T
   4  -1016.5088550 -0.334676E-06  0.749E-04    9.94       5.0  T
   5  -1016.5088550 -0.230046E-07  0.309E-04    9.94      12.0  T
     SCC iter.                  ...        0 min,  1.266 sec
     gradient                   ...        0 min,  2.986 sec
 * total energy  : -1007.8217388 Eh     change       -0.8603936E-02 Eh
   gradient norm :     0.0752991 Eh/a0  converged?    E=F G=F D=F
   step length   :    17.2530737 a0

........................................................................
.............................. CYCLE   40 ..............................
........................................................................
   1  -1016.5274616 -0.101653E+04  0.380E-02    9.93       0.0  T
   2  -1016.5274730 -0.114744E-04  0.229E-02    9.93       1.0  T
   3  -1016.5274768 -0.379668E-05  0.200E-03    9.93       1.9  T
   4  -1016.5274771 -0.321072E-06  0.809E-04    9.93       4.6  T
   5  -1016.5274772 -0.249792E-07  0.322E-04    9.93      11.5  T
     SCC iter.                  ...        0 min,  1.290 sec
     gradient                   ...        0 min,  3.066 sec
 * total energy  : -1007.8297780 Eh     change       -0.8039193E-02 Eh
   gradient norm :     0.0752063 Eh/a0  converged?    E=F G=F D=F
   step length   :    14.4697072 a0

........................................................................
.............................. CYCLE   41 ..............................
........................................................................
   1  -1016.5528446 -0.101655E+04  0.362E-02    9.96       0.0  T
   2  -1016.5528541 -0.947740E-05  0.218E-02    9.96       1.0  T
   3  -1016.5528569 -0.287806E-05  0.183E-03    9.96       2.0  T
   4  -1016.5528572 -0.278791E-06  0.724E-04    9.96       5.1  T
   5  -1016.5528572 -0.220917E-07  0.290E-04    9.96      12.8  T
     SCC iter.                  ...        0 min,  1.345 sec
     gradient                   ...        0 min,  3.007 sec
 * total energy  : -1007.8379886 Eh     change       -0.8210616E-02 Eh
   gradient norm :     0.0686571 Eh/a0  converged?    E=F G=F D=F
   step length   :    15.6462705 a0

........................................................................
.............................. CYCLE   42 ..............................
........................................................................
   1  -1016.5806461 -0.101658E+04  0.377E-02    9.99       0.0  T
   2  -1016.5806639 -0.177557E-04  0.227E-02    9.99       1.0  T
   3  -1016.5806681 -0.417732E-05  0.241E-03    9.99       1.5  T
   4  -1016.5806686 -0.546702E-06  0.855E-04    9.99       4.3  T
   5  -1016.5806687 -0.332934E-07  0.375E-04    9.99       9.9  T
     SCC iter.                  ...        0 min,  1.267 sec
     gradient                   ...        0 min,  2.986 sec
 * total energy  : -1007.8473225 Eh     change       -0.9333930E-02 Eh
   gradient norm :     0.0650074 Eh/a0  converged?    E=F G=F D=F
   step length   :    14.2155400 a0
 * RMSD in coord.:     0.7460436 a0     energy gain  -0.2601478E+00 Eh
 * calculating model hessian...
Using Lindh-Hessian (1995)
 Shifting diagonal of input Hessian by   1.029012898448855E-002
 Lowest  eigenvalues of input Hessian
    0.010000    0.010091    0.010105    0.010116    0.010124    0.010131
    0.010150    0.010154    0.010160    0.010164    0.010171    0.010173
    0.010176    0.010186    0.010192    0.010197    0.010199    0.010201
 Highest eigenvalues
    1.506231    1.506862    1.507720    1.509336    1.509346    1.527097
 

........................................................................
.............................. CYCLE   43 ..............................
........................................................................
   1  -1016.6845009 -0.101668E+04  0.457E-02   10.09       0.0  T
   2  -1016.6845233 -0.224038E-04  0.278E-02   10.09       1.0  T
   3  -1016.6845300 -0.661685E-05  0.263E-03   10.09       1.4  T
   4  -1016.6845304 -0.462205E-06  0.114E-03   10.09       3.3  T
   5  -1016.6845305 -0.465991E-07  0.376E-04   10.09       9.9  T
   6  -1016.6845305 -0.550926E-08  0.604E-05   10.09      61.5  T
     SCC iter.                  ...        0 min,  1.588 sec
     gradient                   ...        0 min,  3.122 sec
 * total energy  : -1007.8585482 Eh     change       -0.1122573E-01 Eh
   gradient norm :     0.0282316 Eh/a0  converged?    E=F G=F D=F
   step length   :     0.5387899 a0

........................................................................
.............................. CYCLE   44 ..............................
........................................................................
   1  -1016.7511913 -0.101675E+04  0.658E-02   10.13       0.0  T
   2  -1016.7512191 -0.277854E-04  0.399E-02   10.13       1.0  T
   3  -1016.7512287 -0.958340E-05  0.300E-03   10.13       1.2  T
   4  -1016.7512293 -0.622937E-06  0.135E-03   10.13       2.7  T
   5  -1016.7512294 -0.639200E-07  0.452E-04   10.13       8.2  T
   6  -1016.7512294 -0.108608E-07  0.818E-05   10.13      45.4  T
     SCC iter.                  ...        0 min,  1.520 sec
     gradient                   ...        0 min,  2.964 sec
 * total energy  : -1007.8713805 Eh     change       -0.1283225E-01 Eh
   gradient norm :     0.0244930 Eh/a0  converged?    E=F G=F D=F
   step length   :     2.1805204 a0

........................................................................
.............................. CYCLE   45 ..............................
........................................................................
   1  -1016.7652845 -0.101677E+04  0.620E-02   10.11       0.0  T
   2  -1016.7653059 -0.214101E-04  0.376E-02   10.11       1.0  T
   3  -1016.7653134 -0.753812E-05  0.269E-03   10.11       1.4  T
   4  -1016.7653139 -0.514521E-06  0.118E-03   10.11       3.1  T
   5  -1016.7653140 -0.499151E-07  0.409E-04   10.11       9.1  T
   6  -1016.7653140 -0.963871E-08  0.766E-05   10.11      48.5  T
     SCC iter.                  ...        0 min,  1.539 sec
     gradient                   ...        0 min,  3.180 sec
 * total energy  : -1007.8824004 Eh     change       -0.1101993E-01 Eh
   gradient norm :     0.0359848 Eh/a0  converged?    E=F G=F D=F
   step length   :     5.8972149 a0

........................................................................
.............................. CYCLE   46 ..............................
........................................................................
   1  -1016.7639793 -0.101676E+04  0.595E-02   10.06       0.0  T
   2  -1016.7639983 -0.189822E-04  0.360E-02   10.06       1.0  T
   3  -1016.7640044 -0.608170E-05  0.256E-03   10.06       1.4  T
   4  -1016.7640049 -0.519000E-06  0.106E-03   10.06       3.5  T
   5  -1016.7640049 -0.423706E-07  0.396E-04   10.06       9.4  T
   6  -1016.7640049 -0.887314E-08  0.731E-05   10.06      50.8  T
     SCC iter.                  ...        0 min,  1.620 sec
     gradient                   ...        0 min,  2.975 sec
 * total energy  : -1007.8925936 Eh     change       -0.1019322E-01 Eh
   gradient norm :     0.0432603 Eh/a0  converged?    E=F G=F D=F
   step length   :    10.7883391 a0

........................................................................
.............................. CYCLE   47 ..............................
........................................................................
   1  -1016.7528766 -0.101675E+04  0.578E-02   10.02       0.0  T
   2  -1016.7528941 -0.174820E-04  0.349E-02   10.02       1.0  T
   3  -1016.7528995 -0.541036E-05  0.246E-03   10.03       1.5  T
   4  -1016.7529000 -0.498799E-06  0.997E-04   10.03       3.7  T
   5  -1016.7529001 -0.384177E-07  0.382E-04   10.03       9.7  T
     SCC iter.                  ...        0 min,  1.267 sec
     gradient                   ...        0 min,  3.008 sec
 * total energy  : -1007.9021392 Eh     change       -0.9545584E-02 Eh
   gradient norm :     0.0479259 Eh/a0  converged?    E=F G=F D=F
   step length   :    11.4359187 a0

........................................................................
.............................. CYCLE   48 ..............................
........................................................................
   1  -1016.7380452 -0.101674E+04  0.562E-02    9.98       0.0  T
   2  -1016.7380615 -0.162328E-04  0.340E-02    9.98       1.0  T
   3  -1016.7380665 -0.498108E-05  0.238E-03    9.98       1.6  T
   4  -1016.7380669 -0.474697E-06  0.950E-04    9.98       3.9  T
   5  -1016.7380670 -0.357248E-07  0.371E-04    9.98      10.0  T
     SCC iter.                  ...        0 min,  1.289 sec
     gradient                   ...        0 min,  3.081 sec
 * total energy  : -1007.9110374 Eh     change       -0.8898195E-02 Eh
   gradient norm :     0.0515528 Eh/a0  converged?    E=F G=F D=F
   step length   :    10.6719622 a0

........................................................................
.............................. CYCLE   49 ..............................
........................................................................
   1  -1016.7183648 -0.101672E+04  0.555E-02    9.95       0.0  T
   2  -1016.7183803 -0.155601E-04  0.335E-02    9.95       1.0  T
   3  -1016.7183854 -0.504861E-05  0.233E-03    9.95       1.6  T
   4  -1016.7183858 -0.440519E-06  0.939E-04    9.95       4.0  T
   5  -1016.7183858 -0.329369E-07  0.364E-04    9.95      10.2  T
     SCC iter.                  ...        0 min,  1.366 sec
     gradient                   ...        0 min,  2.923 sec
 * total energy  : -1007.9192636 Eh     change       -0.8226153E-02 Eh
   gradient norm :     0.0559304 Eh/a0  converged?    E=F G=F D=F
   step length   :    10.8458862 a0

........................................................................
.............................. CYCLE   50 ..............................
........................................................................
   1  -1016.6997392 -0.101670E+04  0.539E-02    9.92       0.0  T
   2  -1016.6997547 -0.155766E-04  0.325E-02    9.92       1.0  T
   3  -1016.6997596 -0.482660E-05  0.235E-03    9.92       1.6  T
   4  -1016.6997600 -0.463641E-06  0.919E-04    9.92       4.0  T
   5  -1016.6997601 -0.333742E-07  0.368E-04    9.92      10.1  T
     SCC iter.                  ...        0 min,  1.266 sec
     gradient                   ...        0 min,  3.012 sec
 * total energy  : -1007.9269354 Eh     change       -0.7671851E-02 Eh
   gradient norm :     0.0578199 Eh/a0  converged?    E=F G=F D=F
   step length   :    11.8573531 a0

........................................................................
.............................. CYCLE   51 ..............................
........................................................................
   1  -1016.6772383 -0.101668E+04  0.523E-02    9.90       0.0  T
   2  -1016.6772520 -0.136743E-04  0.316E-02    9.90       1.0  T
   3  -1016.6772565 -0.452543E-05  0.219E-03    9.90       1.7  T
   4  -1016.6772569 -0.388742E-06  0.879E-04    9.90       4.2  T
   5  -1016.6772569 -0.291191E-07  0.345E-04    9.90      10.8  T
     SCC iter.                  ...        0 min,  1.289 sec
     gradient                   ...        0 min,  3.111 sec
 * total energy  : -1007.9341624 Eh     change       -0.7226960E-02 Eh
   gradient norm :     0.0621594 Eh/a0  converged?    E=F G=F D=F
   step length   :     9.6767087 a0

........................................................................
.............................. CYCLE   52 ..............................
........................................................................
   1  -1016.6641175 -0.101666E+04  0.500E-02    9.90       0.0  T
   2  -1016.6641301 -0.126132E-04  0.301E-02    9.90       1.0  T
   3  -1016.6641340 -0.394790E-05  0.210E-03    9.90       1.8  T
   4  -1016.6641344 -0.371526E-06  0.834E-04    9.90       4.5  T
   5  -1016.6641344 -0.276940E-07  0.332E-04    9.90      11.2  T
     SCC iter.                  ...        0 min,  1.368 sec
     gradient                   ...        0 min,  2.911 sec
 * total energy  : -1007.9410803 Eh     change       -0.6917903E-02 Eh
   gradient norm :     0.0649135 Eh/a0  converged?    E=F G=F D=F
   step length   :     9.7711692 a0

........................................................................
.............................. CYCLE   53 ..............................
........................................................................
   1  -1016.6503907 -0.101665E+04  0.487E-02    9.89       0.0  T
   2  -1016.6504034 -0.126644E-04  0.294E-02    9.89       1.0  T
   3  -1016.6504077 -0.427716E-05  0.211E-03    9.89       1.8  T
   4  -1016.6504081 -0.362292E-06  0.843E-04    9.89       4.4  T
   5  -1016.6504081 -0.265144E-07  0.335E-04    9.89      11.1  T
     SCC iter.                  ...        0 min,  1.272 sec
     gradient                   ...        0 min,  3.024 sec
 * total energy  : -1007.9477109 Eh     change       -0.6630594E-02 Eh
   gradient norm :     0.0668245 Eh/a0  converged?    E=F G=F D=F
   step length   :    11.6500312 a0

........................................................................
.............................. CYCLE   54 ..............................
........................................................................
   1  -1016.6394120 -0.101664E+04  0.464E-02    9.90       0.0  T
   2  -1016.6394231 -0.111104E-04  0.280E-02    9.89       1.0  T
   3  -1016.6394266 -0.350191E-05  0.195E-03    9.89       1.9  T
   4  -1016.6394269 -0.320061E-06  0.788E-04    9.89       4.7  T
   5  -1016.6394269 -0.251999E-07  0.309E-04    9.89      12.0  T
     SCC iter.                  ...        0 min,  1.321 sec
     gradient                   ...        0 min,  3.121 sec
 * total energy  : -1007.9543242 Eh     change       -0.6613294E-02 Eh
   gradient norm :     0.0676282 Eh/a0  converged?    E=F G=F D=F
   step length   :    10.8475701 a0

........................................................................
.............................. CYCLE   55 ..............................
........................................................................
   1  -1016.6344614 -0.101663E+04  0.450E-02    9.90       0.0  T
   2  -1016.6344723 -0.109121E-04  0.271E-02    9.90       1.0  T
   3  -1016.6344761 -0.370686E-05  0.194E-03    9.90       1.9  T
   4  -1016.6344764 -0.305593E-06  0.799E-04    9.90       4.6  T
   5  -1016.6344764 -0.249225E-07  0.313E-04    9.90      11.9  T
     SCC iter.                  ...        0 min,  1.346 sec
     gradient                   ...        0 min,  2.931 sec
 * total energy  : -1007.9608077 Eh     change       -0.6483504E-02 Eh
   gradient norm :     0.0721839 Eh/a0  converged?    E=F G=F D=F
   step length   :    10.4877035 a0

........................................................................
.............................. CYCLE   56 ..............................
........................................................................
   1  -1016.6377246 -0.101664E+04  0.429E-02    9.90       0.0  T
   2  -1016.6377352 -0.105872E-04  0.258E-02    9.90       1.0  T
   3  -1016.6377383 -0.312965E-05  0.192E-03    9.90       1.9  T
   4  -1016.6377387 -0.331514E-06  0.728E-04    9.90       5.1  T
   5  -1016.6377387 -0.224719E-07  0.305E-04    9.90      12.2  T
     SCC iter.                  ...        0 min,  1.280 sec
     gradient                   ...        0 min,  3.030 sec
 * total energy  : -1007.9672885 Eh     change       -0.6480791E-02 Eh
   gradient norm :     0.0686607 Eh/a0  converged?    E=F G=F D=F
   step length   :    16.9462830 a0

........................................................................
.............................. CYCLE   57 ..............................
........................................................................
   1  -1016.6372656 -0.101664E+04  0.416E-02    9.91       0.0  T
   2  -1016.6372757 -0.100651E-04  0.251E-02    9.91       1.0  T
   3  -1016.6372788 -0.314561E-05  0.186E-03    9.91       2.0  T
   4  -1016.6372791 -0.293907E-06  0.747E-04    9.91       5.0  T
   5  -1016.6372791 -0.232561E-07  0.298E-04    9.91      12.4  T
     SCC iter.                  ...        0 min,  1.323 sec
     gradient                   ...        0 min,  3.138 sec
 * total energy  : -1007.9737363 Eh     change       -0.6447854E-02 Eh
   gradient norm :     0.0691801 Eh/a0  converged?    E=F G=F D=F
   step length   :    12.4111515 a0

........................................................................
.............................. CYCLE   58 ..............................
........................................................................
   1  -1016.6376660 -0.101664E+04  0.416E-02    9.91       0.0  T
   2  -1016.6376765 -0.105341E-04  0.251E-02    9.91       1.0  T
   3  -1016.6376800 -0.349594E-05  0.189E-03    9.90       2.0  T
   4  -1016.6376803 -0.281020E-06  0.810E-04    9.90       4.6  T
   5  -1016.6376803 -0.263740E-07  0.303E-04    9.90      12.2  T
     SCC iter.                  ...        0 min,  1.249 sec
     gradient                   ...        0 min,  2.732 sec
 * total energy  : -1007.9800166 Eh     change       -0.6280243E-02 Eh
   gradient norm :     0.0698109 Eh/a0  converged?    E=F G=F D=F
   step length   :    18.0446514 a0

........................................................................
.............................. CYCLE   59 ..............................
........................................................................
   1  -1016.6479446 -0.101665E+04  0.388E-02    9.91       0.0  T
   2  -1016.6479543 -0.970528E-05  0.233E-02    9.91       1.0  T
   3  -1016.6479569 -0.256767E-05  0.182E-03    9.90       2.0  T
   4  -1016.6479572 -0.312841E-06  0.669E-04    9.90       5.5  T
   5  -1016.6479572 -0.204429E-07  0.283E-04    9.90      13.1  T
     SCC iter.                  ...        0 min,  1.326 sec
     gradient                   ...        0 min,  2.846 sec
 * total energy  : -1007.9865179 Eh     change       -0.6501293E-02 Eh
   gradient norm :     0.0672094 Eh/a0  converged?    E=F G=F D=F
   step length   :    14.2664075 a0

........................................................................
.............................. CYCLE   60 ..............................
........................................................................
   1  -1016.6581996 -0.101666E+04  0.381E-02    9.91       0.0  T
   2  -1016.6582099 -0.103166E-04  0.230E-02    9.91       1.0  T
   3  -1016.6582127 -0.279045E-05  0.185E-03    9.91       2.0  T
   4  -1016.6582131 -0.324877E-06  0.714E-04    9.91       5.2  T
   5  -1016.6582131 -0.232919E-07  0.302E-04    9.91      12.3  T
     SCC iter.                  ...        0 min,  1.311 sec
     gradient                   ...        0 min,  2.915 sec
 * total energy  : -1007.9929572 Eh     change       -0.6439354E-02 Eh
   gradient norm :     0.0672058 Eh/a0  converged?    E=F G=F D=F
   step length   :    13.5518062 a0

........................................................................
.............................. CYCLE   61 ..............................
........................................................................
   1  -1016.6702257 -0.101667E+04  0.371E-02    9.91       0.0  T
   2  -1016.6702356 -0.991693E-05  0.223E-02    9.91       1.0  T
   3  -1016.6702381 -0.248757E-05  0.182E-03    9.91       2.0  T
   4  -1016.6702384 -0.320191E-06  0.670E-04    9.91       5.5  T
   5  -1016.6702384 -0.208605E-07  0.286E-04    9.91      13.0  T
     SCC iter.                  ...        0 min,  1.256 sec
     gradient                   ...        0 min,  2.895 sec
 * total energy  : -1007.9994876 Eh     change       -0.6530411E-02 Eh
   gradient norm :     0.0633906 Eh/a0  converged?    E=F G=F D=F
   step length   :    15.5360422 a0

........................................................................
.............................. CYCLE   62 ..............................
........................................................................
   1  -1016.6836418 -0.101668E+04  0.370E-02    9.92       0.0  T
   2  -1016.6836523 -0.105780E-04  0.223E-02    9.91       1.0  T
   3  -1016.6836549 -0.258656E-05  0.187E-03    9.91       2.0  T
   4  -1016.6836553 -0.342690E-06  0.681E-04    9.91       5.4  T
   5  -1016.6836553 -0.221781E-07  0.290E-04    9.91      12.8  T
     SCC iter.                  ...        0 min,  1.263 sec
     gradient                   ...        0 min,  2.854 sec
 * total energy  : -1008.0059385 Eh     change       -0.6450838E-02 Eh
   gradient norm :     0.0615596 Eh/a0  converged?    E=F G=F D=F
   step length   :    13.5201631 a0

........................................................................
.............................. CYCLE   63 ..............................
........................................................................
   1  -1016.6990425 -0.101670E+04  0.363E-02    9.92       0.0  T
   2  -1016.6990527 -0.102142E-04  0.219E-02    9.92       1.0  T
   3  -1016.6990552 -0.247999E-05  0.183E-03    9.92       2.0  T
   4  -1016.6990555 -0.337598E-06  0.659E-04    9.92       5.6  T
   5  -1016.6990556 -0.202795E-07  0.288E-04    9.92      12.9  T
     SCC iter.                  ...        0 min,  1.251 sec
     gradient                   ...        0 min,  2.867 sec
 * total energy  : -1008.0125111 Eh     change       -0.6572659E-02 Eh
   gradient norm :     0.0597123 Eh/a0  converged?    E=F G=F D=F
   step length   :    15.0879025 a0

........................................................................
.............................. CYCLE   64 ..............................
........................................................................
   1  -1016.7071962 -0.101671E+04  0.363E-02    9.90       0.0  T
   2  -1016.7072082 -0.119521E-04  0.219E-02    9.90       1.0  T
   3  -1016.7072111 -0.296485E-05  0.197E-03    9.89       1.9  T
   4  -1016.7072115 -0.373916E-06  0.743E-04    9.89       5.0  T
   5  -1016.7072115 -0.255658E-07  0.317E-04    9.89      11.7  T
     SCC iter.                  ...        0 min,  1.263 sec
     gradient                   ...        0 min,  2.895 sec
 * total energy  : -1008.0194593 Eh     change       -0.6948227E-02 Eh
   gradient norm :     0.0572597 Eh/a0  converged?    E=F G=F D=F
   step length   :    23.2929823 a0

........................................................................
.............................. CYCLE   65 ..............................
........................................................................
   1  -1016.7352856 -0.101674E+04  0.367E-02    9.92       0.0  T
   2  -1016.7353007 -0.150636E-04  0.220E-02    9.92       1.0  T
   3  -1016.7353036 -0.290754E-05  0.222E-03    9.93       1.7  T
   4  -1016.7353041 -0.498514E-06  0.727E-04    9.93       5.1  T
   5  -1016.7353041 -0.278732E-07  0.319E-04    9.93      11.7  T
     SCC iter.                  ...        0 min,  1.793 sec
     gradient                   ...        0 min,  2.919 sec
 * total energy  : -1008.0266106 Eh     change       -0.7151231E-02 Eh
   gradient norm :     0.0521994 Eh/a0  converged?    E=F G=F D=F
   step length   :     9.4344859 a0

........................................................................
.............................. CYCLE   66 ..............................
........................................................................
   1  -1016.7380712 -0.101674E+04  0.361E-02    9.92       0.0  T
   2  -1016.7380821 -0.108537E-04  0.217E-02    9.93       1.0  T
   3  -1016.7380848 -0.273931E-05  0.188E-03    9.93       2.0  T
   4  -1016.7380852 -0.358489E-06  0.675E-04    9.92       5.5  T
   5  -1016.7380852 -0.201945E-07  0.298E-04    9.92      12.5  T
     SCC iter.                  ...        0 min,  1.335 sec
     gradient                   ...        0 min,  3.165 sec
 * total energy  : -1008.0337316 Eh     change       -0.7120987E-02 Eh
   gradient norm :     0.0518016 Eh/a0  converged?    E=F G=F D=F
   step length   :    14.8069708 a0

........................................................................
.............................. CYCLE   67 ..............................
........................................................................
   1  -1016.7432367 -0.101674E+04  0.361E-02    9.92       0.0  T
   2  -1016.7432470 -0.102753E-04  0.217E-02    9.92       1.0  T
   3  -1016.7432499 -0.285814E-05  0.186E-03    9.92       2.0  T
   4  -1016.7432502 -0.325958E-06  0.690E-04    9.91       5.4  T
   5  -1016.7432502 -0.196975E-07  0.299E-04    9.91      12.4  T
     SCC iter.                  ...        0 min,  1.330 sec
     gradient                   ...        0 min,  2.941 sec
 * total energy  : -1008.0407040 Eh     change       -0.6972394E-02 Eh
   gradient norm :     0.0523507 Eh/a0  converged?    E=F G=F D=F
   step length   :    10.4542038 a0
 * RMSD in coord.:     0.8344546 a0     energy gain  -0.1933815E+00 Eh
 * calculating model hessian...
Using Lindh-Hessian (1995)
 Shifting diagonal of input Hessian by   1.029539095703512E-002
 Lowest  eigenvalues of input Hessian
    0.010000    0.010003    0.010043    0.010111    0.010151    0.010164
    0.010168    0.010174    0.010182    0.010187    0.010197    0.010197
    0.010199    0.010205    0.010209    0.010212    0.010216    0.010216
 Highest eigenvalues
    1.510019    1.510248    1.510751    1.511818    1.513745    1.514631
 

........................................................................
.............................. CYCLE   68 ..............................
........................................................................
   1  -1016.8324346 -0.101683E+04  0.416E-02    9.96       0.0  T
   2  -1016.8324505 -0.159680E-04  0.253E-02    9.96       1.0  T
   3  -1016.8324556 -0.509846E-05  0.217E-03    9.97       1.7  T
   4  -1016.8324559 -0.287497E-06  0.103E-03    9.96       3.6  T
   5  -1016.8324560 -0.352628E-07  0.310E-04    9.96      12.0  T
   6  -1016.8324560 -0.477007E-08  0.584E-05    9.96      63.5  T
     SCC iter.                  ...        0 min,  1.484 sec
     gradient                   ...        0 min,  3.087 sec
 * total energy  : -1008.0496521 Eh     change       -0.8948154E-02 Eh
   gradient norm :     0.0215277 Eh/a0  converged?    E=F G=F D=F
   step length   :     0.5226067 a0

........................................................................
.............................. CYCLE   69 ..............................
........................................................................
   1  -1016.8896375 -0.101689E+04  0.664E-02   10.00       0.0  T
   2  -1016.8896637 -0.262098E-04  0.403E-02   10.00       1.0  T
   3  -1016.8896727 -0.900543E-05  0.285E-03   10.00       1.3  T
   4  -1016.8896733 -0.577973E-06  0.130E-03   10.00       2.8  T
   5  -1016.8896734 -0.612841E-07  0.436E-04   10.00       8.5  T
   6  -1016.8896734 -0.102993E-07  0.826E-05   10.00      44.9  T
     SCC iter.                  ...        0 min,  1.498 sec
     gradient                   ...        0 min,  2.969 sec
 * total energy  : -1008.0605828 Eh     change       -0.1093064E-01 Eh
   gradient norm :     0.0256144 Eh/a0  converged?    E=F G=F D=F
   step length   :     2.1820109 a0

........................................................................
.............................. CYCLE   70 ..............................
........................................................................
   1  -1016.9071162 -0.101691E+04  0.639E-02   10.02       0.0  T
   2  -1016.9071385 -0.222753E-04  0.387E-02   10.02       1.0  T
   3  -1016.9071460 -0.745354E-05  0.268E-03   10.02       1.4  T
   4  -1016.9071466 -0.591625E-06  0.112E-03   10.02       3.3  T
   5  -1016.9071466 -0.459700E-07  0.423E-04   10.02       8.8  T
   6  -1016.9071466 -0.967248E-08  0.782E-05   10.02      47.5  T
     SCC iter.                  ...        0 min,  1.535 sec
     gradient                   ...        0 min,  3.039 sec
 * total energy  : -1008.0698903 Eh     change       -0.9307565E-02 Eh
   gradient norm :     0.0331101 Eh/a0  converged?    E=F G=F D=F
   step length   :     5.3305462 a0

........................................................................
.............................. CYCLE   71 ..............................
........................................................................
   1  -1016.9024190 -0.101690E+04  0.614E-02   10.02       0.0  T
   2  -1016.9024384 -0.194027E-04  0.372E-02   10.01       1.0  T
   3  -1016.9024445 -0.614912E-05  0.253E-03   10.00       1.5  T
   4  -1016.9024451 -0.558133E-06  0.103E-03   10.01       3.6  T
   5  -1016.9024451 -0.404608E-07  0.405E-04   10.01       9.2  T
   6  -1016.9024451 -0.921796E-08  0.753E-05   10.01      49.3  T
     SCC iter.                  ...        0 min,  1.538 sec
     gradient                   ...        0 min,  3.130 sec
[...]
   433   8 O      434   1 H                                       0.9795960
   433   8 O      435   6 C                                       1.4197891
   435   6 C      436   1 H                                       1.0878034
   435   6 C      437   1 H                                       1.0917492
   435   6 C      438   1 H                                       1.0923147
   439   8 O      440   1 H                                       0.9841952
   439   8 O      441   6 C                                       1.4077143
   441   6 C      442   1 H                                       1.0897982
   441   6 C      443   1 H                                       1.0941117
   441   6 C      444   1 H                                       1.0936187
   445   8 O      446   1 H                                       0.9764176
   445   8 O      447   6 C                                       1.4207156
   447   6 C      448   1 H                                       1.0890119
   447   6 C      449   1 H                                       1.0887696
   447   6 C      450   1 H                                       1.0909648
   451   8 O      452   1 H                                       0.9771262
   451   8 O      453   6 C                                       1.4132104
   453   6 C      454   1 H                                       1.0895209
   453   6 C      455   1 H                                       1.0922744
   453   6 C      456   1 H                                       1.0933136
   457   8 O      458   1 H                                       0.9745321
   457   8 O      459   6 C                                       1.4120867
   459   6 C      460   1 H                                       1.0892566
   459   6 C      461   1 H                                       1.0922083
   459   6 C      462   1 H                                       1.0944942
   463   8 O      464   1 H                                       0.9865487
   463   8 O      465   6 C                                       1.4222674
   465   6 C      466   1 H                                       1.0918091
   465   6 C      467   1 H                                       1.0869637
   465   6 C      468   1 H                                       1.0879744
   469   8 O      470   1 H                                       0.9773274
   469   8 O      471   6 C                                       1.4152683
   471   6 C      472   1 H                                       1.0882120
   471   6 C      473   1 H                                       1.0914196
   471   6 C      474   1 H                                       1.0926025
   475   8 O      476   1 H                                       0.9792590
   475   8 O      477   6 C                                       1.4056367
   477   6 C      478   1 H                                       1.0902000
   477   6 C      479   1 H                                       1.0951447
   477   6 C      480   1 H                                       1.0940319
   481   8 O      482   1 H                                       0.9773219
   481   8 O      483   6 C                                       1.4103772
   483   6 C      484   1 H                                       1.0899850
   483   6 C      485   1 H                                       1.0930333
   483   6 C      486   1 H                                       1.0929115
   487   8 O      488   1 H                                       0.9828663
   487   8 O      489   6 C                                       1.4102430
   489   6 C      490   1 H                                       1.0889516
   489   6 C      491   1 H                                       1.0927877
   489   6 C      492   1 H                                       1.0938159
   493   8 O      494   1 H                                       0.9757115
   493   8 O      495   6 C                                       1.4175513
   495   6 C      496   1 H                                       1.0877622
   495   6 C      497   1 H                                       1.0900111
   495   6 C      498   1 H                                       1.0908066
   499   8 O      500   1 H                                       0.9770600
   499   8 O      501   6 C                                       1.4108592
   501   6 C      502   1 H                                       1.0876219
   501   6 C      503   1 H                                       1.0934442
   501   6 C      504   1 H                                       1.0922784
   505   8 O      506   1 H                                       0.9794201
   505   8 O      507   6 C                                       1.4168018
   507   6 C      508   1 H                                       1.0878560
   507   6 C      509   1 H                                       1.0926714
   507   6 C      510   1 H                                       1.0909149
   511   8 O      512   1 H                                       0.9628687
   511   8 O      513   6 C                                       1.4197874
   513   6 C      514   1 H                                       1.0882705
   513   6 C      515   1 H                                       1.0921792
   513   6 C      516   1 H                                       1.0931146
   517   8 O      518   1 H                                       0.9881209
   517   8 O      519   6 C                                       1.4198120
   519   6 C      520   1 H                                       1.0881783
   519   6 C      521   1 H                                       1.0895970
   519   6 C      522   1 H                                       1.0908371
   523   8 O      524   1 H                                       0.9829341
   523   8 O      525   6 C                                       1.4097515
   525   6 C      526   1 H                                       1.0895321
   525   6 C      527   1 H                                       1.0932136
   525   6 C      528   1 H                                       1.0935836
   529   8 O      530   1 H                                       0.9881737
   529   8 O      531   6 C                                       1.4063671
   531   6 C      532   1 H                                       1.0899554
   531   6 C      533   1 H                                       1.0930586
   531   6 C      534   1 H                                       1.0936669
   535   8 O      536   1 H                                       0.9800384
   535   8 O      537   6 C                                       1.4144640
   537   6 C      538   1 H                                       1.0874893
   537   6 C      539   1 H                                       1.0881670
   537   6 C      540   1 H                                       1.0933833
   541   8 O      542   1 H                                       0.9830962
   541   8 O      543   6 C                                       1.4163863
   543   6 C      544   1 H                                       1.0853914
   543   6 C      545   1 H                                       1.0924879
   543   6 C      546   1 H                                       1.0908659
   547   8 O      548   1 H                                       0.9947401
   547   8 O      549   6 C                                       1.4142285
   549   6 C      550   1 H                                       1.0894099
   549   6 C      551   1 H                                       1.0911811
   549   6 C      552   1 H                                       1.0932259
   553   8 O      554   1 H                                       0.9740112
   553   8 O      555   6 C                                       1.4095369
   555   6 C      556   1 H                                       1.0895261
   555   6 C      557   1 H                                       1.0932097
   555   6 C      558   1 H                                       1.0944761
   559   8 O      560   1 H                                       0.9732271
   559   8 O      561   6 C                                       1.4116833
   561   6 C      562   1 H                                       1.0889990
   561   6 C      563   1 H                                       1.0923315
   561   6 C      564   1 H                                       1.0929498
   565   8 O      566   1 H                                       0.9750800
   565   8 O      567   6 C                                       1.4101541
   567   6 C      568   1 H                                       1.0893017
   567   6 C      569   1 H                                       1.0930912
   567   6 C      570   1 H                                       1.0940068
   571   8 O      572   1 H                                       0.9864461
   571   8 O      573   6 C                                       1.4133357
   573   6 C      574   1 H                                       1.0898407
   573   6 C      575   1 H                                       1.0907314
   573   6 C      576   1 H                                       1.0943000
   577   8 O      578   1 H                                       0.9831337
   577   8 O      579   6 C                                       1.4110216
   579   6 C      580   1 H                                       1.0903785
   579   6 C      581   1 H                                       1.0935618
   579   6 C      582   1 H                                       1.0929682
   583   8 O      584   1 H                                       0.9757424
   583   8 O      585   6 C                                       1.4104776
   585   6 C      586   1 H                                       1.0908281
   585   6 C      587   1 H                                       1.0889527
   585   6 C      588   1 H                                       1.0912407
   589   8 O      590   1 H                                       0.9755187
   589   8 O      591   6 C                                       1.4047997
   591   6 C      592   1 H                                       1.0894347
   591   6 C      593   1 H                                       1.0952079
   591   6 C      594   1 H                                       1.0953814
   595   8 O      596   1 H                                       0.9865855
   595   8 O      597   6 C                                       1.4151504
   597   6 C      598   1 H                                       1.0899982
   597   6 C      599   1 H                                       1.0949116
   597   6 C      600   1 H                                       1.0902797
   601   8 O      602   1 H                                       0.9885550
   601   8 O      603   6 C                                       1.4077856
   603   6 C      604   1 H                                       1.0933699
   603   6 C      605   1 H                                       1.0899451
   603   6 C      606   1 H                                       1.0944179
   607   8 O      608   1 H                                       0.9789455
   607   8 O      609   6 C                                       1.4137103
   609   6 C      610   1 H                                       1.0896197
   609   6 C      611   1 H                                       1.0913071
   609   6 C      612   1 H                                       1.0944059
   613   8 O      614   1 H                                       0.9918596
   613   8 O      615   6 C                                       1.4146405
   615   6 C      616   1 H                                       1.0898259
   615   6 C      617   1 H                                       1.0924862
   615   6 C      618   1 H                                       1.0918318
   619   8 O      620   1 H                                       0.9840355
   619   8 O      621   6 C                                       1.4102273
   621   6 C      622   1 H                                       1.0894901
   621   6 C      623   1 H                                       1.0936781
   621   6 C      624   1 H                                       1.0927311
   625   8 O      626   1 H                                       0.9774367
   625   8 O      627   6 C                                       1.4071523
   627   6 C      628   1 H                                       1.0903561
   627   6 C      629   1 H                                       1.0941392
   627   6 C      630   1 H                                       1.0950677
   631   8 O      632   1 H                                       0.9791491
   631   8 O      633   6 C                                       1.4234231
   633   6 C      634   1 H                                       1.0886073
   633   6 C      635   1 H                                       1.0922629
   633   6 C      636   1 H                                       1.0908554
   637   8 O      638   1 H                                       0.9804805
   637   8 O      639   6 C                                       1.4143487
   639   6 C      640   1 H                                       1.0890333
   639   6 C      641   1 H                                       1.0933486
   639   6 C      642   1 H                                       1.0907313
   643   8 O      644   1 H                                       0.9785994
   643   8 O      645   6 C                                       1.4134962
   645   6 C      646   1 H                                       1.0893032
   645   6 C      647   1 H                                       1.0929748
   645   6 C      648   1 H                                       1.0921198
   649   8 O      650   1 H                                       0.9760805
   649   8 O      651   6 C                                       1.4047132
   651   6 C      652   1 H                                       1.0886025
   651   6 C      653   1 H                                       1.0957168
   651   6 C      654   1 H                                       1.0943657
   655   8 O      656   1 H                                       0.9748904
   655   8 O      657   6 C                                       1.4131521
   657   6 C      658   1 H                                       1.0887956
   657   6 C      659   1 H                                       1.0903711
   657   6 C      660   1 H                                       1.0925054
   661   8 O      662   1 H                                       0.9831350
   661   8 O      663   6 C                                       1.4185002
   663   6 C      664   1 H                                       1.0890376
   663   6 C      665   1 H                                       1.0901150
   663   6 C      666   1 H                                       1.0926666
   667   8 O      668   1 H                                       0.9807021
   667   8 O      669   6 C                                       1.4243703
   669   6 C      670   1 H                                       1.0879126
   669   6 C      671   1 H                                       1.0891403
   669   6 C      672   1 H                                       1.0905635
   673   8 O      674   1 H                                       0.9749623
   673   8 O      675   6 C                                       1.4100072
   675   6 C      676   1 H                                       1.0889925
   675   6 C      677   1 H                                       1.0949849
   675   6 C      678   1 H                                       1.0931520
   679   8 O      680   1 H                                       0.9841937
   679   8 O      681   6 C                                       1.4058336
   681   6 C      682   1 H                                       1.0896578
   681   6 C      683   1 H                                       1.0947019
   681   6 C      684   1 H                                       1.0939013
   685   8 O      686   1 H                                       0.9806912
   685   8 O      687   6 C                                       1.4202237
   687   6 C      688   1 H                                       1.0867262
   687   6 C      689   1 H                                       1.0898570
   687   6 C      690   1 H                                       1.0912765
   691   8 O      692   1 H                                       0.9740184
   691   8 O      693   6 C                                       1.4224500
   693   6 C      694   1 H                                       1.0887852
   693   6 C      695   1 H                                       1.0906485
   693   6 C      696   1 H                                       1.0896441
   697   8 O      698   1 H                                       0.9832188
   697   8 O      699   6 C                                       1.4114093
   699   6 C      700   1 H                                       1.0895868
   699   6 C      701   1 H                                       1.0915845
   699   6 C      702   1 H                                       1.0940864
   703   8 O      704   1 H                                       0.9908281
   703   8 O      705   6 C                                       1.4160462
   705   6 C      706   1 H                                       1.0895601
   705   6 C      707   1 H                                       1.0940793
   705   6 C      708   1 H                                       1.0908823
   709   8 O      710   1 H                                       0.9715085
   709   8 O      711   6 C                                       1.4056179
   711   6 C      712   1 H                                       1.0903220
   711   6 C      713   1 H                                       1.0958386
   711   6 C      714   1 H                                       1.0926233
   715   8 O      716   1 H                                       0.9800388
   715   8 O      717   6 C                                       1.4207673
   717   6 C      718   1 H                                       1.0871991
   717   6 C      719   1 H                                       1.0917231
   717   6 C      720   1 H                                       1.0909448
   721   8 O      722   1 H                                       0.9852793
   721   8 O      723   6 C                                       1.4200934
   723   6 C      724   1 H                                       1.0890809
   723   6 C      725   1 H                                       1.0918677
   723   6 C      726   1 H                                       1.0918558

 * 3 distinct bonds (by element types)

   Z      Z             #   av. dist./Å        max./Å        min./Å
   1 H    6 C         345     1.0911673     1.0967846     1.0844067
   1 H    8 O         139     0.9780530     0.9983973     0.9574212
   6 C    8 O         115     1.4137995     1.4258497     1.4017148


optimized geometry written to: xtbopt.xyz


           -------------------------------------------------
          | TOTAL ENERGY            -1008.644535247906 Eh   |
          | GRADIENT NORM               0.001002705282 Eh/α |
          | HOMO-LUMO GAP               9.466174562832 eV   |
           -------------------------------------------------

------------------------------------------------------------------------
 * finished run on 2022/02/14 at 09:14:55.100     
------------------------------------------------------------------------
 total:
 * wall-time:     0 d,  0 h, 45 min, 15.440 sec
 *  cpu-time:     0 d,  4 h, 19 min, 57.040 sec
 * ratio c/w:     5.744 speedup
 SCF:
 * wall-time:     0 d,  0 h,  0 min,  6.009 sec
 *  cpu-time:     0 d,  0 h,  0 min, 37.096 sec
 * ratio c/w:     6.173 speedup
 ANC optimizer:
 * wall-time:     0 d,  0 h, 45 min,  8.781 sec
 *  cpu-time:     0 d,  4 h, 19 min, 16.265 sec
 * ratio c/w:     5.743 speedup

normal termination of xtb
