726
 energy: -1008.644535247906 gnorm: 0.001002705282 xtb: 6.4.1 (afa7bdf)
O        -2.97503361537152    1.10661055032447    1.32546329956680
H        -2.45924232986072    1.55060203247424    2.01232757835752
H        -2.90604658540720    0.15700058091651    1.50815324694256
O         6.13315039154006    1.63961496191851    6.63234313621248
H         6.09418028096196    2.51281668154659    6.19716627150240
H         5.26754350181131    1.22569095559814    6.43021847229895
O         9.41781510141121    0.36284052935100    1.04347022977620
H        10.33147114705215    0.64185634317375    0.97124834874696
H         8.89127616605597    1.18049562447015    1.08618808442934
O         1.27766136815085    1.27330514803615   -1.95480144772776
H         0.45825387202622    1.38341601116897   -2.46709390566803
H         2.00967039285271    1.39622351177092   -2.57219431993466
O         1.24098874358268   -7.94015667618011  -10.98579523190397
H         0.48998986713440   -7.58176044349012  -10.47238545888461
H         1.03639505433337   -7.77116080910786  -11.90570677875511
O         3.09082923606896   -8.08941327908356    4.50210900273804
H         2.86378584270014   -8.53009794673984    3.67210281312534
H         2.26828475012618   -8.07370043116167    5.01364661701335
O         1.45979035570442    4.10369317058152    5.21290607101108
H         1.41674328967017    4.31380746628715    4.27138967126280
H         0.58399409735252    3.71869363474049    5.43956328961422
O        -2.89969203820821   -2.76851209643527    5.88529029947184
H        -2.75464115963837   -3.50982382693279    6.50274932097630
H        -2.05873569847157   -2.26256646471186    5.88630141036359
O         6.69182070473125   -5.53537665317840    0.14432555709781
H         6.71134339757549   -6.08000766866911   -0.66192216183153
H         7.58704208919872   -5.18950802880002    0.25819554785020
O         0.71277677496534   -7.65581708739426    6.04724797003316
H         0.90339964969536   -6.69519021875276    6.00276534588357
H         0.98549336572804   -7.94103522989073    6.91986127507690
O         4.47589871374353    2.58325895635583    8.84425113703126
H         5.20810529768567    2.28973536093553    8.28846989350215
H         3.82871729233728    1.86240499392378    8.82976060134667
O         2.05486299828939    0.79177792229160    0.67977368146976
H         1.61718492454014    0.59624861509505   -0.15854727288656
H         2.81117644917971    1.33724282110691    0.42770040298192
O        -1.99547107125835   -9.70154262078452   -3.25392918144308
H        -1.57384530339642  -10.11919076754270   -4.02954317729702
C        -3.37438213954034   -9.53779985214923   -3.53151683637112
H        -3.80342719786572   -8.97410557980882   -2.70473352434100
H        -3.87608697300973  -10.50812973712266   -3.60239650436650
H        -3.52691265666176   -8.98560074950163   -4.45920863990367
O         3.64934143735519    6.72052633729315   -0.46681018531921
H         3.99448679329887    7.62922422907526   -0.32046720064546
C         2.26059205727186    6.74055062822855   -0.16914339188892
H         1.88276813572704    5.73175704995381   -0.32369358048059
H         1.73083978098207    7.43277033667354   -0.82823743962949
H         2.09046927628542    7.04315733606993    0.86378450968796
O        -1.93205466999192   -3.41575713972557   -6.70500895439685
H        -2.57997076514707   -3.63222940540396   -6.00698672218184
C        -1.88286741964198   -2.00736966578813   -6.82987913463885
H        -1.23262987379914   -1.78253043999729   -7.67227026939843
H        -1.47738683346567   -1.54459871295387   -5.92765086705622
H        -2.87146011502436   -1.59233166422897   -7.02048760470181
O        -4.80424268547903   -4.31990124607492   -9.26853185640237
H        -5.07822729887511   -3.81547867731072   -8.47595285136082
C        -3.50756682248453   -3.88733085520204   -9.62740301305385
H        -3.16560989222738   -4.53223045887270  -10.43596759985996
H        -2.81892905316955   -3.96418274133633   -8.78456295531827
H        -3.52966271966928   -2.85261609093142   -9.98255751470863
O         5.85763756097020    1.80696341405586    2.70996197305493
H         6.38600976995319    1.40718350272087    3.43209139268369
C         5.38636786087052    0.72344978635346    1.91335440032217
H         4.95827311974433    1.14521262231637    1.00926899892855
H         4.62022864683106    0.16073896256229    2.44817254653660
H         6.20829026638162    0.06113270973032    1.64196585629297
O         0.77442058956384    4.74934458440184   -8.36263863579636
H         1.15550673264377    3.91860062868462   -7.98510972563114
C         1.80126401369268    5.44917420861612   -9.01966773000488
H         1.36077992791531    6.34958240241797   -9.44772260779105
H         2.23492548483960    4.85068406816003   -9.82532609089748
H         2.59824790275958    5.73470128425960   -8.32554510333905
O        -4.08263307055309    4.69211781872157   -6.20597361599455
H        -3.45846292016895    3.94976775880258   -6.36788126892469
C        -3.80244158065397    5.68863953076726   -7.16570870152532
H        -4.50744311572375    6.50465358030224   -7.00838251329813
H        -3.92787722717628    5.30501135018366   -8.18241953639824
H        -2.78357155959057    6.06210489716472   -7.04482477671114
O        -4.14306156962127    2.38028043693445    7.50057311355820
H        -4.46548753309189    2.05537683365767    8.35121174459332
C        -3.81549105998883    3.75783611177657    7.61411144978361
H        -3.20306103668429    4.00936927904002    6.75093903262105
H        -3.23683099581418    3.94800550117541    8.51907373985465
H        -4.71829911476837    4.37226361961678    7.61758843096218
O        -6.83245684730515    4.62421339174057   -1.52971769734739
H        -6.85633875527274    5.52990146508960   -1.15532353994158
C        -8.01687106865039    3.96682257021344   -1.15808910152024
H        -7.94671139284912    2.94105619148781   -1.51753678448482
H        -8.89456984109262    4.44661910182098   -1.60455073955023
H        -8.14208987278098    3.94954432998214   -0.06937713910306
O        -3.19541900304311   -8.26579385132660    4.14455693698092
H        -3.61923732152718   -7.41248785710368    4.35456462322408
C        -2.54987630985640   -8.76953075534802    5.29565388628337
H        -2.22606456193393   -9.78228857441613    5.06088437896074
H        -3.23054405929559   -8.80234941617603    6.15036108994439
H        -1.66972496648099   -8.17392810455102    5.54936871430484
O         5.81016966293893    3.80416682228451    5.01267595262257
H         5.49105164286995    3.51327660199405    4.14774283735622
C         4.88770514702018    4.72193312504400    5.58556133951394
H         5.21721800484873    4.89598944248853    6.60720824116387
H         3.87520664968984    4.31546396606343    5.60505039174062
H         4.89320426457450    5.67121123255821    5.04593158592204
O         5.18948594002278   -7.86680763758918   -4.23918722606385
H         4.34912660358445   -8.33382271382195   -4.40308889085705
C         5.37481885622246   -6.92274367399841   -5.27267051586759
H         6.21609916484198   -6.29300027341399   -4.98609128638750
H         4.48986575812477   -6.29889478158744   -5.40738620172913
H         5.61350770909371   -7.42316232671180   -6.21722022383083
O        -8.47344654411357   -1.44692476106539    4.87516282483784
H        -7.89294898181151   -1.93458966137976    5.46951948719790
C        -8.33776713944030   -0.06088254845623    5.13910167001099
H        -9.00940147230690    0.45098430034149    4.45247318140853
H        -7.31494335587108    0.28293509505314    4.96927904562146
H        -8.62959400132030    0.17350296530575    6.16525953569187
O         3.53833594816211    4.51409238513282   -4.55766022952533
H         3.82792380911153    5.24363597799780   -3.97568223111266
C         4.32443356433307    4.54653029309843   -5.73365506091516
H         3.95380541508136    3.75787418633330   -6.38705970350567
H         5.38043414435140    4.37877809236338   -5.51017880070276
H         4.22035456319013    5.50842581973280   -6.24403148500377
O         1.79336788927101   -8.88001422929620    2.07028783546901
H         2.01628347119592   -8.00073830219340    1.68771580104007
C         0.47454223879151   -8.83084522072245    2.58056697745604
H         0.21421785363197   -9.84177946635631    2.89271481368719
H        -0.22700510567436   -8.49239725164280    1.81970401480277
H         0.41390309326370   -8.17135383586091    3.44914419530683
O        -4.08684712821444   -1.15465280669167    7.74844900609477
H        -3.66647214619829   -1.68635200112127    7.03922248444464
C        -5.47567282486137   -1.12555197765764    7.50587386365962
H        -5.94770394643776   -0.67200809517011    8.37700384965576
H        -5.87092477759903   -2.13525700862123    7.36763506150689
H        -5.70399483693186   -0.51954183564434    6.62526410801348
O         1.33240308882970   -4.99964263475249    5.84171213587576
H         0.83254246577676   -4.85624326400845    5.00398298677850
C         2.71586562796248   -4.90883723485421    5.55375920007896
H         3.23985498286254   -4.92993981246209    6.50986611752964
H         2.94216497421173   -3.97646614666417    5.03370822645040
H         3.05128023293854   -5.75393253560523    4.94914611805863
O        -6.44839082873759    5.39244898791816    6.52381868881281
H        -6.23192242582189    4.89923855613918    5.70935609590832
C        -7.06987217634402    6.59624294758306    6.16403352947275
H        -7.23243855796888    7.16125582770938    7.08155205379369
H        -8.04031541777665    6.42274640925091    5.68356298148831
H        -6.44313875464735    7.18835968072392    5.48862605476619
O         5.63291376301359   -3.09781291693575    0.51102734003148
H         5.95005346048286   -3.97858168061711    0.20942588409526
C         5.93505808712755   -3.01062162012011    1.88556474508001
H         5.37575173052590   -2.17297126704359    2.29297817885452
H         7.00518569005177   -2.83753483214679    2.03320091736219
H         5.64640358489156   -3.92236304762329    2.41169476237391
O        -0.84342424154662   -7.09205320176737   -9.40412068945815
H        -0.83728917210249   -7.85264209495506   -8.79686715906242
C        -0.43848970379342   -5.94345639128195   -8.67361112392848
H        -0.36302563384127   -5.12636229870035   -9.38965332902698
H         0.53074111196466   -6.11043558877046   -8.20189348870923
H        -1.17072999905330   -5.68244593276848   -7.90890801007842
O        -0.74058855418312    4.64895949931803   -3.82542531452327
H        -0.79725273945921    5.06027705344076   -4.71288466857138
C         0.37229187719299    5.21336043196457   -3.15325550915688
H         0.46701301988328    4.70804526744885   -2.19535030290802
H         0.21622972310775    6.28202631952742   -2.98083557884453
H         1.29019925643629    5.06553949365500   -3.72325421717121
O         4.08656152725404    2.22221084923958   -0.69911261858614
H         3.81456688808856    2.05287240622692   -1.61929305801684
C         4.88269331007014    3.39301051953628   -0.70975454713625
H         5.30849611237669    3.50168197167658    0.28538321957572
H         4.27748833986718    4.27376042301954   -0.93811339224214
H         5.69000744112157    3.30514016914744   -1.43621426520038
O        -2.66999137624627   -4.58626488782034   -2.49400986272743
H        -3.08745792234874   -4.21958812950112   -1.68736493442514
C        -2.72332376210039   -6.00070972854249   -2.38958269574854
H        -2.37343568120126   -6.39897908105105   -3.33588688272085
H        -3.74408724516079   -6.34141650341245   -2.20683599886346
H        -2.07289304970301   -6.35234586868962   -1.58954409185040
O        -3.88724659901926   -3.55932027018735   -4.68650683713669
H        -3.42641156137284   -4.15191175945521   -4.05325903495244
C        -4.01296928970976   -2.31974132944081   -4.00036693662797
H        -4.51413778118949   -1.61445152088212   -4.65863458673318
H        -3.03123248157889   -1.93463578060310   -3.72787306306452
H        -4.60285233847729   -2.45213657084614   -3.09335435732590
O         6.95279962406382    6.84548574782662   -3.09306774898551
H         5.97637271238613    6.82162194728662   -3.14908876898574
C         7.31518721419137    6.38412171424705   -1.80554449298209
H         8.39381516266282    6.50709978445380   -1.71473665076025
H         7.05338855532665    5.33193689356558   -1.67691833256807
H         6.82445655297161    6.96996081855569   -1.02604593925814
O        -4.95545169748781   -6.93826450163712   -8.53067036963111
H        -4.92699579119549   -5.99471546578216   -8.80776308180602
C        -4.23804965316268   -7.69371500340155   -9.48067946711351
H        -4.25744067733681   -8.73154425029215   -9.14883951273698
H        -3.19999071892539   -7.36080472406432   -9.55791663220879
H        -4.70801345049022   -7.62903178317999  -10.46624034234608
O        -0.77371276678265   -1.30271707463237    6.50328377659992
H        -0.88781123979361   -1.44835832330692    7.45991135163961
C         0.57606619260294   -1.57721093431829    6.16693511036125
H         0.69701458636259   -1.34118460422262    5.11152361739931
H         0.80956155692626   -2.63233882552481    6.32887693927174
H         1.24751154782088   -0.95694560567438    6.76203624629062
O         0.51792610681853   -4.02763610127222   -5.67715650850113
H        -0.37382697992375   -4.01118527069008   -6.09102735788473
C         0.33738924547933   -4.13939633894877   -4.26829183110278
H         1.30218332145805   -4.38834202367689   -3.83091349503824
H        -0.38557981580382   -4.91973034310873   -4.04338975375825
H        -0.01737478973296   -3.19517782011143   -3.85167586300161
O        -6.38787136360999   -8.25241224270376    1.01260871465568
H        -5.77523803836618   -8.83028297375075    1.52046066592111
C        -7.68693829999012   -8.77108312788803    1.16432743095344
H        -8.37569377646482   -8.07879794000093    0.68069994772553
H        -7.95577560934746   -8.85945062913457    2.21999453117443
H        -7.78031775938347   -9.75446643593220    0.69255338882175
O         7.29623432650008    0.45753115150106    4.59375764434230
H         7.02106142375479    0.87484975458878    5.45800424469116
C         8.70002004251473    0.50126135183662    4.45073759513252
H         8.93404492910369    0.12354866172691    3.45554357644525
H         9.18766633883686   -0.12529859351053    5.20164525644421
H         9.06917914260597    1.52493628519731    4.54589776385719
O        -3.12202597699738   -1.79632284601292   10.97180658528873
H        -3.46607837076641   -0.91163395272295   10.72913839020000
C        -4.14051734847908   -2.74404676631272   10.73775263819410
H        -3.73376330234601   -3.72365061540082   10.98532023138993
H        -4.44613231408729   -2.73679609127375    9.69030493286112
H        -5.00950955370252   -2.55137114831567   11.37261745241861
O         1.67484908733582    8.09849095125317    2.93176227467039
H         0.98664580422760    8.76582488722184    3.13419515379375
C         1.79035609762994    7.24302221903133    4.05877115529351
H         2.25578446207642    7.75818748867174    4.90243666314038
H         2.42568585966515    6.41309543777468    3.76175216005401
H         0.81421756189955    6.85888575684687    4.35614885096860
O        -0.97645025135721  -10.83961402859430   -5.61273180408169
H        -0.72375404616618  -10.28503430739536   -6.38068098273226
C        -1.92559771249704  -11.78289581168079   -6.05338379415703
H        -2.18583101952894  -12.40580378307189   -5.19812403415653
H        -1.51463838416205  -12.42134629790131   -6.84052012387814
H        -2.82853988799625  -11.29155414200687   -6.42840702825962
O         0.23926980146981    3.44150985305314    9.38362955371173
H         0.57776417060845    4.03161361329868    8.68084134668082
C        -0.14231753405630    4.24364075592634   10.47228653095771
H        -0.49181099171946    3.57790694309542   11.26052371888710
H        -0.95577995894229    4.92462156018268   10.20041894531015
H         0.69983931711306    4.83251423589249   10.84913407722855
O        -2.73459617517385   -1.64182130990978    1.92779754546914
H        -3.40718288022804   -2.21189995030532    2.33085082795305
C        -1.58038047233872   -1.68591934272144    2.74954777085272
H        -0.78595637093400   -1.16412812864924    2.22218575933386
H        -1.26249911657567   -2.70999957653607    2.93501083360659
H        -1.76581482568714   -1.18890171523150    3.70584574141114
O        -1.24387325360168   -1.87272955021566   -2.29634732539628
H        -1.43390832419228   -2.80367996292419   -2.12171695672932
C        -0.96386598375834   -1.21792233910581   -1.07154763105134
H        -0.97311035706238   -0.15020859915792   -1.27889593617600
H         0.02214119687457   -1.50373497979361   -0.69734991594957
H        -1.71677739231262   -1.44427686105900   -0.31733573109219
O        -2.09708353032192    6.08498919898208    4.80996591259560
H        -1.81777057276739    5.70613890630677    3.95607707628511
C        -3.49199224243587    6.26543853233433    4.75559989146286
H        -3.81176244137051    6.58910806241689    5.74471392235145
H        -4.01004929746592    5.33811018995898    4.49990493756965
H        -3.76243076944981    7.03597452317740    4.02342932833095
O         6.92350554598523   -0.99946206535216   -2.57943237991468
H         7.34351392224502   -1.87869904692964   -2.51759781748301
C         6.83988271665079   -0.47927410966732   -1.26085720001021
H         6.33021365697330    0.47851396142843   -1.32673549297976
H         7.83488296076600   -0.32799541295749   -0.83564192110876
H         6.27398241950338   -1.15707598170890   -0.62185953340931
O        -1.67507784485712   -7.50933257788324    0.34787822522288
H        -1.66874239836037   -8.44568758732476    0.06184839377300
C        -2.92470004555526   -7.22720856333421    0.94835482238331
H        -2.98755475229340   -6.14642014855660    1.06014488670357
H        -2.99478121050313   -7.69448924613850    1.93303290408020
H        -3.74861659514767   -7.56782827645511    0.31992975804787
O         0.06561320412026   -5.44234729952284    1.06629731972458
H        -0.48325410844102   -6.20299209668719    0.80990974638203
C        -0.22814012145773   -4.36515789088576    0.19706643436515
H         0.40421696594429   -3.53660500603706    0.50701380314318
H        -1.27863472073602   -4.07134145256039    0.27521434890098
H         0.00854894746465   -4.62877240648675   -0.83486830171583
O        -7.43207846867484   -1.81802087673647   -1.45482608459006
H        -6.49566495061864   -1.58680190451208   -1.24313392903415
C        -7.48718221313882   -2.30730646283853   -2.78088777477687
H        -8.53814253018843   -2.41968794792882   -3.04355666169488
H        -6.99746864118886   -3.28203341720777   -2.85357173348976
H        -7.01500117217224   -1.61180778591541   -3.47517277538537
O        -2.42035521886324    2.62261216640962   -6.83202995064042
H        -3.00190617179656    1.83899599615779   -6.72997226656257
C        -1.90383201165716    2.60129842798149   -8.14833607053224
H        -1.29617021014104    3.49589757788748   -8.27678833914603
H        -2.70936986613834    2.60854211536395   -8.88849195259557
H        -1.28406638346395    1.71495506707357   -8.30260400563166
O         3.12149819257646   -2.55456904273088   -0.42129254588838
H         4.00821965508486   -2.73874973104221   -0.04560646055978
C         3.28016865633921   -1.62044341939213   -1.47206235083873
H         2.28608423475472   -1.40329932302154   -1.85855236448922
H         3.89778384465236   -2.03390086014058   -2.27254609383809
H         3.73156082197634   -0.69772862923577   -1.10330209301970
O        -1.34337147947284    2.54571743417497    3.15518407553510
H        -1.20525549854929    3.41179259349781    2.73245527740967
C        -0.14943696307002    1.77347899028853    3.04928051750341
H        -0.32453129982807    0.83974638339706    3.57647166440762
H         0.69404539957382    2.29095014799132    3.49952180300638
H         0.09210716596495    1.55135546070326    2.01208761678239
O        -0.51856320047480    5.93825089586503   -6.25188017830178
H        -0.09740908331999    5.47161182065505   -7.00665687815734
C         0.03924482252892    7.22592938295838   -6.15682994848712
H        -0.48923831477804    7.75131308377013   -5.36160713679907
H        -0.08502288554471    7.78395528647913   -7.08896471856793
H         1.10594604043905    7.18099750666584   -5.91182940779752
O         1.57193787877676   -1.56942971121628   -6.22181913466334
H         1.16515831891983   -2.44938313666508   -6.06095983935532
C         1.93015172038970   -1.02972369937476   -4.96139364375216
H         2.44715356496065   -0.09164979571091   -5.15035030310826
H         2.60230049166555   -1.70432271391661   -4.43139711172404
H         1.04460138907367   -0.84232704175364   -4.34880950184291
O         2.66648493313290   -9.87399701335859   -0.36267360915745
H         2.28470081327076   -9.63722272951285    0.50755676578409
C         4.04932276679941   -9.57628097364283   -0.30577463492616
H         4.46666503470681   -9.79019427132245   -1.28891143077264
H         4.54939168038968  -10.19820772067960    0.44052800798760
H         4.20990404523064   -8.52412860346140   -0.06550066494105
O         1.56368456704706   -0.83489574293778    2.87987158007732
H         1.80774815279210   -0.26832795836556    2.12537909721712
C         2.16117384274888   -2.10586020532997    2.70623427773091
H         1.52079720799420   -2.83887052256477    3.19691343417195
H         3.15423488832038   -2.12848767910105    3.16980239405914
H         2.25777962945258   -2.36138714696408    1.65223926473276
O        -4.76074798433640   -5.94589248721618    4.44441273205316
H        -4.49284090686134   -5.07277336252999    4.07600533938823
C        -5.88087971285664   -6.40591525675431    3.70665199730556
H        -6.14852266435465   -7.38358996945994    4.10312843580218
H        -5.64093371822680   -6.50640282395140    2.64705702441492
H        -6.73017630765622   -5.72913519773671    3.82827934701246
O        -1.75199942068460  -10.10803311710500   -0.54232349630288
H        -1.85488425037144   -9.97463776691632   -1.50654796970615
C        -0.67165433992889  -10.99372260375871   -0.33688621654905
H        -0.57385379651679  -11.13701546103785    0.73766956486827
H         0.26255086141144  -10.58694354519193   -0.72937808371655
H        -0.86638484110578  -11.96148055354191   -0.80651455366920
O        10.18050449159604   -6.63818744611678   -0.20628471895373
H         9.88418372544110   -5.71328757785127   -0.12442109723144
C         9.87631416149072   -7.29840957046820    0.99728296315773
H        10.20097208651723   -8.33219794770818    0.88581833963083
H         8.80162285386973   -7.28419552331763    1.20489734317654
H        10.40715220003600   -6.85151174454603    1.84515283543675
O         0.64884517632571    3.39832761038159   -0.27049002865442
H         1.11098768399534    2.68232113807571   -0.74925610234926
C        -0.72949645540088    3.06434073686408   -0.30508920359921
H        -1.25989934264684    3.82926206991791    0.25124343322985
H        -0.91427759258786    2.09098310284624    0.15039278298427
H        -1.09774160131005    3.03633590638678   -1.33048922572995
O        -0.19075286114165   -4.71757332555795    3.63342489666008
H         0.05664138956362   -4.95287257232164    2.70856462021781
C        -1.40944204656099   -5.37757889064732    3.90975234766585
H        -1.67942404698169   -5.14695092585386    4.93804515901512
H        -1.30200001903788   -6.45721763260248    3.79475351628720
H        -2.20033836376707   -5.02574170836173    3.24369668720747
O         1.89804306203453   -7.98025651506717   -7.20152338468602
H         2.20667556202157   -8.20678255711776   -6.30042977568059
C         3.00153845065568   -7.99615805817596   -8.08592264393002
H         2.61122236705222   -7.89464458848375   -9.09777421213563
H         3.55645767867234   -8.93551025089029   -8.01112365759741
H         3.67421236880011   -7.16360599484882   -7.87071886279027
O        -6.93499873212064    7.10524124247311   -0.30370605655980
H        -6.17276383607825    7.70702978732733   -0.45793287781323
C        -7.07926103923199    6.95027940822667    1.08857207712149
H        -7.97969045404142    6.35902889944356    1.25737479868434
H        -7.19678121251185    7.91794528616374    1.58429518349105
H        -6.21983926481358    6.42966675940744    1.52122699976792
O         7.97310407831222    2.73160016893634    1.26292597682173
H         7.13815468140418    2.44444921366946    1.69428954367329
C         8.30426343293673    4.00480105637388    1.76017170434707
H         9.26785252523893    4.27973537566279    1.33270016666973
H         8.38313713763902    4.00045952376396    2.85131055285355
H         7.56073059574394    4.74959750365940    1.46048000777031
O         4.34515900418720   -3.24869120752079   -4.60193499000811
H         3.91015079531305   -3.81949344921739   -5.26571943015366
C         5.36138361315893   -2.51749126082491   -5.23602599597650
H         5.83559509446207   -1.90307223257128   -4.47180770823440
H         4.95663913807959   -1.86526816702428   -6.01819294471042
H         6.11028263692025   -3.18020927638989   -5.68441109596618
O        -1.86285045671269   -6.17596749727427   -5.61429278835087
H        -2.77573179500929   -6.51769448784019   -5.67346681891641
C        -0.99970484790888   -7.29241240539750   -5.59308584603404
H         0.01521063717902   -6.92480724566533   -5.72958493054999
H        -1.24045459644299   -7.98677871667231   -6.39914001700707
H        -1.06090330269559   -7.82414238175294   -4.63955080256853
O        -6.02668680998925    0.21957836195691   -4.78337621645561
H        -6.86398065847696   -0.05465265542918   -5.21968927341292
C        -6.28664322903825    1.45091842388416   -4.13046545677373
H        -5.34813331080034    1.79560176952899   -3.70400345266511
H        -7.01464685671477    1.31382819112196   -3.32791714532275
H        -6.65136761945399    2.19684854886336   -4.83773074070943
O         8.60973281956370   -3.20196106345292   -2.44753343506164
H         9.37994057826396   -2.68296201877026   -2.78315447719175
C         8.42931745074189   -4.33353403540404   -3.28053201744959
H         7.56907284383919   -4.88294710958855   -2.90217421279416
H         9.30837959255293   -4.98065445563647   -3.25138426676054
H         8.24248625565317   -4.02501326518168   -4.31117225091812
O        -1.00562554015272    1.83983248927065   -3.37798456927480
H        -1.02078904167076    2.71406961757275   -3.80016611358294
C        -1.62689672558250    0.87885936611534   -4.20935692593459
H        -1.52398393981628   -0.07801400620407   -3.70246624521759
H        -1.14859216117064    0.83142735148676   -5.18860352059020
H        -2.68648941501547    1.10210568813392   -4.34641530817592
O         0.60763462162016    0.16103224488483   -8.04309420508772
H         0.90209690876643   -0.45711874745337   -7.33234428680573
C         1.08059015087063   -0.33710808666129   -9.27072871034965
H         0.75503018384074    0.35265997386264  -10.04907979619399
H         0.67001529753851   -1.32904879546195   -9.47928497671931
H         2.17296907550035   -0.39807333011489   -9.28154071330965
O         2.69636492500539   -6.68561558911790    0.82463056817660
H         2.48805531844385   -6.15891116047930    0.02199591031261
C         3.55924758389301   -5.92115878118082    1.63991368221200
H         3.68835693296411   -6.46118232702398    2.57730720918457
H         3.13175227138135   -4.93689144806828    1.84629479991248
H         4.53705140983782   -5.80598364636823    1.16614058839796
O        -8.50249521332067   -0.29235965363178   -5.75707632341623
H        -9.06046292219392    0.07503895643692   -5.03588100122676
C        -8.74413940055882    0.45467507901632   -6.93004550433144
H        -8.16727511585738   -0.00987471933418   -7.72896298263361
H        -8.42543442724783    1.49537589158143   -6.81461478283990
H        -9.80300144789876    0.43159933197556   -7.19918542042268
O        -4.14496341167696    0.50353020864889   -6.72837032314302
H        -4.77221502033404    0.43284941488321   -5.97585844938342
C        -4.86904028066720    0.24655530455894   -7.91270185987877
H        -4.15763284703167    0.26762491321691   -8.73792369943025
H        -5.63492524697687    1.01062388991766   -8.07928545326354
H        -5.33890421118994   -0.73876138016692   -7.87500227432557
O        -2.23422059353666   -4.43627426436528    7.93454245983187
H        -1.86384087871638   -3.66736700663666    8.42094548205463
C        -1.25217523701465   -5.45120949762213    7.91156056276177
H        -1.67183207180871   -6.29381679441195    7.36377647896994
H        -1.00498407139280   -5.77665309749721    8.92597487336802
H        -0.34384248030857   -5.11012610866665    7.41007948554884
O         3.54095118368114    1.98373883889984   -3.43896173856948
H         3.50617951356085    2.88151073400662   -3.82935233786060
C         4.69121392107785    1.32261954859821   -3.94454843017404
H         4.69047268057128    0.31659647299311   -3.53074501259580
H         5.60071495153902    1.84262523591989   -3.63743579745379
H         4.65548358737003    1.26463374778049   -5.03473754925928
O        -6.01963423323510    3.94734010281185    4.14265524305545
H        -5.74451367390738    3.03696920152020    4.39598056879806
C        -7.31710973232398    3.90505963187249    3.59820217626360
H        -7.64153873310064    4.93658421367035    3.46269223138620
H        -8.01527694620339    3.39525157042058    4.26882774657411
H        -7.32153252815901    3.40506044221403    2.62558552884417
O        -3.68659257589844    0.63507200750710    9.81646367974075
H        -3.59347850983595    0.13435436859703    8.98339530874479