42
Energy:   -217.11910474
O    0.68481662   1.50371944   1.23258498
H    0.69597833   1.69549635   0.28310075
C   -0.41779680   2.19423564   1.79823928
H   -0.41544855   1.96724911   2.86779844
H   -1.38340479   1.86702316   1.38193345
H   -0.34105555   3.28653580   1.68090013
O    1.07250949  -0.89274158  -2.17906103
H    0.23428899  -1.34895558  -2.01269262
C    2.03408969  -1.41663045  -1.27715321
H    2.97202135  -0.89188898  -1.47819000
H    2.20848872  -2.49452738  -1.42033328
H    1.76609582  -1.24502087  -0.22287299
O   -2.03683544   2.59674565  -1.20954708
H   -1.10792988   2.37577904  -1.37304474
C   -2.68420704   2.69355981  -2.46814583
H   -3.72930559   2.94294476  -2.26550979
H   -2.66202993   1.74763494  -3.03162754
H   -2.26106184   3.48684845  -3.10408499
O    0.65078284   1.79504508  -1.59209494
H    0.85070250   0.89580147  -1.89178867
C    1.57257746   2.67254134  -2.21885548
H    1.33320352   3.68085306  -1.87029731
H    1.49005232   2.66237117  -3.31697365
H    2.61762803   2.45645009  -1.94691574
O   -0.18860231  -3.11849215   1.15870582
H    0.26834939  -2.44144468   1.67949861
C   -0.91076845  -3.94108762   2.06111734
H   -1.41938189  -4.69804877   1.45795285
H   -1.67502431  -3.38425769   2.62559118
H   -0.25718023  -4.45981488   2.77981185
O    1.04282863  -0.97883178   2.47638553
H    0.91828993  -0.09125095   2.10880745
C    2.26844771  -0.98077162   3.19079989
H    2.39305937  -1.98777173   3.59811784
H    2.27165848  -0.26960340   4.03163684
H    3.13568035  -0.76278832   2.54801830
O   -1.32006176  -2.02283925  -1.17804104
H   -1.01200470  -2.52134049  -0.40666523
C   -2.01808868  -0.88279824  -0.70306872
H   -2.35809873  -0.33273310  -1.58471871
H   -1.38032894  -0.21154735  -0.10686230
H   -2.90293415  -1.14564749  -0.10245562
