42
Energy:   -217.82952802
O    1.93950979   1.94514044   1.96532579
H    1.01129281   2.15939105   1.78944748
C    2.31805945   2.61665452   3.15625096
H    3.36603676   2.36442862   3.33958358
H    1.73138963   2.29465336   4.03084293
H    2.24056587   3.71178956   3.06993000
O    0.31744677  -1.80136168  -3.39715536
H    0.88909882  -1.40329419  -2.72396929
C    1.15303574  -2.31820597  -4.42048172
H    0.49307743  -2.76280635  -5.17032886
H    1.83452560  -3.10322827  -4.05704137
H    1.75346830  -1.53789977  -4.91381760
O   -1.69773513  -1.96196956  -1.40662464
H   -1.16642948  -1.92254567  -2.21568789
C   -1.19119843  -3.02107779  -0.61023020
H   -1.80090071  -3.05138740   0.29686938
H   -0.14273346  -2.86480154  -0.31177371
H   -1.26880594  -4.00105113  -1.10662386
O    2.06287328  -0.84949117   1.55630430
H    2.17664488   0.09313825   1.74847366
C    0.85587670  -1.27143363   2.17084282
H    0.74322757  -2.33517213   1.94444545
H   -0.02779763  -0.74362491   1.77928825
H    0.87302714  -1.15540728   3.26584103
O    1.74440819  -0.65723480  -1.27016992
H    1.94298631  -0.85296868  -0.34244245
C    1.23888354   0.66683054  -1.33205366
H    1.02046459   0.87087809  -2.38378697
H    1.96612064   1.41642634  -0.98275483
H    0.30698705   0.79342839  -0.75906218
O   -0.77325635   2.29992820   1.37836981
H   -1.32609370   1.56395382   1.07648265
C   -1.10018927   3.43457271   0.59209348
H   -0.46850297   4.25414226   0.94531206
H   -2.15188768   3.74122413   0.70466658
H   -0.89523363   3.28289596  -0.47924432
O   -2.24431994   0.14045166   0.36987027
H   -2.06938254  -0.57631276  -0.25787885
C   -3.63137425   0.12336531   0.66706071
H   -3.81096905   0.93682052   1.37524256
H   -3.95349230  -0.81784761   1.13943293
H   -4.25870441   0.29900857  -0.22084900
