27
Energy:   -105.10007433
O    2.10709073  -0.95114734   0.54875316
H    1.25077269  -1.35945131   0.42132033
H    1.93548264  -0.01112761   0.49266926
C    2.02572083  -0.20537616  -2.78076182
H    2.58113907   0.66946263  -2.51417629
H    2.39719879  -0.59576901  -3.70515169
H    2.13256845  -0.94330087  -2.01333117
C    0.53789982   0.15944444  -2.93854203
N   -0.56985054   0.43106996  -3.05601656
C   -1.50244183   2.23022720  -0.09217913
H   -2.07756774   1.54188585   0.49118744
H   -1.75179199   2.11642721  -1.12647752
H   -1.72016501   3.23048631   0.21923283
C   -0.00245132   1.94508518   0.10862552
N    1.11435979   1.73278398   0.25813371
C   -2.84160997  -1.47713861  -1.39142452
H   -2.96786562  -0.44039838  -1.62408175
H   -3.66586661  -1.81225884  -0.79712283
H   -2.80192964  -2.04389188  -2.29813026
C   -1.53069046  -1.67124625  -0.60694236
N   -0.55465130  -1.81576820  -0.02285972
C    1.13808589  -0.08693023   3.82534517
H    1.64127908   0.81939078   4.09044706
H    1.68805953  -0.58852407   3.05668939
H    1.06772270  -0.72034939   4.68483820
C   -0.27641921   0.24221585   3.31305795
N   -1.32958255   0.48728007   2.93163683
