27
Energy:   -106.59206013
O   -0.34801428  -0.58171618   1.89421644
H    0.42698455  -0.28864300   1.41492865
H   -0.81491886   0.22504895   2.11184450
C    0.07065932   3.80037319   0.32477544
H    0.24953069   4.70966448   0.85965352
H   -0.47765708   4.01418242  -0.56883176
H    1.00559521   3.34682511   0.06965171
C   -0.74322625   2.83671645   1.20826623
N   -1.34920105   2.11923021   1.86606529
C    1.96342147   0.23862027  -2.35101504
H    1.51737516   1.09817021  -2.80611589
H    1.44061132  -0.64151549  -2.66235036
H    2.98863774   0.16873570  -2.64925460
C    1.88230531   0.36883025  -0.81867516
N    1.82191065   0.46577750   0.32222154
C    0.92900023  -3.72901424   1.24785028
H   -0.00612854  -4.04179090   1.66330801
H    1.34393735  -2.94852408   1.85081080
H    1.60418389  -4.55875672   1.22432309
C    0.70592721  -3.20796221  -0.18405167
N    0.53983920  -2.82001529  -1.25016776
C   -2.70369859  -0.36825190  -0.50862239
H   -2.90542873   0.00753860   0.47269643
H   -2.18301560  -1.30000884  -0.43367354
H   -3.62601818  -0.51605745  -1.03052197
C   -1.83529995   0.64465548  -1.27771435
N   -1.18873769   1.39881106  -1.85033828
