27
Energy:   -105.70602601
O   -0.26450816  -1.72409218   0.56912883
H   -0.86206648  -1.00677607   0.35790975
H   -0.09816514  -2.15294167  -0.27030548
C   -0.97279153  -1.13281079   3.65535315
H   -1.12285400  -1.22261244   4.71096535
H   -0.45418510  -1.99620044   3.29409871
H   -1.92098338  -1.05542458   3.16561579
C   -0.13853041   0.12769608   3.36085222
N    0.48261491   1.06620075   3.14158289
C   -0.61367704   2.99090536   0.08456209
H   -1.36194704   3.75506912   0.11690330
H    0.06854612   3.19334286  -0.71449341
H   -0.08114612   2.97367492   1.01246996
C   -1.28506663   1.62451865  -0.14743655
N   -1.78494669   0.60718163  -0.32017009
C   -0.84079043  -0.46137883  -3.81471187
H   -1.49575390   0.16714936  -3.24825328
H   -1.39016285  -0.92873795  -4.60506907
H   -0.05082957   0.12888320  -4.22998487
C   -0.24439908  -1.54287984  -2.89478094
N    0.19964139  -2.34810650  -2.20985054
C    2.64209340  -0.15625642   0.16098732
H    3.66380087   0.14230910   0.26994903
H    2.59622494  -1.20832563  -0.02860584
H    2.10720552   0.06775931   1.06021533
C    2.00745225   0.60581177  -1.01718189
N    1.53493307   1.17320617  -1.89438242
