
                                 *****************
                                 * O   R   C   A *
                                 *****************

           --- An Ab Initio, DFT and Semiempirical electronic structure package ---

                  #######################################################
                  #                        -***-                        #
                  #          Department of theory and spectroscopy      #
                  #               Directorship: Frank Neese             #
                  #        Max Planck Institute fuer Kohlenforschung    #
                  #                Kaiser Wilhelm Platz 1               #
                  #                 D-45470 Muelheim/Ruhr               #
                  #                      Germany                        #
                  #                                                     #
                  #                  All rights reserved                #
                  #                        -***-                        #
                  #######################################################


                         Program Version 4.2.0 -  RELEASE  -


 With contributions from (in alphabetic order):
   Daniel Aravena         : Magnetic Suceptibility
   Michael Atanasov       : Ab Initio Ligand Field Theory (pilot matlab implementation)
   Alexander A. Auer      : GIAO ZORA, VPT2
   Ute Becker             : Parallelization
   Giovanni Bistoni       : ED, misc. LED, open-shell LED, HFLED
   Martin Brehm           : Molecular dynamics
   Dmytro Bykov           : SCF Hessian
   Vijay G. Chilkuri      : MRCI spin determinant printing, contributions to CSF-ICE
   Dipayan Datta          : RHF DLPNO-CCSD density
   Achintya Kumar Dutta   : EOM-CC, STEOM-CC
   Dmitry Ganyushin       : Spin-Orbit,Spin-Spin,Magnetic field MRCI
   Miquel Garcia          : C-PCM Hessian, Gaussian charge scheme
   Yang Guo               : DLPNO-NEVPT2, CIM, IAO-localization
   Andreas Hansen         : Spin unrestricted coupled pair/coupled cluster methods
   Benjamin Helmich-Paris : CASSCF linear response (MC-RPA)
   Lee Huntington         : MR-EOM, pCC
   Robert Izsak           : Overlap fitted RIJCOSX, COSX-SCS-MP3, EOM
   Christian Kollmar      : KDIIS, OOCD, Brueckner-CCSD(T), CCSD density
   Simone Kossmann        : Meta GGA functionals, TD-DFT gradient, OOMP2, MP2 Hessian
   Martin Krupicka        : AUTO-CI
   Lucas Lang             : DCDCAS
   Dagmar Lenk            : GEPOL surface, SMD
   Dimitrios Liakos       : Extrapolation schemes; Compound Job, initial MDCI parallelization
   Dimitrios Manganas     : Further ROCIS development; embedding schemes
   Dimitrios Pantazis     : SARC Basis sets
   Taras Petrenko         : DFT Hessian,TD-DFT gradient, ASA, ECA, R-Raman, ABS, FL, XAS/XES, NRVS
   Peter Pinski           : DLPNO-MP2, DLPNO-MP2 Gradient
   Christoph Reimann      : Effective Core Potentials
   Marius Retegan         : Local ZFS, SOC
   Christoph Riplinger    : Optimizer, TS searches, QM/MM, DLPNO-CCSD(T), (RO)-DLPNO pert. Triples
   Tobias Risthaus        : Range-separated hybrids, TD-DFT gradient, RPA, STAB
   Michael Roemelt        : Original ROCIS implementation
   Masaaki Saitow         : Open-shell DLPNO-CCSD energy and density
   Barbara Sandhoefer     : DKH picture change effects
   Avijit Sen             : IP-ROCIS
   Kantharuban Sivalingam : CASSCF convergence, NEVPT2, FIC-MRCI
   Bernardo de Souza      : ESD, SOC TD-DFT
   Georgi Stoychev        : AutoAux, RI-MP2 NMR
   Willem Van den Heuvel  : Paramagnetic NMR
   Boris Wezisla          : Elementary symmetry handling
   Frank Wennmohs         : Technical directorship


 We gratefully acknowledge several colleagues who have allowed us to
 interface, adapt or use parts of their codes:
   Stefan Grimme, W. Hujo, H. Kruse,             : VdW corrections, initial TS optimization,
                  C. Bannwarth                     DFT functionals, gCP, sTDA/sTD-DF
   Ed Valeev, F. Pavosevic, A. Kumar             : LibInt (2-el integral package), F12 methods
   Garnet Chan, S. Sharma, J. Yang, R. Olivares  : DMRG
   Ulf Ekstrom                                   : XCFun DFT Library
   Mihaly Kallay                                 : mrcc  (arbitrary order and MRCC methods)
   Andreas Klamt, Michael Diedenhofen            : otool_cosmo (COSMO solvation model)
   Jiri Pittner, Ondrej Demel                    : Mk-CCSD
   Frank Weinhold                                : gennbo (NPA and NBO analysis)
   Christopher J. Cramer and Donald G. Truhlar   : smd solvation model
   Lars Goerigk                                  : TD-DFT with DH, B97 family of functionals
   V. Asgeirsson, H. Jonsson                     : NEB implementation
   FAccTs GmbH                                   : IRC, NEB, NEB-TS, Multilevel, MM, QM/MM, CI optimization
   S Lehtola, MJT Oliveira, MAL Marques          : LibXC Library


 Your calculation uses the libint2 library for the computation of 2-el integrals
 For citations please refer to: http://libint.valeyev.net

 Your ORCA version has been built with support for libXC version: 4.2.3
 For citations please refer to: https://tddft.org/programs/libxc/

 This ORCA versions uses:
   CBLAS   interface :  Fast vector & matrix operations
   LAPACKE interface :  Fast linear algebra routines
   SCALAPACK package :  Parallel linear algebra routines


----- Orbital basis set information -----
Your calculation utilizes the basis: def2-TZVP
   F. Weigend and R. Ahlrichs, Phys. Chem. Chem. Phys. 7, 3297 (2005).

================================================================================
                                        WARNINGS
                       Please study these warnings very carefully!
================================================================================


WARNING: The frozen-core approximation for MP2-gradient calculations is turned on by default.

INFO   : the flag for use of LIBINT has been found!

================================================================================
                                       INPUT FILE
================================================================================
NAME = 12mecn.remya.etal.2.mol1,3,11-orca.engrad-mp2.def2tzvp.frozencore.inp
|  1> # 12mecn.remya.etal.2.mol1,3,11
|  2> ! MP2 def2-TZVP EnGrad TightSCF
|  3> 
|  4> %pal
|  5>     nprocs 6
|  6> end
|  7> 
|  8> %maxcore 8000
|  9> 
| 10> %scf
| 11>     ConvForced true
| 12> end
| 13> 
| 14> *xyz 0 1
| 15> C  -4.697980000  -0.249690000   1.746215000
| 16> H  -4.927570000   0.755530000   2.111799000
| 17> H  -3.709180000  -0.561560000   2.093253000
| 18> H  -5.432280000  -0.961520000   2.128066000
| 19> C  -4.714100000  -0.247110000   0.301670000
| 20> N  -4.729750000  -0.234960000  -0.865260000
| 21> C  -5.181310000   2.853865000  -1.626100000
| 22> H  -5.488260000   3.811434000  -2.053310000
| 23> H  -5.857590000   2.068112000  -1.968630000
| 24> H  -4.170750000   2.611402000  -1.966640000
| 25> C  -5.187260000   2.919160000  -0.181450000
| 26> N  -5.181700000   2.970641000   0.983640000
| 27> C   4.214163000   3.378139000   1.593627000
| 28> H   3.242643000   3.657109000   2.012358000
| 29> H   4.969258000   4.086643000   1.941290000
| 30> H   4.482966000   2.372549000   1.931698000
| 31> C   4.130759000   3.388436000   0.150192000
| 32> N   4.050180000   3.381449000  -1.013420000
| 33> *
| 34> 
| 35>                          ****END OF INPUT****
================================================================================

                     *******************************
                     * Energy+Gradient Calculation *
                     *******************************

---------------------------------
CARTESIAN COORDINATES (ANGSTROEM)
---------------------------------
  C     -4.697980   -0.249690    1.746215
  H     -4.927570    0.755530    2.111799
  H     -3.709180   -0.561560    2.093253
  H     -5.432280   -0.961520    2.128066
  C     -4.714100   -0.247110    0.301670
  N     -4.729750   -0.234960   -0.865260
  C     -5.181310    2.853865   -1.626100
  H     -5.488260    3.811434   -2.053310
  H     -5.857590    2.068112   -1.968630
  H     -4.170750    2.611402   -1.966640
  C     -5.187260    2.919160   -0.181450
  N     -5.181700    2.970641    0.983640
  C      4.214163    3.378139    1.593627
  H      3.242643    3.657109    2.012358
  H      4.969258    4.086643    1.941290
  H      4.482966    2.372549    1.931698
  C      4.130759    3.388436    0.150192
  N      4.050180    3.381449   -1.013420

----------------------------
CARTESIAN COORDINATES (A.U.)
----------------------------
  NO LB      ZA    FRAG     MASS         X           Y           Z
   0 C     6.0000    0    12.011   -8.877896   -0.471846    3.299868
   1 H     1.0000    0     1.008   -9.311758    1.427745    3.990722
   2 H     1.0000    0     1.008   -7.009334   -1.061195    3.955675
   3 H     1.0000    0     1.008  -10.265521   -1.817009    4.021462
   4 C     6.0000    0    12.011   -8.908358   -0.466970    0.570074
   5 N     7.0000    0    14.007   -8.937932   -0.444010   -1.635104
   6 C     6.0000    0    12.011   -9.791257    5.393023   -3.072884
   7 H     1.0000    0     1.008  -10.371308    7.202566   -3.880194
   8 H     1.0000    0     1.008  -11.069241    3.908165   -3.720172
   9 H     1.0000    0     1.008   -7.881575    4.934835   -3.716411
  10 C     6.0000    0    12.011   -9.802501    5.516413   -0.342891
  11 N     7.0000    0    14.007   -9.791994    5.613698    1.858810
  12 C     6.0000    0    12.011    7.963614    6.383758    3.011519
  13 H     1.0000    0     1.008    6.127707    6.910934    3.802806
  14 H     1.0000    0     1.008    9.390537    7.722636    3.668506
  15 H     1.0000    0     1.008    8.471578    4.483468    3.650380
  16 C     6.0000    0    12.011    7.806003    6.403216    0.283822
  17 N     7.0000    0    14.007    7.653731    6.390013   -1.915086

--------------------------------
INTERNAL COORDINATES (ANGSTROEM)
--------------------------------
 C      0   0   0     0.000000000000     0.00000000     0.00000000
 H      1   0   0     1.093997476028     0.00000000     0.00000000
 H      1   2   0     1.093354338878   110.23188073     0.00000000
 H      1   2   3     1.091654077582   109.94364040   119.12222513
 C      1   2   3     1.444637244371   109.27900475   240.05041290
 N      5   1   2     1.167098183488   179.48927802   358.44615688
 C      6   5   1     3.213039654257   104.39799359     6.47973253
 H      7   6   5     1.092549804980   167.07082291   221.82157082
 H      7   6   5     1.091828382260    57.96034434   237.06456529
 H      7   6   5     1.093612048017    74.37930683   112.94132335
 C      7   6   5     1.446137082722    78.89719288   359.44784141
 N     11   7   6     1.166240076083   179.48782841    75.23464559
 C      3   1   2     8.862856122387   131.59156095   307.94929265
 H     13   3   1     1.094079988694    45.40590551    57.23022428
 H     13   3   1     1.092252689907   152.67713860    81.87091658
 H     13   3   1     1.094421446222    78.09581103   190.65612803
 C     13   3   1     1.445879266969    90.45116915   300.20899807
 N     17  13   3     1.166419598581   179.00370785   337.44907864

---------------------------
INTERNAL COORDINATES (A.U.)
---------------------------
 C      0   0   0     0.000000000000     0.00000000     0.00000000
 H      1   0   0     2.067355620894     0.00000000     0.00000000
 H      1   2   0     2.066140267815   110.23188073     0.00000000
 H      1   2   3     2.062927239608   109.94364040   119.12222513
 C      1   2   3     2.729968754725   109.27900475   240.05041290
 N      5   1   2     2.205495938188   179.48927802   358.44615688
 C      6   5   1     6.071765003974   104.39799359     6.47973253
 H      7   6   5     2.064619919081   167.07082291   221.82157082
 H      7   6   5     2.063256627714    57.96034434   237.06456529
 H      7   6   5     2.066627267510    74.37930683   112.94132335
 C      7   6   5     2.732803038453    78.89719288   359.44784141
 N     11   7   6     2.203874350199   179.48782841    75.23464559
 C      3   1   2    16.748370835658   131.59156095   307.94929265
 H     13   3   1     2.067511547236    45.40590551    57.23022428
 H     13   3   1     2.064058452964   152.67713860    81.87091658
 H     13   3   1     2.068156808449    78.09581103   190.65612803
 C     13   3   1     2.732315837286    90.45116915   300.20899807
 N     17  13   3     2.204213598557   179.00370785   337.44907864

---------------------
BASIS SET INFORMATION
---------------------
There are 3 groups of distinct atoms

 Group   1 Type C   : 11s6p2d1f contracted to 5s3p2d1f pattern {62111/411/11/1}
 Group   2 Type H   : 5s1p contracted to 3s1p pattern {311/1}
 Group   3 Type N   : 11s6p2d1f contracted to 5s3p2d1f pattern {62111/411/11/1}

Atom   0C    basis set group =>   1
Atom   1H    basis set group =>   2
Atom   2H    basis set group =>   2
Atom   3H    basis set group =>   2
Atom   4C    basis set group =>   1
Atom   5N    basis set group =>   3
Atom   6C    basis set group =>   1
Atom   7H    basis set group =>   2
Atom   8H    basis set group =>   2
Atom   9H    basis set group =>   2
Atom  10C    basis set group =>   1
Atom  11N    basis set group =>   3
Atom  12C    basis set group =>   1
Atom  13H    basis set group =>   2
Atom  14H    basis set group =>   2
Atom  15H    basis set group =>   2
Atom  16C    basis set group =>   1
Atom  17N    basis set group =>   3


           ************************************************************
           *        Program running with 6 parallel MPI-processes     *
           *              working on a common directory               *
           ************************************************************
------------------------------------------------------------------------------
                           ORCA GTO INTEGRAL CALCULATION
------------------------------------------------------------------------------

                         BASIS SET STATISTICS AND STARTUP INFO

 # of primitive gaussian shells          ...  234
 # of primitive gaussian functions       ...  486
 # of contracted shells                  ...  135
 # of contracted basis functions         ...  333
 Highest angular momentum                ...    3
 Maximum contraction depth               ...    6
 Integral package used                   ... LIBINT
 Integral threshhold            Thresh   ...  2.500e-11
 Primitive cut-off              TCut     ...  2.500e-12


------------------------------ INTEGRAL EVALUATION ----------------------------


 * One electron integrals 
 Pre-screening matrix                    ... done
 Shell pair data                         ... done (   0.002 sec)



           ************************************************************
           *        Program running with 6 parallel MPI-processes     *
           *              working on a common directory               *
           ************************************************************
-------------------------------------------------------------------------------
                                 ORCA SCF
-------------------------------------------------------------------------------

------------
SCF SETTINGS
------------
Hamiltonian:
 Ab initio Hamiltonian  Method          .... Hartree-Fock(GTOs)


General Settings:
 Integral files         IntName         .... 12mecn.remya.etal.2.mol1,3,11-orca.engrad-mp2.def2tzvp.frozencore
 Hartree-Fock type      HFTyp           .... RHF
 Total Charge           Charge          ....    0
 Multiplicity           Mult            ....    1
 Number of Electrons    NEL             ....   66
 Basis Dimension        Dim             ....  333
 Nuclear Repulsion      ENuc            ....    299.3220431482 Eh

Convergence Acceleration:
 DIIS                   CNVDIIS         .... on
   Start iteration      DIISMaxIt       ....    12
   Startup error        DIISStart       ....  0.200000
   # of expansion vecs  DIISMaxEq       ....     5
   Bias factor          DIISBfac        ....   1.050
   Max. coefficient     DIISMaxC        ....  10.000
 Newton-Raphson         CNVNR           .... off
 SOSCF                  CNVSOSCF        .... on
   Start iteration      SOSCFMaxIt      ....   150
   Startup grad/error   SOSCFStart      ....  0.003300
 Level Shifting         CNVShift        .... on
   Level shift para.    LevelShift      ....    0.2500
   Turn off err/grad.   ShiftErr        ....    0.0010
 Zerner damping         CNVZerner       .... off
 Static damping         CNVDamp         .... on
   Fraction old density DampFac         ....    0.7000
   Max. Damping (<1)    DampMax         ....    0.9800
   Min. Damping (>=0)   DampMin         ....    0.0000
   Turn off err/grad.   DampErr         ....    0.1000
 Fernandez-Rico         CNVRico         .... off

SCF Procedure:
 Maximum # iterations   MaxIter         ....   125
 SCF integral mode      SCFMode         .... Direct
   Integral package                     .... LIBINT
 Reset frequency        DirectResetFreq ....    20
 Integral Threshold     Thresh          ....  2.500e-11 Eh
 Primitive CutOff       TCut            ....  2.500e-12 Eh

Convergence Tolerance:
 Convergence Check Mode ConvCheckMode   .... Total+1el-Energy
 Convergence forced     ConvForced      .... 1
 Energy Change          TolE            ....  1.000e-08 Eh
 1-El. energy change                    ....  1.000e-05 Eh
 Orbital Gradient       TolG            ....  1.000e-05
 Orbital Rotation angle TolX            ....  1.000e-05
 DIIS Error             TolErr          ....  5.000e-07


Diagonalization of the overlap matrix:
Smallest eigenvalue                        ... 1.531e-04
Time for diagonalization                   ...    0.016 sec
Threshold for overlap eigenvalues          ... 1.000e-08
Number of eigenvalues below threshold      ... 0
Time for construction of square roots      ...    0.008 sec
Total time needed                          ...    0.024 sec

-------------------
DFT GRID GENERATION
-------------------

General Integration Accuracy     IntAcc      ...  4.340
Radial Grid Type                 RadialGrid  ... Gauss-Chebyshev
Angular Grid (max. acc.)         AngularGrid ... Lebedev-110
Angular grid pruning method      GridPruning ... 3 (G Style)
Weight generation scheme         WeightScheme... Becke
Basis function cutoff            BFCut       ...    1.0000e-11
Integration weight cutoff        WCut        ...    1.0000e-14
Grids for H and He will be reduced by one unit

# of grid points (after initial pruning)     ...  22188 (   0.0 sec)
# of grid points (after weights+screening)   ...  21054 (   0.0 sec)
nearest neighbour list constructed           ...    0.0 sec
Grid point re-assignment to atoms done       ...    0.0 sec
Grid point division into batches done        ...    0.0 sec
Reduced shell lists constructed in    0.0 sec

Total number of grid points                  ...    21054
Total number of batches                      ...      337
Average number of points per batch           ...       62
Average number of grid points per atom       ...     1170
Average number of shells per batch           ...    58.17 (43.09%)
Average number of basis functions per batch  ...   141.90 (42.61%)
Average number of large shells per batch     ...    44.05 (75.73%)
Average number of large basis fcns per batch ...   105.88 (74.62%)
Maximum spatial batch extension              ...  17.55, 17.58, 19.63 au
Average spatial batch extension              ...   0.73,  0.71,  0.83 au

Time for grid setup =    0.068 sec

------------------------------
INITIAL GUESS: MODEL POTENTIAL
------------------------------
Loading Hartree-Fock densities                     ... done
Calculating cut-offs                               ... done
Setting up the integral package                    ... done
Initializing the effective Hamiltonian             ... done
Starting the Coulomb interaction                   ... done (   0.0 sec)
Reading the grid                                   ... done
Mapping shells                                     ... done
Starting the XC term evaluation                    ... done (   0.0 sec)
Transforming the Hamiltonian                       ... done (   0.0 sec)
Diagonalizing the Hamiltonian                      ... done (   0.0 sec)
Back transforming the eigenvectors                 ... done (   0.0 sec)
Now organizing SCF variables                       ... done
                      ------------------
                      INITIAL GUESS DONE (   0.2 sec)
                      ------------------
--------------
SCF ITERATIONS
--------------
ITER       Energy         Delta-E        Max-DP      RMS-DP      [F,P]     Damp
               ***  Starting incremental Fock matrix formation  ***
  0   -395.4439597410   0.000000000000 0.03782643  0.00085106  0.2822427 0.7000
  1   -395.6170519051  -0.173092164060 0.02709126  0.00067218  0.1878631 0.7000
                               ***Turning on DIIS***
  2   -395.7187774499  -0.101725544831 0.01614168  0.00044570  0.1421157 0.7000
  3   -396.6797962021  -0.961018752203 0.01075585  0.00029281  0.1056053 0.7000
  4   -396.6234175567   0.056378645426 0.02894228  0.00071382  0.0744003 0.0000
  5   -395.9565702161   0.666847340601 0.00621608  0.00011449  0.0060810 0.0000
                      *** Initiating the SOSCF procedure ***
                           *** Shutting down DIIS ***
                      *** Re-Reading the Fockian *** 
                      *** Removing any level shift *** 
ITER      Energy       Delta-E        Grad      Rot      Max-DP    RMS-DP
  6   -395.93787283   0.0186973815  0.001268  0.001268  0.004336  0.000071
               *** Restarting incremental Fock matrix formation ***
  7   -395.92857165   0.0093011863  0.000477  0.000756  0.002935  0.000050
  8   -395.92859066  -0.0000190158  0.000369  0.000522  0.002516  0.000042
  9   -395.92859517  -0.0000045046  0.000129  0.000155  0.000762  0.000012
 10   -395.92859579  -0.0000006260  0.000021  0.000037  0.000088  0.000001
 11   -395.92859582  -0.0000000263  0.000013  0.000044  0.000050  0.000001
 12   -395.92859583  -0.0000000127  0.000007  0.000009  0.000038  0.000001
 13   -395.92859584  -0.0000000020  0.000005  0.000005  0.000013  0.000000
                  ***Gradient check signals convergence***
              ***Rediagonalizing the Fockian in SOSCF/NRSCF***

               *****************************************************
               *                     SUCCESS                       *
               *           SCF CONVERGED AFTER  14 CYCLES          *
               *****************************************************


----------------
TOTAL SCF ENERGY
----------------

Total Energy       :         -395.92859584 Eh          -10773.76482 eV

Components:
Nuclear Repulsion  :          299.32204315 Eh            8144.96688 eV
Electronic Energy  :         -695.25063899 Eh          -18918.73170 eV
One Electron Energy:        -1127.70200387 Eh          -30686.33159 eV
Two Electron Energy:          432.45136489 Eh           11767.59989 eV

Virial components:
Potential Energy   :         -791.08474059 Eh          -21526.51018 eV
Kinetic Energy     :          395.15614476 Eh           10752.74536 eV
Virial Ratio       :            2.00195480


---------------
SCF CONVERGENCE
---------------

  Last Energy change         ...   -1.8101e-09  Tolerance :   1.0000e-08
  Last MAX-Density change    ...    3.3028e-06  Tolerance :   1.0000e-07
  Last RMS-Density change    ...    5.2695e-08  Tolerance :   5.0000e-09
  Last Orbital Gradient      ...    1.6904e-06  Tolerance :   1.0000e-05
  Last Orbital Rotation      ...    3.1736e-06  Tolerance :   1.0000e-05

             **** THE GBW FILE WAS UPDATED (12mecn.remya.etal.2.mol1,3,11-orca.engrad-mp2.def2tzvp.frozencore.gbw) ****
             **** DENSITY FILE WAS UPDATED (12mecn.remya.etal.2.mol1,3,11-orca.engrad-mp2.def2tzvp.frozencore.scfp) ****
             **** ENERGY FILE WAS UPDATED (12mecn.remya.etal.2.mol1,3,11-orca.engrad-mp2.def2tzvp.frozencore.en.tmp) ****
             **** THE GBW FILE WAS UPDATED (12mecn.remya.etal.2.mol1,3,11-orca.engrad-mp2.def2tzvp.frozencore.gbw) ****
             **** DENSITY FILE WAS UPDATED (12mecn.remya.etal.2.mol1,3,11-orca.engrad-mp2.def2tzvp.frozencore.scfp) ****
----------------
ORBITAL ENERGIES
----------------

  NO   OCC          E(Eh)            E(eV) 
   0   2.0000     -15.573400      -423.7737 
   1   2.0000     -15.570771      -423.7022 
   2   2.0000     -15.569915      -423.6789 
   3   2.0000     -11.285501      -307.0941 
   4   2.0000     -11.282438      -307.0107 
   5   2.0000     -11.282352      -307.0084 
   6   2.0000     -11.280378      -306.9547 
   7   2.0000     -11.272134      -306.7304 
   8   2.0000     -11.271204      -306.7051 
   9   2.0000      -1.217819       -33.1385 
  10   2.0000      -1.214932       -33.0600 
  11   2.0000      -1.212985       -33.0070 
  12   2.0000      -1.043954       -28.4074 
  13   2.0000      -1.036418       -28.2024 
  14   2.0000      -1.032781       -28.1034 
  15   2.0000      -0.700860       -19.0714 
  16   2.0000      -0.694811       -18.9068 
  17   2.0000      -0.690803       -18.7977 
  18   2.0000      -0.632206       -17.2032 
  19   2.0000      -0.631391       -17.1810 
  20   2.0000      -0.631285       -17.1781 
  21   2.0000      -0.621796       -16.9199 
  22   2.0000      -0.617595       -16.8056 
  23   2.0000      -0.615689       -16.7538 
  24   2.0000      -0.558619       -15.2008 
  25   2.0000      -0.556187       -15.1346 
  26   2.0000      -0.555534       -15.1168 
  27   2.0000      -0.462994       -12.5987 
  28   2.0000      -0.458056       -12.4643 
  29   2.0000      -0.458044       -12.4640 
  30   2.0000      -0.457939       -12.4612 
  31   2.0000      -0.456653       -12.4262 
  32   2.0000      -0.452201       -12.3050 
  33   0.0000       0.118829         3.2335 
  34   0.0000       0.126778         3.4498 
  35   0.0000       0.145197         3.9510 
  36   0.0000       0.170868         4.6496 
  37   0.0000       0.171270         4.6605 
  38   0.0000       0.172547         4.6952 
  39   0.0000       0.177359         4.8262 
  40   0.0000       0.178355         4.8533 
  41   0.0000       0.187374         5.0987 
  42   0.0000       0.202136         5.5004 
  43   0.0000       0.210069         5.7163 
  44   0.0000       0.214739         5.8434 
  45   0.0000       0.224397         6.1062 
  46   0.0000       0.224910         6.1201 
  47   0.0000       0.228219         6.2102 
  48   0.0000       0.234975         6.3940 
  49   0.0000       0.241197         6.5633 
  50   0.0000       0.263509         7.1704 
  51   0.0000       0.268369         7.3027 
  52   0.0000       0.275842         7.5061 
  53   0.0000       0.310797         8.4572 
  54   0.0000       0.320312         8.7161 
  55   0.0000       0.322797         8.7838 
  56   0.0000       0.324323         8.8253 
  57   0.0000       0.327221         8.9041 
  58   0.0000       0.330467         8.9925 
  59   0.0000       0.370738        10.0883 
  60   0.0000       0.381317        10.3762 
  61   0.0000       0.381469        10.3803 
  62   0.0000       0.395499        10.7621 
  63   0.0000       0.396847        10.7988 
  64   0.0000       0.408227        11.1084 
  65   0.0000       0.418022        11.3750 
  66   0.0000       0.455077        12.3833 
  67   0.0000       0.475297        12.9335 
  68   0.0000       0.496358        13.5066 
  69   0.0000       0.497575        13.5397 
  70   0.0000       0.504382        13.7249 
  71   0.0000       0.525644        14.3035 
  72   0.0000       0.529222        14.4009 
  73   0.0000       0.547512        14.8986 
  74   0.0000       0.558649        15.2016 
  75   0.0000       0.587876        15.9969 
  76   0.0000       0.596368        16.2280 
  77   0.0000       0.598830        16.2950 
  78   0.0000       0.599362        16.3095 
  79   0.0000       0.603806        16.4304 
  80   0.0000       0.610057        16.6005 
  81   0.0000       0.612969        16.6797 
  82   0.0000       0.627533        17.0760 
  83   0.0000       0.658976        17.9317 
  84   0.0000       0.659347        17.9417 
  85   0.0000       0.660886        17.9836 
  86   0.0000       0.665895        18.1199 
  87   0.0000       0.677562        18.4374 
  88   0.0000       0.699765        19.0416 
  89   0.0000       0.703975        19.1561 
  90   0.0000       0.726848        19.7785 
  91   0.0000       0.741435        20.1755 
  92   0.0000       0.760390        20.6913 
  93   0.0000       0.796969        21.6866 
  94   0.0000       0.807258        21.9666 
  95   0.0000       0.808034        21.9877 
  96   0.0000       0.812453        22.1080 
  97   0.0000       0.813906        22.1475 
  98   0.0000       0.844102        22.9692 
  99   0.0000       0.852474        23.1970 
 100   0.0000       0.877471        23.8772 
 101   0.0000       0.917063        24.9545 
 102   0.0000       0.919102        25.0100 
 103   0.0000       0.919844        25.0302 
 104   0.0000       0.927383        25.2354 
 105   0.0000       0.944362        25.6974 
 106   0.0000       0.966694        26.3051 
 107   0.0000       1.031643        28.0724 
 108   0.0000       1.039759        28.2933 
 109   0.0000       1.060758        28.8647 
 110   0.0000       1.073301        29.2060 
 111   0.0000       1.122688        30.5499 
 112   0.0000       1.124637        30.6029 
 113   0.0000       1.135738        30.9050 
 114   0.0000       1.137021        30.9399 
 115   0.0000       1.158244        31.5174 
 116   0.0000       1.205720        32.8093 
 117   0.0000       1.322030        35.9743 
 118   0.0000       1.330478        36.2041 
 119   0.0000       1.337049        36.3830 
 120   0.0000       1.392296        37.8863 
 121   0.0000       1.418014        38.5861 
 122   0.0000       1.424244        38.7557 
 123   0.0000       1.424699        38.7680 
 124   0.0000       1.429133        38.8887 
 125   0.0000       1.442441        39.2508 
 126   0.0000       1.449081        39.4315 
 127   0.0000       1.451139        39.4875 
 128   0.0000       1.469212        39.9793 
 129   0.0000       1.472766        40.0760 
 130   0.0000       1.476078        40.1661 
 131   0.0000       1.479352        40.2552 
 132   0.0000       1.490608        40.5615 
 133   0.0000       1.500904        40.8417 
 134   0.0000       1.509471        41.0748 
 135   0.0000       1.521631        41.4057 
 136   0.0000       1.532460        41.7003 
 137   0.0000       1.591494        43.3068 
 138   0.0000       1.697043        46.1789 
 139   0.0000       1.698028        46.2057 
 140   0.0000       1.698165        46.2094 
 141   0.0000       1.714446        46.6525 
 142   0.0000       1.737496        47.2797 
 143   0.0000       1.746910        47.5358 
 144   0.0000       1.746954        47.5370 
 145   0.0000       1.758366        47.8476 
 146   0.0000       1.764100        48.0036 
 147   0.0000       1.770715        48.1836 
 148   0.0000       1.771657        48.2092 
 149   0.0000       1.790723        48.7281 
 150   0.0000       1.796609        48.8882 
 151   0.0000       1.801798        49.0294 
 152   0.0000       1.811119        49.2830 
 153   0.0000       1.827821        49.7375 
 154   0.0000       1.853488        50.4360 
 155   0.0000       1.866993        50.8035 
 156   0.0000       1.934474        52.6397 
 157   0.0000       1.935013        52.6544 
 158   0.0000       1.938930        52.7610 
 159   0.0000       1.949927        53.0602 
 160   0.0000       1.964471        53.4560 
 161   0.0000       1.969811        53.6013 
 162   0.0000       1.980524        53.8928 
 163   0.0000       2.006205        54.5916 
 164   0.0000       2.027945        55.1832 
 165   0.0000       2.216685        60.3191 
 166   0.0000       2.225066        60.5471 
 167   0.0000       2.235461        60.8300 
 168   0.0000       2.236526        60.8590 
 169   0.0000       2.249006        61.1986 
 170   0.0000       2.249189        61.2035 
 171   0.0000       2.255645        61.3792 
 172   0.0000       2.281491        62.0825 
 173   0.0000       2.323059        63.2137 
 174   0.0000       2.340544        63.6894 
 175   0.0000       2.362938        64.2988 
 176   0.0000       2.422123        65.9093 
 177   0.0000       2.547366        69.3174 
 178   0.0000       2.552880        69.4674 
 179   0.0000       2.553823        69.4930 
 180   0.0000       2.560192        69.6664 
 181   0.0000       2.573036        70.0159 
 182   0.0000       2.576369        70.1066 
 183   0.0000       2.584652        70.3319 
 184   0.0000       2.604648        70.8761 
 185   0.0000       2.617449        71.2244 
 186   0.0000       2.620097        71.2965 
 187   0.0000       2.625188        71.4350 
 188   0.0000       2.631599        71.6094 
 189   0.0000       2.637581        71.7722 
 190   0.0000       2.662902        72.4613 
 191   0.0000       2.684575        73.0510 
 192   0.0000       2.702344        73.5345 
 193   0.0000       2.721247        74.0489 
 194   0.0000       2.738511        74.5187 
 195   0.0000       2.743667        74.6590 
 196   0.0000       2.744521        74.6822 
 197   0.0000       2.754614        74.9568 
 198   0.0000       2.759711        75.0956 
 199   0.0000       2.774474        75.4973 
 200   0.0000       2.820087        76.7385 
 201   0.0000       2.910622        79.2020 
 202   0.0000       2.912610        79.2562 
 203   0.0000       2.913107        79.2697 
 204   0.0000       2.913482        79.2799 
 205   0.0000       2.916413        79.3596 
 206   0.0000       2.920023        79.4579 
 207   0.0000       2.941522        80.0429 
 208   0.0000       2.949663        80.2644 
 209   0.0000       2.956683        80.4554 
 210   0.0000       2.958977        80.5178 
 211   0.0000       2.967141        80.7400 
 212   0.0000       2.993700        81.4627 
 213   0.0000       3.023682        82.2786 
 214   0.0000       3.040673        82.7409 
 215   0.0000       3.054285        83.1113 
 216   0.0000       3.085466        83.9598 
 217   0.0000       3.091967        84.1367 
 218   0.0000       3.094644        84.2096 
 219   0.0000       3.100435        84.3671 
 220   0.0000       3.103462        84.4495 
 221   0.0000       3.141086        85.4733 
 222   0.0000       3.225669        87.7749 
 223   0.0000       3.232592        87.9633 
 224   0.0000       3.233723        87.9941 
 225   0.0000       3.244502        88.2874 
 226   0.0000       3.246463        88.3408 
 227   0.0000       3.258532        88.6692 
 228   0.0000       3.259372        88.6920 
 229   0.0000       3.272575        89.0513 
 230   0.0000       3.314371        90.1886 
 231   0.0000       3.327053        90.5337 
 232   0.0000       3.336676        90.7956 
 233   0.0000       3.338211        90.8373 
 234   0.0000       3.341373        90.9234 
 235   0.0000       3.363132        91.5155 
 236   0.0000       3.436396        93.5091 
 237   0.0000       3.440475        93.6201 
 238   0.0000       3.443739        93.7089 
 239   0.0000       3.445628        93.7603 
 240   0.0000       3.457628        94.0868 
 241   0.0000       3.472277        94.4854 
 242   0.0000       3.485725        94.8514 
 243   0.0000       3.488289        94.9212 
 244   0.0000       3.533086        96.1402 
 245   0.0000       3.578268        97.3696 
 246   0.0000       3.633659        98.8769 
 247   0.0000       3.650211        99.3273 
 248   0.0000       3.655797        99.4793 
 249   0.0000       3.663742        99.6955 
 250   0.0000       3.665494        99.7432 
 251   0.0000       3.669138        99.8423 
 252   0.0000       3.797714       103.3411 
 253   0.0000       3.804161       103.5165 
 254   0.0000       3.807557       103.6089 
 255   0.0000       3.811555       103.7177 
 256   0.0000       3.814657       103.8021 
 257   0.0000       3.832873       104.2978 
 258   0.0000       3.925121       106.8080 
 259   0.0000       3.939022       107.1862 
 260   0.0000       3.940459       107.2253 
 261   0.0000       3.948051       107.4319 
 262   0.0000       3.954913       107.6186 
 263   0.0000       3.960819       107.7794 
 264   0.0000       3.966747       107.9407 
 265   0.0000       3.968544       107.9896 
 266   0.0000       4.008021       109.0638 
 267   0.0000       4.245971       115.5387 
 268   0.0000       4.250720       115.6680 
 269   0.0000       4.252824       115.7252 
 270   0.0000       4.263044       116.0033 
 271   0.0000       4.266271       116.0911 
 272   0.0000       4.303103       117.0934 
 273   0.0000       4.341749       118.1450 
 274   0.0000       4.342425       118.1634 
 275   0.0000       4.344285       118.2140 
 276   0.0000       4.346667       118.2788 
 277   0.0000       4.347396       118.2987 
 278   0.0000       4.350932       118.3949 
 279   0.0000       4.560069       124.0858 
 280   0.0000       4.574138       124.4686 
 281   0.0000       4.582645       124.7001 
 282   0.0000       4.742834       129.0591 
 283   0.0000       4.749277       129.2344 
 284   0.0000       4.758295       129.4798 
 285   0.0000       4.763367       129.6178 
 286   0.0000       4.774398       129.9180 
 287   0.0000       4.777939       130.0143 
 288   0.0000       4.834970       131.5662 
 289   0.0000       4.853005       132.0570 
 290   0.0000       4.862541       132.3165 
 291   0.0000       4.960480       134.9815 
 292   0.0000       4.961598       135.0119 
 293   0.0000       4.965198       135.1099 
 294   0.0000       4.968053       135.1876 
 295   0.0000       4.989370       135.7676 
 296   0.0000       5.011734       136.3762 
 297   0.0000       5.067483       137.8932 
 298   0.0000       5.068089       137.9097 
 299   0.0000       5.068173       137.9120 
 300   0.0000       5.074171       138.0752 
 301   0.0000       5.089767       138.4996 
 302   0.0000       5.111669       139.0956 
 303   0.0000       5.198899       141.4692 
 304   0.0000       5.216907       141.9593 
 305   0.0000       5.225008       142.1797 
 306   0.0000       5.556638       151.2038 
 307   0.0000       5.557601       151.2300 
 308   0.0000       5.559012       151.2684 
 309   0.0000       5.561197       151.3279 
 310   0.0000       5.582762       151.9147 
 311   0.0000       5.594642       152.2380 
 312   0.0000       6.021702       163.8588 
 313   0.0000       6.022107       163.8699 
 314   0.0000       6.026679       163.9943 
 315   0.0000       6.081949       165.4983 
 316   0.0000       6.086592       165.6246 
 317   0.0000       6.088183       165.6679 
 318   0.0000       6.088308       165.6713 
 319   0.0000       6.098770       165.9560 
 320   0.0000       6.184203       168.2807 
 321   0.0000       6.465772       175.9426 
 322   0.0000       6.473117       176.1425 
 323   0.0000       6.482161       176.3886 
 324   0.0000      23.467668       638.5877 
 325   0.0000      23.492466       639.2625 
 326   0.0000      23.519059       639.9861 
 327   0.0000      24.371368       663.1786 
 328   0.0000      24.379162       663.3907 
 329   0.0000      24.411734       664.2771 
 330   0.0000      33.391971       908.6417 
 331   0.0000      33.435789       909.8341 
 332   0.0000      33.468385       910.7210 

                    ********************************
                    * MULLIKEN POPULATION ANALYSIS *
                    ********************************

-----------------------
MULLIKEN ATOMIC CHARGES
-----------------------
   0 C :   -0.180812
   1 H :    0.199031
   2 H :    0.147292
   3 H :    0.149410
   4 C :   -0.061654
   5 N :   -0.253085
   6 C :   -0.146287
   7 H :    0.155790
   8 H :    0.169773
   9 H :    0.156937
  10 C :   -0.070543
  11 N :   -0.265852
  12 C :   -0.167079
  13 H :    0.156557
  14 H :    0.155982
  15 H :    0.155763
  16 C :   -0.105928
  17 N :   -0.195294
Sum of atomic charges:    0.0000000

--------------------------------
MULLIKEN REDUCED ORBITAL CHARGES
--------------------------------
  0 C s       :     3.158951  s :     3.158951
      pz      :     0.779245  p :     2.957105
      px      :     1.069713
      py      :     1.108147
      dz2     :     0.017859  d :     0.061275
      dxz     :     0.010092
      dyz     :     0.011512
      dx2y2   :     0.010524
      dxy     :     0.011288
      f0      :     0.001746  f :     0.003481
      f+1     :     0.000185
      f-1     :     0.000203
      f+2     :     0.000049
      f-2     :     0.000075
      f+3     :     0.000494
      f-3     :     0.000729
  1 H s       :     0.777746  s :     0.777746
      pz      :     0.004638  p :     0.023222
      px      :     0.004092
      py      :     0.014493
  2 H s       :     0.830329  s :     0.830329
      pz      :     0.004757  p :     0.022380
      px      :     0.012949
      py      :     0.004674
  3 H s       :     0.828212  s :     0.828212
      pz      :     0.005029  p :     0.022378
      px      :     0.008849
      py      :     0.008500
  4 C s       :     3.246120  s :     3.246120
      pz      :     0.958499  p :     2.680412
      px      :     0.868510
      py      :     0.853403
      dz2     :     0.026036  d :     0.117728
      dxz     :     0.044729
      dyz     :     0.046045
      dx2y2   :     0.000580
      dxy     :     0.000339
      f0      :     0.004069  f :     0.017394
      f+1     :     0.006550
      f-1     :     0.006701
      f+2     :     0.000036
      f-2     :     0.000031
      f+3     :     0.000002
      f-3     :     0.000004
  5 N s       :     3.731993  s :     3.731993
      pz      :     1.280911  p :     3.464439
      px      :     1.087475
      py      :     1.096054
      dz2     :     0.011246  d :     0.053717
      dxz     :     0.021207
      dyz     :     0.021200
      dx2y2   :     0.000040
      dxy     :     0.000024
      f0      :     0.000619  f :     0.002935
      f+1     :     0.001162
      f-1     :     0.001151
      f+2     :     0.000001
      f-2     :     0.000001
      f+3     :     0.000001
      f-3     :     0.000001
  6 C s       :     3.129245  s :     3.129245
      pz      :     0.776353  p :     2.952398
      px      :     1.098833
      py      :     1.077212
      dz2     :     0.016894  d :     0.061187
      dxz     :     0.010032
      dyz     :     0.011441
      dx2y2   :     0.011549
      dxy     :     0.011271
      f0      :     0.001735  f :     0.003456
      f+1     :     0.000185
      f-1     :     0.000198
      f+2     :     0.000060
      f-2     :     0.000077
      f+3     :     0.000776
      f-3     :     0.000424
  7 H s       :     0.821978  s :     0.821978
      pz      :     0.005365  p :     0.022232
      px      :     0.004596
      py      :     0.012271
  8 H s       :     0.807409  s :     0.807409
      pz      :     0.004611  p :     0.022817
      px      :     0.007935
      py      :     0.010270
  9 H s       :     0.820403  s :     0.820403
      pz      :     0.004670  p :     0.022661
      px      :     0.013556
      py      :     0.004435
 10 C s       :     3.255889  s :     3.255889
      pz      :     0.963579  p :     2.681751
      px      :     0.864281
      py      :     0.853890
      dz2     :     0.024274  d :     0.115535
      dxz     :     0.044780
      dyz     :     0.045329
      dx2y2   :     0.000592
      dxy     :     0.000560
      f0      :     0.004068  f :     0.017369
      f+1     :     0.006547
      f-1     :     0.006622
      f+2     :     0.000054
      f-2     :     0.000070
      f+3     :     0.000002
      f-3     :     0.000005
 11 N s       :     3.737223  s :     3.737223
      pz      :     1.276853  p :     3.472415
      px      :     1.091904
      py      :     1.103657
      dz2     :     0.011035  d :     0.053272
      dxz     :     0.021028
      dyz     :     0.020952
      dx2y2   :     0.000165
      dxy     :     0.000092
      f0      :     0.000622  f :     0.002942
      f+1     :     0.001164
      f-1     :     0.001144
      f+2     :     0.000006
      f-2     :     0.000005
      f+3     :     0.000000
      f-3     :     0.000001
 12 C s       :     3.149085  s :     3.149085
      pz      :     0.795289  p :     2.952429
      px      :     1.078553
      py      :     1.078588
      dz2     :     0.017756  d :     0.062088
      dxz     :     0.012130
      dyz     :     0.010763
      dx2y2   :     0.010394
      dxy     :     0.011046
      f0      :     0.001707  f :     0.003476
      f+1     :     0.000220
      f-1     :     0.000203
      f+2     :     0.000057
      f-2     :     0.000081
      f+3     :     0.000544
      f-3     :     0.000664
 13 H s       :     0.821076  s :     0.821076
      pz      :     0.005287  p :     0.022367
      px      :     0.012661
      py      :     0.004419
 14 H s       :     0.821608  s :     0.821608
      pz      :     0.004727  p :     0.022410
      px      :     0.009185
      py      :     0.008498
 15 H s       :     0.821891  s :     0.821891
      pz      :     0.004642  p :     0.022346
      px      :     0.004372
      py      :     0.013332
 16 C s       :     3.233676  s :     3.233676
      pz      :     0.967824  p :     2.741200
      px      :     0.886666
      py      :     0.886710
      dz2     :     0.026767  d :     0.113717
      dxz     :     0.043179
      dyz     :     0.042848
      dx2y2   :     0.000264
      dxy     :     0.000659
      f0      :     0.004187  f :     0.017334
      f+1     :     0.006456
      f-1     :     0.006490
      f+2     :     0.000089
      f-2     :     0.000111
      f+3     :     0.000000
      f-3     :     0.000000
 17 N s       :     3.716632  s :     3.716632
      pz      :     1.285677  p :     3.420612
      px      :     1.067975
      py      :     1.066960
      dz2     :     0.011789  d :     0.055081
      dxz     :     0.021469
      dyz     :     0.021618
      dx2y2   :     0.000106
      dxy     :     0.000099
      f0      :     0.000637  f :     0.002969
      f+1     :     0.001144
      f-1     :     0.001160
      f+2     :     0.000014
      f-2     :     0.000014
      f+3     :     0.000000
      f-3     :     0.000000


                     *******************************
                     * LOEWDIN POPULATION ANALYSIS *
                     *******************************

----------------------
LOEWDIN ATOMIC CHARGES
----------------------
   0 C :   -0.243742
   1 H :    0.151191
   2 H :    0.143086
   3 H :    0.141671
   4 C :   -0.184403
   5 N :   -0.004707
   6 C :   -0.245053
   7 H :    0.140220
   8 H :    0.148513
   9 H :    0.149052
  10 C :   -0.182850
  11 N :   -0.012980
  12 C :   -0.245307
  13 H :    0.144657
  14 H :    0.142695
  15 H :    0.144524
  16 C :   -0.199240
  17 N :    0.012671

-------------------------------
LOEWDIN REDUCED ORBITAL CHARGES
-------------------------------
  0 C s       :     2.813491  s :     2.813491
      pz      :     1.021153  p :     3.147564
      px      :     1.056930
      py      :     1.069481
      dz2     :     0.079244  d :     0.257502
      dxz     :     0.058397
      dyz     :     0.059352
      dx2y2   :     0.029149
      dxy     :     0.031360
      f0      :     0.007594  f :     0.025185
      f+1     :     0.005066
      f-1     :     0.004905
      f+2     :     0.002046
      f-2     :     0.002309
      f+3     :     0.001319
      f-3     :     0.001947
  1 H s       :     0.784684  s :     0.784684
      pz      :     0.012472  p :     0.064125
      px      :     0.013174
      py      :     0.038478
  2 H s       :     0.796317  s :     0.796317
      pz      :     0.012410  p :     0.060597
      px      :     0.033522
      py      :     0.014666
  3 H s       :     0.797410  s :     0.797410
      pz      :     0.012981  p :     0.060918
      px      :     0.024274
      py      :     0.023663
  4 C s       :     2.840604  s :     2.840604
      pz      :     1.195010  p :     2.826003
      px      :     0.819018
      py      :     0.811975
      dz2     :     0.154736  d :     0.458283
      dxz     :     0.150028
      dyz     :     0.152146
      dx2y2   :     0.000958
      dxy     :     0.000415
      f0      :     0.022921  f :     0.059513
      f+1     :     0.017949
      f-1     :     0.018497
      f+2     :     0.000077
      f-2     :     0.000057
      f+3     :     0.000004
      f-3     :     0.000009
  5 N s       :     3.307850  s :     3.307850
      pz      :     1.495129  p :     3.574208
      px      :     1.039744
      py      :     1.039335
      dz2     :     0.045618  d :     0.108527
      dxz     :     0.031466
      dyz     :     0.031354
      dx2y2   :     0.000053
      dxy     :     0.000037
      f0      :     0.006244  f :     0.014122
      f+1     :     0.003953
      f-1     :     0.003917
      f+2     :     0.000004
      f-2     :     0.000004
      f+3     :     0.000000
      f-3     :     0.000000
  6 C s       :     2.814316  s :     2.814316
      pz      :     1.018038  p :     3.146958
      px      :     1.066395
      py      :     1.062525
      dz2     :     0.078692  d :     0.258711
      dxz     :     0.056178
      dyz     :     0.061609
      dx2y2   :     0.031019
      dxy     :     0.031212
      f0      :     0.007569  f :     0.025067
      f+1     :     0.005096
      f-1     :     0.004664
      f+2     :     0.002336
      f-2     :     0.002130
      f+3     :     0.002106
      f-3     :     0.001166
  7 H s       :     0.799133  s :     0.799133
      pz      :     0.013660  p :     0.060646
      px      :     0.014575
      py      :     0.032411
  8 H s       :     0.789475  s :     0.789475
      pz      :     0.012226  p :     0.062011
      px      :     0.022516
      py      :     0.027269
  9 H s       :     0.789898  s :     0.789898
      pz      :     0.012226  p :     0.061050
      px      :     0.035203
      py      :     0.013620
 10 C s       :     2.841694  s :     2.841694
      pz      :     1.194965  p :     2.823819
      px      :     0.817136
      py      :     0.811719
      dz2     :     0.154445  d :     0.457734
      dxz     :     0.150818
      dyz     :     0.150364
      dx2y2   :     0.001109
      dxy     :     0.000998
      f0      :     0.022854  f :     0.059603
      f+1     :     0.017956
      f-1     :     0.018504
      f+2     :     0.000116
      f-2     :     0.000158
      f+3     :     0.000005
      f-3     :     0.000010
 11 N s       :     3.307474  s :     3.307474
      pz      :     1.495239  p :     3.583269
      px      :     1.042762
      py      :     1.045269
      dz2     :     0.045436  d :     0.108082
      dxz     :     0.031158
      dyz     :     0.031211
      dx2y2   :     0.000175
      dxy     :     0.000103
      f0      :     0.006249  f :     0.014153
      f+1     :     0.003935
      f-1     :     0.003927
      f+2     :     0.000023
      f-2     :     0.000018
      f+3     :     0.000000
      f-3     :     0.000001
 12 C s       :     2.814401  s :     2.814401
      pz      :     1.024783  p :     3.143418
      px      :     1.059454
      py      :     1.059180
      dz2     :     0.077293  d :     0.262161
      dxz     :     0.064333
      dyz     :     0.058948
      dx2y2   :     0.029308
      dxy     :     0.032280
      f0      :     0.007316  f :     0.025328
      f+1     :     0.004906
      f-1     :     0.005318
      f+2     :     0.002375
      f-2     :     0.002158
      f+3     :     0.001467
      f-3     :     0.001787
 13 H s       :     0.794679  s :     0.794679
      pz      :     0.013527  p :     0.060664
      px      :     0.033228
      py      :     0.013909
 14 H s       :     0.796332  s :     0.796332
      pz      :     0.012433  p :     0.060973
      px      :     0.025005
      py      :     0.023535
 15 H s       :     0.794893  s :     0.794893
      pz      :     0.012253  p :     0.060583
      px      :     0.013742
      py      :     0.034588
 16 C s       :     2.839023  s :     2.839023
      pz      :     1.190788  p :     2.853141
      px      :     0.831932
      py      :     0.830421
      dz2     :     0.154140  d :     0.448311
      dxz     :     0.146761
      dyz     :     0.145636
      dx2y2   :     0.000488
      dxy     :     0.001285
      f0      :     0.022962  f :     0.058766
      f+1     :     0.017776
      f-1     :     0.017530
      f+2     :     0.000225
      f-2     :     0.000270
      f+3     :     0.000001
      f-3     :     0.000001
 17 N s       :     3.314313  s :     3.314313
      pz      :     1.493546  p :     3.547128
      px      :     1.027894
      py      :     1.025687
      dz2     :     0.045724  d :     0.111494
      dxz     :     0.032820
      dyz     :     0.032636
      dx2y2   :     0.000162
      dxy     :     0.000151
      f0      :     0.006188  f :     0.014394
      f+1     :     0.004084
      f-1     :     0.004024
      f+2     :     0.000051
      f-2     :     0.000047
      f+3     :     0.000000
      f-3     :     0.000000


                      *****************************
                      * MAYER POPULATION ANALYSIS *
                      *****************************

  NA   - Mulliken gross atomic population
  ZA   - Total nuclear charge
  QA   - Mulliken gross atomic charge
  VA   - Mayer's total valence
  BVA  - Mayer's bonded valence
  FA   - Mayer's free valence

  ATOM       NA         ZA         QA         VA         BVA        FA
  0 C      6.1808     6.0000    -0.1808     3.7856     3.7856     0.0000
  1 H      0.8010     1.0000     0.1990     0.9611     0.9611     0.0000
  2 H      0.8527     1.0000     0.1473     0.9634     0.9634    -0.0000
  3 H      0.8506     1.0000     0.1494     0.9626     0.9626    -0.0000
  4 C      6.0617     6.0000    -0.0617     3.8804     3.8804     0.0000
  5 N      7.2531     7.0000    -0.2531     3.0007     3.0007     0.0000
  6 C      6.1463     6.0000    -0.1463     3.7954     3.7954     0.0000
  7 H      0.8442     1.0000     0.1558     0.9564     0.9564     0.0000
  8 H      0.8302     1.0000     0.1698     0.9667     0.9667     0.0000
  9 H      0.8431     1.0000     0.1569     0.9696     0.9696     0.0000
 10 C      6.0705     6.0000    -0.0705     3.8982     3.8982     0.0000
 11 N      7.2659     7.0000    -0.2659     2.9890     2.9890     0.0000
 12 C      6.1671     6.0000    -0.1671     3.8079     3.8079     0.0000
 13 H      0.8434     1.0000     0.1566     0.9617     0.9617     0.0000
 14 H      0.8440     1.0000     0.1560     0.9619     0.9619     0.0000
 15 H      0.8442     1.0000     0.1558     0.9618     0.9618     0.0000
 16 C      6.1059     6.0000    -0.1059     3.9218     3.9218     0.0000
 17 N      7.1953     7.0000    -0.1953     3.0370     3.0370     0.0000

  Mayer bond orders larger than 0.100000
B(  0-C ,  1-H ) :   0.9499 B(  0-C ,  2-H ) :   0.9626 B(  0-C ,  3-H ) :   0.9641 
B(  0-C ,  4-C ) :   0.9229 B(  4-C ,  5-N ) :   2.9672 B(  6-C ,  7-H ) :   0.9572 
B(  6-C ,  8-H ) :   0.9567 B(  6-C ,  9-H ) :   0.9604 B(  6-C , 10-C ) :   0.9385 
B( 10-C , 11-N ) :   2.9538 B( 12-C , 13-H ) :   0.9631 B( 12-C , 14-H ) :   0.9630 
B( 12-C , 15-H ) :   0.9632 B( 12-C , 16-C ) :   0.9294 B( 16-C , 17-N ) :   3.0115 


-------
TIMINGS
-------

Total SCF time: 0 days 0 hours 0 min 33 sec 

Total time                  ....      33.694 sec
Sum of individual times     ....      33.399 sec  ( 99.1%)

Fock matrix formation       ....      32.813 sec  ( 97.4%)
Diagonalization             ....       0.141 sec  (  0.4%)
Density matrix formation    ....       0.019 sec  (  0.1%)
Population analysis         ....       0.034 sec  (  0.1%)
Initial guess               ....       0.167 sec  (  0.5%)
Orbital Transformation      ....       0.000 sec  (  0.0%)
Orbital Orthonormalization  ....       0.000 sec  (  0.0%)
DIIS solution               ....       0.053 sec  (  0.2%)
SOSCF solution              ....       0.105 sec  (  0.3%)


           ************************************************************
           *        Program running with 6 parallel MPI-processes     *
           *              working on a common directory               *
           ************************************************************

------------------------------------------------------------------------------
                                ORCA  MP2 
------------------------------------------------------------------------------

Freezing NCore=18 chemical core electrons
MP2 will be done in the AO integral direct mode
The Q1-step will be done using symmetric double matrices
Dimension of the basis                    ...  333
Memory devoted for MP2                    ... 8000 MB   
Memory needed for all in one shot         ...  566 MB
Number of MOs that can be treated together...   55      
MP2 density construction                  ... relaxed
The MP2 gradient is requested => amplitudes will be stored on disk
Total number of MOs              ...   24
Number of MOs treated per batch  ...    4 
Number of batches necessary      ...    1 
OPERATORS   0/  0 PASS   0
-----------------------------------------------
 MP2 CORRELATION ENERGY   :     -1.530607661 Eh
-----------------------------------------------


---------------------
MP2 DENSITY FORMATION
---------------------

Completing the external part of the density      ... done
Storing the unrelaxed density                    ... done

Calculating G(D)                                 ... done
Completing the Lagrangian                        ... done
Solving the Z-vector equations                   ... 

------------------------------------------------------------------------------
                           ORCA CP-SCF CALCULATION
------------------------------------------------------------------------------

Input orbitals are from        ... 12mecn.remya.etal.2.mol1,3,11-orca.engrad-mp2.def2tzvp.frozencore.gbw
Input Perturbation             ... 12mecn.remya.etal.2.mol1,3,11-orca.engrad-mp2.def2tzvp.frozencore.pin.tmp
Wavefunction output            ... 12mecn.remya.etal.2.mol1,3,11-orca.engrad-mp2.def2tzvp.frozencore.pout.tmp
Perturbation mode              ... Real perturbation (singlet)
Solver                         ... POPLE
Max. number of iterations      ... 128
Convergence tolerance          ... 1.000e-08
Integral handling              ... Direct
Number of perturbations        ... 1
Number of operators            ... 1
Orbital ranges used for CP-SCF:
 Operator 0:  Orbitals   0... 32  to  33...332
Variables per vector in CP-SCF ... 9900
Number of vectors sought       ... 1
     CP-SCF ITERATION   0: 
     CP-SCF ITERATION   1:      0.001506470607
     CP-SCF ITERATION   2:      0.000261782446
     CP-SCF ITERATION   3:      0.000009491218
     CP-SCF ITERATION   4:      0.000002181006
     CP-SCF ITERATION   5:      0.000001005046
     CP-SCF ITERATION   6:      0.000000135989
     CP-SCF ITERATION   7:      0.000000014310
     CP-SCF ITERATION   8:      0.000000000809
                                                 ... done
Finalizing the relaxed density                   ... done
Transforming P to the AO basis                   ... done
Storing the relaxed density                      ... done

------------------------------------
ENERGY WEIGHTED DENSITY FINALIZATION
------------------------------------

Gathering the parts of the W-matrix              ...                                                      done
Forming the Z-density                            ... done
Transforming Z to the AO basis                   ... done
Calculating G(Z)                                 ... done
Finalizing the W-matrix                          ...                                                      done
Transforming W to the AO basis and storing       ... done

                *********************************************
                * UNRELAXED MP2 DENSITY POPULATION ANALYSIS *
                *********************************************

------------------------------------------------------------------------------
                           ORCA POPULATION ANALYSIS
------------------------------------------------------------------------------
Input electron density              ... 12mecn.remya.etal.2.mol1,3,11-orca.engrad-mp2.def2tzvp.frozencore.pmp2ur
BaseName (.gbw .S,...)              ... 12mecn.remya.etal.2.mol1,3,11-orca.engrad-mp2.def2tzvp.frozencore

                    ********************************
                    * MULLIKEN POPULATION ANALYSIS *
                    ********************************

-----------------------
MULLIKEN ATOMIC CHARGES
-----------------------
   0 C :   -0.193153
   1 H :    0.200791
   2 H :    0.149982
   3 H :    0.152094
   4 C :   -0.072295
   5 N :   -0.237120
   6 C :   -0.160118
   7 H :    0.158507
   8 H :    0.172311
   9 H :    0.159749
  10 C :   -0.080901
  11 N :   -0.249847
  12 C :   -0.180314
  13 H :    0.159124
  14 H :    0.158557
  15 H :    0.158333
  16 C :   -0.114622
  17 N :   -0.181078
Sum of atomic charges:    0.0000000

--------------------------------
MULLIKEN REDUCED ORBITAL CHARGES
--------------------------------
  0 C s       :     3.157093  s :     3.157093
      pz      :     0.778106  p :     2.941622
      px      :     1.063035
      py      :     1.100480
      dz2     :     0.020337  d :     0.087086
      dxz     :     0.016193
      dyz     :     0.017678
      dx2y2   :     0.016063
      dxy     :     0.016814
      f0      :     0.002142  f :     0.007353
      f+1     :     0.000848
      f-1     :     0.000876
      f+2     :     0.000591
      f-2     :     0.000616
      f+3     :     0.001032
      f-3     :     0.001247
  1 H s       :     0.773315  s :     0.773315
      pz      :     0.005613  p :     0.025894
      px      :     0.005092
      py      :     0.015189
  2 H s       :     0.824792  s :     0.824792
      pz      :     0.005762  p :     0.025225
      px      :     0.013759
      py      :     0.005704
  3 H s       :     0.822682  s :     0.822682
      pz      :     0.006026  p :     0.025224
      px      :     0.009764
      py      :     0.009434
  4 C s       :     3.245487  s :     3.245487
      pz      :     0.949450  p :     2.673431
      px      :     0.869225
      py      :     0.854756
      dz2     :     0.028427  d :     0.133033
      dxz     :     0.046736
      dyz     :     0.048001
      dx2y2   :     0.005048
      dxy     :     0.004821
      f0      :     0.004534  f :     0.020344
      f+1     :     0.006987
      f-1     :     0.007127
      f+2     :     0.000595
      f-2     :     0.000587
      f+3     :     0.000255
      f-3     :     0.000258
  5 N s       :     3.719428  s :     3.719428
      pz      :     1.268579  p :     3.435611
      px      :     1.079552
      py      :     1.087481
      dz2     :     0.015544  d :     0.076416
      dxz     :     0.025358
      dyz     :     0.025406
      dx2y2   :     0.005054
      dxy     :     0.005054
      f0      :     0.001048  f :     0.005666
      f+1     :     0.001610
      f-1     :     0.001600
      f+2     :     0.000420
      f-2     :     0.000420
      f+3     :     0.000283
      f-3     :     0.000283
  6 C s       :     3.127957  s :     3.127957
      pz      :     0.775306  p :     2.937859
      px      :     1.091776
      py      :     1.070777
      dz2     :     0.019416  d :     0.086989
      dxz     :     0.016195
      dyz     :     0.017479
      dx2y2   :     0.017112
      dxy     :     0.016786
      f0      :     0.002131  f :     0.007313
      f+1     :     0.000849
      f-1     :     0.000864
      f+2     :     0.000602
      f-2     :     0.000619
      f+3     :     0.001282
      f-3     :     0.000967
  7 H s       :     0.816418  s :     0.816418
      pz      :     0.006352  p :     0.025075
      px      :     0.005622
      py      :     0.013101
  8 H s       :     0.802106  s :     0.802106
      pz      :     0.005603  p :     0.025582
      px      :     0.008865
      py      :     0.011114
  9 H s       :     0.814798  s :     0.814798
      pz      :     0.005664  p :     0.025453
      px      :     0.014338
      py      :     0.005451
 10 C s       :     3.254769  s :     3.254769
      pz      :     0.954519  p :     2.675031
      px      :     0.865196
      py      :     0.855315
      dz2     :     0.026685  d :     0.130793
      dxz     :     0.046775
      dyz     :     0.047306
      dx2y2   :     0.005017
      dxy     :     0.005011
      f0      :     0.004534  f :     0.020308
      f+1     :     0.006982
      f-1     :     0.007046
      f+2     :     0.000608
      f-2     :     0.000624
      f+3     :     0.000255
      f-3     :     0.000258
 11 N s       :     3.724852  s :     3.724852
      pz      :     1.264546  p :     3.443241
      px      :     1.083778
      py      :     1.094916
      dz2     :     0.015355  d :     0.076077
      dxz     :     0.025208
      dyz     :     0.025205
      dx2y2   :     0.005192
      dxy     :     0.005117
      f0      :     0.001052  f :     0.005678
      f+1     :     0.001613
      f-1     :     0.001594
      f+2     :     0.000426
      f-2     :     0.000424
      f+3     :     0.000284
      f-3     :     0.000285
 12 C s       :     3.147472  s :     3.147472
      pz      :     0.794073  p :     2.937895
      px      :     1.071896
      py      :     1.071926
      dz2     :     0.020269  d :     0.087613
      dxz     :     0.018134
      dyz     :     0.016881
      dx2y2   :     0.015854
      dxy     :     0.016474
      f0      :     0.002106  f :     0.007335
      f+1     :     0.000886
      f-1     :     0.000868
      f+2     :     0.000597
      f-2     :     0.000622
      f+3     :     0.001073
      f-3     :     0.001182
 13 H s       :     0.815693  s :     0.815693
      pz      :     0.006267  p :     0.025184
      px      :     0.013473
      py      :     0.005444
 14 H s       :     0.816218  s :     0.816218
      pz      :     0.005724  p :     0.025225
      px      :     0.010084
      py      :     0.009416
 15 H s       :     0.816502  s :     0.816502
      pz      :     0.005642  p :     0.025164
      px      :     0.005398
      py      :     0.014124
 16 C s       :     3.233119  s :     3.233119
      pz      :     0.958973  p :     2.731833
      px      :     0.886402
      py      :     0.886458
      dz2     :     0.029236  d :     0.129370
      dxz     :     0.045299
      dyz     :     0.044968
      dx2y2   :     0.004740
      dxy     :     0.005126
      f0      :     0.004650  f :     0.020299
      f+1     :     0.006899
      f-1     :     0.006933
      f+2     :     0.000640
      f-2     :     0.000663
      f+3     :     0.000257
      f-3     :     0.000257
 17 N s       :     3.703884  s :     3.703884
      pz      :     1.273416  p :     3.394526
      px      :     1.061050
      py      :     1.060060
      dz2     :     0.015968  d :     0.076999
      dxz     :     0.025484
      dyz     :     0.025630
      dx2y2   :     0.004962
      dxy     :     0.004955
      f0      :     0.001064  f :     0.005669
      f+1     :     0.001588
      f-1     :     0.001606
      f+2     :     0.000428
      f-2     :     0.000428
      f+3     :     0.000278
      f-3     :     0.000278


                     *******************************
                     * LOEWDIN POPULATION ANALYSIS *
                     *******************************

----------------------
LOEWDIN ATOMIC CHARGES
----------------------
   0 C :   -0.251738
   1 H :    0.152744
   2 H :    0.144747
   3 H :    0.143345
   4 C :   -0.190372
   5 N :    0.004391
   6 C :   -0.253189
   7 H :    0.141906
   8 H :    0.150188
   9 H :    0.150735
  10 C :   -0.188959
  11 N :   -0.003798
  12 C :   -0.253389
  13 H :    0.146322
  14 H :    0.144384
  15 H :    0.146188
  16 C :   -0.204401
  17 N :    0.020896

-------------------------------
LOEWDIN REDUCED ORBITAL CHARGES
-------------------------------
  0 C s       :     2.811708  s :     2.811708
      pz      :     1.012619  p :     3.122497
      px      :     1.048880
      py      :     1.060999
      dz2     :     0.084419  d :     0.286303
      dxz     :     0.064329
      dyz     :     0.065391
      dx2y2   :     0.035010
      dxy     :     0.037154
      f0      :     0.008713  f :     0.031230
      f+1     :     0.006128
      f-1     :     0.005980
      f+2     :     0.002714
      f-2     :     0.002984
      f+3     :     0.002023
      f-3     :     0.002689
  1 H s       :     0.778553  s :     0.778553
      pz      :     0.013871  p :     0.068703
      px      :     0.014385
      py      :     0.040447
  2 H s       :     0.789858  s :     0.789858
      pz      :     0.013815  p :     0.065395
      px      :     0.035626
      py      :     0.015954
  3 H s       :     0.790945  s :     0.790945
      pz      :     0.014409  p :     0.065710
      px      :     0.025960
      py      :     0.025341
  4 C s       :     2.837194  s :     2.837194
      pz      :     1.182388  p :     2.808801
      px      :     0.816551
      py      :     0.809862
      dz2     :     0.162044  d :     0.477223
      dxz     :     0.151397
      dyz     :     0.153420
      dx2y2   :     0.005459
      dxy     :     0.004902
      f0      :     0.024542  f :     0.067153
      f+1     :     0.020042
      f-1     :     0.020565
      f+2     :     0.000751
      f-2     :     0.000731
      f+3     :     0.000258
      f-3     :     0.000264
  5 N s       :     3.300054  s :     3.300054
      pz      :     1.479039  p :     3.537863
      px      :     1.029776
      py      :     1.029048
      dz2     :     0.052587  d :     0.139095
      dxz     :     0.038251
      dyz     :     0.038231
      dx2y2   :     0.005034
      dxy     :     0.004992
      f0      :     0.007316  f :     0.018597
      f+1     :     0.004928
      f-1     :     0.004903
      f+2     :     0.000442
      f-2     :     0.000441
      f+3     :     0.000283
      f-3     :     0.000284
  6 C s       :     2.812537  s :     2.812537
      pz      :     1.009555  p :     3.122122
      px      :     1.058170
      py      :     1.054397
      dz2     :     0.083862  d :     0.287433
      dxz     :     0.062143
      dyz     :     0.067596
      dx2y2   :     0.036810
      dxy     :     0.037022
      f0      :     0.008685  f :     0.031097
      f+1     :     0.006159
      f-1     :     0.005728
      f+2     :     0.003013
      f-2     :     0.002804
      f+3     :     0.002852
      f-3     :     0.001857
  7 H s       :     0.792650  s :     0.792650
      pz      :     0.015124  p :     0.065443
      px      :     0.015851
      py      :     0.034468
  8 H s       :     0.783135  s :     0.783135
      pz      :     0.013610  p :     0.066676
      px      :     0.024104
      py      :     0.028962
  9 H s       :     0.783500  s :     0.783500
      pz      :     0.013615  p :     0.065766
      px      :     0.037293
      py      :     0.014857
 10 C s       :     2.838258  s :     2.838258
      pz      :     1.182375  p :     2.806886
      px      :     0.814829
      py      :     0.809682
      dz2     :     0.161693  d :     0.476596
      dxz     :     0.152135
      dyz     :     0.151729
      dx2y2   :     0.005591
      dxy     :     0.005448
      f0      :     0.024481  f :     0.067219
      f+1     :     0.020036
      f-1     :     0.020545
      f+2     :     0.000795
      f-2     :     0.000838
      f+3     :     0.000259
      f-3     :     0.000264
 11 N s       :     3.299733  s :     3.299733
      pz      :     1.479169  p :     3.546677
      px      :     1.032661
      py      :     1.034847
      dz2     :     0.052419  d :     0.138753
      dxz     :     0.037972
      dyz     :     0.038151
      dx2y2   :     0.005155
      dxy     :     0.005057
      f0      :     0.007320  f :     0.018634
      f+1     :     0.004910
      f-1     :     0.004914
      f+2     :     0.000464
      f-2     :     0.000458
      f+3     :     0.000284
      f-3     :     0.000286
 12 C s       :     2.812593  s :     2.812593
      pz      :     1.016298  p :     3.118985
      px      :     1.051477
      py      :     1.051210
      dz2     :     0.082483  d :     0.290470
      dxz     :     0.070182
      dyz     :     0.064799
      dx2y2   :     0.035016
      dxy     :     0.037990
      f0      :     0.008434  f :     0.031341
      f+1     :     0.005960
      f-1     :     0.006376
      f+2     :     0.003052
      f-2     :     0.002833
      f+3     :     0.002174
      f-3     :     0.002512
 13 H s       :     0.788274  s :     0.788274
      pz      :     0.014976  p :     0.065404
      px      :     0.035265
      py      :     0.015163
 14 H s       :     0.789909  s :     0.789909
      pz      :     0.013826  p :     0.065708
      px      :     0.026708
      py      :     0.025173
 15 H s       :     0.788487  s :     0.788487
      pz      :     0.013643  p :     0.065325
      px      :     0.014992
      py      :     0.036690
 16 C s       :     2.835741  s :     2.835741
      pz      :     1.178287  p :     2.834403
      px      :     0.828796
      py      :     0.827320
      dz2     :     0.161415  d :     0.467788
      dxz     :     0.148419
      dyz     :     0.147256
      dx2y2   :     0.004965
      dxy     :     0.005732
      f0      :     0.024583  f :     0.066469
      f+1     :     0.019875
      f-1     :     0.019638
      f+2     :     0.000902
      f-2     :     0.000954
      f+3     :     0.000259
      f-3     :     0.000259
 17 N s       :     3.306490  s :     3.306490
      pz      :     1.477691  p :     3.512768
      px      :     1.018625
      py      :     1.016451
      dz2     :     0.052548  d :     0.141026
      dxz     :     0.039383
      dyz     :     0.039195
      dx2y2   :     0.004955
      dxy     :     0.004944
      f0      :     0.007256  f :     0.018820
      f+1     :     0.005048
      f-1     :     0.004985
      f+2     :     0.000490
      f-2     :     0.000486
      f+3     :     0.000278
      f-3     :     0.000278


                      *****************************
                      * MAYER POPULATION ANALYSIS *
                      *****************************

  NA   - Mulliken gross atomic population
  ZA   - Total nuclear charge
  QA   - Mulliken gross atomic charge
  VA   - Mayer's total valence
  BVA  - Mayer's bonded valence
  FA   - Mayer's free valence

  ATOM       NA         ZA         QA         VA         BVA        FA
  0 C      6.1932     6.0000    -0.1932     3.9037     3.6194     0.2842
  1 H      0.7992     1.0000     0.2008     0.9679     0.9208     0.0470
  2 H      0.8500     1.0000     0.1500     0.9712     0.9229     0.0483
  3 H      0.8479     1.0000     0.1521     0.9703     0.9222     0.0481
  4 C      6.0723     6.0000    -0.0723     3.9816     3.5454     0.4362
  5 N      7.2371     7.0000    -0.2371     3.2043     2.7128     0.4915
  6 C      6.1601     6.0000    -0.1601     3.9146     3.6297     0.2849
  7 H      0.8415     1.0000     0.1585     0.9640     0.9163     0.0477
  8 H      0.8277     1.0000     0.1723     0.9736     0.9263     0.0472
  9 H      0.8403     1.0000     0.1597     0.9766     0.9291     0.0475
 10 C      6.0809     6.0000    -0.0809     3.9980     3.5637     0.4343
 11 N      7.2498     7.0000    -0.2498     3.1943     2.7023     0.4920
 12 C      6.1803     6.0000    -0.1803     3.9255     3.6426     0.2829
 13 H      0.8409     1.0000     0.1591     0.9692     0.9216     0.0476
 14 H      0.8414     1.0000     0.1586     0.9694     0.9219     0.0474
 15 H      0.8417     1.0000     0.1583     0.9693     0.9216     0.0477
 16 C      6.1146     6.0000    -0.1146     4.0231     3.5851     0.4381
 17 N      7.1811     7.0000    -0.1811     3.2323     2.7469     0.4855

  Mayer bond orders larger than 0.100000
B(  0-C ,  1-H ) :   0.9126 B(  0-C ,  2-H ) :   0.9249 B(  0-C ,  3-H ) :   0.9265 
B(  0-C ,  4-C ) :   0.8712 B(  4-C ,  5-N ) :   2.6868 B(  6-C ,  7-H ) :   0.9198 
B(  6-C ,  8-H ) :   0.9193 B(  6-C ,  9-H ) :   0.9228 B(  6-C , 10-C ) :   0.8863 
B( 10-C , 11-N ) :   2.6746 B( 12-C , 13-H ) :   0.9256 B( 12-C , 14-H ) :   0.9257 
B( 12-C , 15-H ) :   0.9257 B( 12-C , 16-C ) :   0.8778 B( 16-C , 17-N ) :   2.7283 



                *******************************************
                * RELAXED MP2 DENSITY POPULATION ANALYSIS *
                *******************************************

------------------------------------------------------------------------------
                           ORCA POPULATION ANALYSIS
------------------------------------------------------------------------------
Input electron density              ... 12mecn.remya.etal.2.mol1,3,11-orca.engrad-mp2.def2tzvp.frozencore.pmp2re
BaseName (.gbw .S,...)              ... 12mecn.remya.etal.2.mol1,3,11-orca.engrad-mp2.def2tzvp.frozencore

                    ********************************
                    * MULLIKEN POPULATION ANALYSIS *
                    ********************************

-----------------------
MULLIKEN ATOMIC CHARGES
-----------------------
   0 C :   -0.286891
   1 H :    0.205579
   2 H :    0.164973
   3 H :    0.166607
   4 C :   -0.111424
   5 N :   -0.139575
   6 C :   -0.263602
   7 H :    0.171269
   8 H :    0.184671
   9 H :    0.174246
  10 C :   -0.115532
  11 N :   -0.150321
  12 C :   -0.280749
  13 H :    0.172780
  14 H :    0.172265
  15 H :    0.172042
  16 C :   -0.145373
  17 N :   -0.090965
Sum of atomic charges:    0.0000000

--------------------------------
MULLIKEN REDUCED ORBITAL CHARGES
--------------------------------
  0 C s       :     3.190983  s :     3.190983
      pz      :     0.824597  p :     3.012353
      px      :     1.077266
      py      :     1.110490
      dz2     :     0.016028  d :     0.076478
      dxz     :     0.016386
      dyz     :     0.017680
      dx2y2   :     0.012923
      dxy     :     0.013461
      f0      :     0.001894  f :     0.007077
      f+1     :     0.000909
      f-1     :     0.000933
      f+2     :     0.000580
      f-2     :     0.000606
      f+3     :     0.000983
      f-3     :     0.001173
  1 H s       :     0.769697  s :     0.769697
      pz      :     0.005702  p :     0.024724
      px      :     0.005234
      py      :     0.013787
  2 H s       :     0.810899  s :     0.810899
      pz      :     0.005817  p :     0.024128
      px      :     0.012513
      py      :     0.005798
  3 H s       :     0.809264  s :     0.809264
      pz      :     0.006025  p :     0.024129
      px      :     0.009178
      py      :     0.008927
  4 C s       :     3.225662  s :     3.225662
      pz      :     0.975974  p :     2.758453
      px      :     0.893743
      py      :     0.888736
      dz2     :     0.024375  d :     0.108325
      dxz     :     0.036629
      dyz     :     0.037495
      dx2y2   :     0.005032
      dxy     :     0.004794
      f0      :     0.004372  f :     0.018984
      f+1     :     0.006409
      f-1     :     0.006517
      f+2     :     0.000591
      f-2     :     0.000583
      f+3     :     0.000255
      f-3     :     0.000258
  5 N s       :     3.666471  s :     3.666471
      pz      :     1.258879  p :     3.400287
      px      :     1.071607
      py      :     1.069801
      dz2     :     0.014516  d :     0.067620
      dxz     :     0.021449
      dyz     :     0.021528
      dx2y2   :     0.005068
      dxy     :     0.005058
[...]
      f+1     :     0.006401
      f-1     :     0.006433
      f+2     :     0.000603
      f-2     :     0.000616
      f+3     :     0.000255
      f-3     :     0.000258
 11 N s       :     3.673438  s :     3.673438
      pz      :     1.252881  p :     3.404383
      px      :     1.075028
      py      :     1.076473
      dz2     :     0.014256  d :     0.067288
      dxz     :     0.021325
      dyz     :     0.021406
      dx2y2   :     0.005197
      dxy     :     0.005104
      f0      :     0.000930  f :     0.005212
      f+1     :     0.001441
      f-1     :     0.001424
      f+2     :     0.000425
      f-2     :     0.000423
      f+3     :     0.000284
      f-3     :     0.000285
 12 C s       :     3.183454  s :     3.183454
      pz      :     0.840516  p :     3.012912
      px      :     1.086192
      py      :     1.086203
      dz2     :     0.016014  d :     0.077303
      dxz     :     0.018095
      dyz     :     0.017171
      dx2y2   :     0.012781
      dxy     :     0.013242
      f0      :     0.001872  f :     0.007080
      f+1     :     0.000944
      f-1     :     0.000929
      f+2     :     0.000587
      f-2     :     0.000612
      f+3     :     0.001020
      f-3     :     0.001117
 13 H s       :     0.803176  s :     0.803176
      pz      :     0.006233  p :     0.024044
      px      :     0.012264
      py      :     0.005548
 14 H s       :     0.803658  s :     0.803658
      pz      :     0.005764  p :     0.024077
      px      :     0.009435
      py      :     0.008877
 15 H s       :     0.803931  s :     0.803931
      pz      :     0.005713  p :     0.024027
      px      :     0.005509
      py      :     0.012806
 16 C s       :     3.212321  s :     3.212321
      pz      :     0.993374  p :     2.809350
      px      :     0.908054
      py      :     0.907922
      dz2     :     0.024409  d :     0.104744
      dxz     :     0.035493
      dyz     :     0.035123
      dx2y2   :     0.004685
      dxy     :     0.005033
      f0      :     0.004458  f :     0.018958
      f+1     :     0.006339
      f-1     :     0.006366
      f+2     :     0.000630
      f-2     :     0.000650
      f+3     :     0.000257
      f-3     :     0.000257
 17 N s       :     3.645138  s :     3.645138
      pz      :     1.263657  p :     3.372624
      px      :     1.054961
      py      :     1.054006
      dz2     :     0.014929  d :     0.068006
      dxz     :     0.021548
      dyz     :     0.021651
      dx2y2   :     0.004942
      dxy     :     0.004936
      f0      :     0.000946  f :     0.005196
      f+1     :     0.001414
      f-1     :     0.001429
      f+2     :     0.000426
      f-2     :     0.000426
      f+3     :     0.000278
      f-3     :     0.000278


                     *******************************
                     * LOEWDIN POPULATION ANALYSIS *
                     *******************************

----------------------
LOEWDIN ATOMIC CHARGES
----------------------
   0 C :   -0.282524
   1 H :    0.157073
   2 H :    0.151999
   3 H :    0.150499
   4 C :   -0.209567
   5 N :    0.035201
   6 C :   -0.284264
   7 H :    0.148793
   8 H :    0.156052
   9 H :    0.157253
  10 C :   -0.208386
  11 N :    0.027872
  12 C :   -0.284161
  13 H :    0.153064
  14 H :    0.151094
  15 H :    0.152955
  16 C :   -0.219363
  17 N :    0.046411

-------------------------------
LOEWDIN REDUCED ORBITAL CHARGES
-------------------------------
  0 C s       :     2.816753  s :     2.816753
      pz      :     1.031274  p :     3.158578
      px      :     1.058614
      py      :     1.068690
      dz2     :     0.076453  d :     0.275741
      dxz     :     0.065930
      dyz     :     0.067573
      dx2y2   :     0.032023
      dxy     :     0.033761
      f0      :     0.008151  f :     0.031453
      f+1     :     0.006548
      f-1     :     0.006475
      f+2     :     0.002703
      f-2     :     0.002967
      f+3     :     0.001980
      f-3     :     0.002628
  1 H s       :     0.774254  s :     0.774254
      pz      :     0.014390  p :     0.068673
      px      :     0.014824
      py      :     0.039458
  2 H s       :     0.782177  s :     0.782177
      pz      :     0.014358  p :     0.065824
      px      :     0.035114
      py      :     0.016352
  3 H s       :     0.783371  s :     0.783371
      pz      :     0.014908  p :     0.066131
      px      :     0.025889
      py      :     0.025333
  4 C s       :     2.841582  s :     2.841582
      pz      :     1.171510  p :     2.841472
      px      :     0.835041
      py      :     0.834921
      dz2     :     0.164285  d :     0.459697
      dxz     :     0.142173
      dyz     :     0.143028
      dx2y2   :     0.005372
      dxy     :     0.004839
      f0      :     0.025612  f :     0.066816
      f+1     :     0.019507
      f-1     :     0.019724
      f+2     :     0.000736
      f-2     :     0.000717
      f+3     :     0.000257
      f-3     :     0.000263
  5 N s       :     3.300618  s :     3.300618
      pz      :     1.466795  p :     3.509554
      px      :     1.024577
      py      :     1.018182
      dz2     :     0.053150  d :     0.135600
      dxz     :     0.036005
      dyz     :     0.036404
      dx2y2   :     0.005045
      dxy     :     0.004995
      f0      :     0.007401  f :     0.019027
      f+1     :     0.005071
      f-1     :     0.005104
      f+2     :     0.000442
      f-2     :     0.000441
      f+3     :     0.000283
      f-3     :     0.000284
  6 C s       :     2.817709  s :     2.817709
      pz      :     1.028155  p :     3.158440
      px      :     1.066622
      py      :     1.063663
      dz2     :     0.076028  d :     0.276815
      dxz     :     0.063876
      dyz     :     0.069556
      dx2y2   :     0.033542
      dxy     :     0.033813
      f0      :     0.008130  f :     0.031300
      f+1     :     0.006581
      f-1     :     0.006199
      f+2     :     0.003001
      f-2     :     0.002792
      f+3     :     0.002781
      f-3     :     0.001817
  7 H s       :     0.785371  s :     0.785371
      pz      :     0.015551  p :     0.065836
      px      :     0.016229
      py      :     0.034056
  8 H s       :     0.777103  s :     0.777103
      pz      :     0.014144  p :     0.066845
      px      :     0.024091
      py      :     0.028610
  9 H s       :     0.776709  s :     0.776709
      pz      :     0.014158  p :     0.066038
      px      :     0.036619
      py      :     0.015261
 10 C s       :     2.842521  s :     2.842521
      pz      :     1.171419  p :     2.840212
      px      :     0.833945
      py      :     0.834849
      dz2     :     0.163683  d :     0.458785
      dxz     :     0.142815
      dyz     :     0.141480
      dx2y2   :     0.005460
      dxy     :     0.005345
      f0      :     0.025533  f :     0.066868
      f+1     :     0.019467
      f-1     :     0.019744
      f+2     :     0.000786
      f-2     :     0.000816
      f+3     :     0.000258
      f-3     :     0.000263
 11 N s       :     3.300318  s :     3.300318
      pz      :     1.466990  p :     3.517374
      px      :     1.026885
      py      :     1.023499
      dz2     :     0.052931  d :     0.135364
      dxz     :     0.035812
      dyz     :     0.036409
      dx2y2   :     0.005163
      dxy     :     0.005049
      f0      :     0.007403  f :     0.019072
      f+1     :     0.005060
      f-1     :     0.005116
      f+2     :     0.000465
      f-2     :     0.000458
      f+3     :     0.000284
      f-3     :     0.000286
 12 C s       :     2.817503  s :     2.817503
      pz      :     1.034320  p :     3.155630
      px      :     1.060782
      py      :     1.060527
      dz2     :     0.074931  d :     0.279478
      dxz     :     0.071482
      dyz     :     0.066489
      dx2y2   :     0.031889
      dxy     :     0.034688
      f0      :     0.007943  f :     0.031550
      f+1     :     0.006368
      f-1     :     0.006803
      f+2     :     0.003038
      f-2     :     0.002817
      f+3     :     0.002126
      f-3     :     0.002454
 13 H s       :     0.781231  s :     0.781231
      pz      :     0.015433  p :     0.065704
      px      :     0.034704
      py      :     0.015568
 14 H s       :     0.782901  s :     0.782901
      pz      :     0.014348  p :     0.066005
      px      :     0.026554
      py      :     0.025104
 15 H s       :     0.781415  s :     0.781415
      pz      :     0.014183  p :     0.065630
      px      :     0.015401
      py      :     0.036046
 16 C s       :     2.841256  s :     2.841256
      pz      :     1.169504  p :     2.859959
      px      :     0.845933
      py      :     0.844522
      dz2     :     0.163444  d :     0.451673
      dxz     :     0.139486
      dyz     :     0.138240
      dx2y2   :     0.004897
      dxy     :     0.005607
      f0      :     0.025549  f :     0.066476
      f+1     :     0.019418
      f-1     :     0.019172
      f+2     :     0.000893
      f-2     :     0.000926
      f+3     :     0.000259
      f-3     :     0.000259
 17 N s       :     3.306627  s :     3.306627
      pz      :     1.464882  p :     3.490887
      px      :     1.014060
      py      :     1.011945
      dz2     :     0.053169  d :     0.136882
      dxz     :     0.037035
      dyz     :     0.036802
      dx2y2   :     0.004942
      dxy     :     0.004934
      f0      :     0.007353  f :     0.019193
      f+1     :     0.005183
      f-1     :     0.005121
      f+2     :     0.000492
      f-2     :     0.000488
      f+3     :     0.000278
      f-3     :     0.000278


                      *****************************
                      * MAYER POPULATION ANALYSIS *
                      *****************************

  NA   - Mulliken gross atomic population
  ZA   - Total nuclear charge
  QA   - Mulliken gross atomic charge
  VA   - Mayer's total valence
  BVA  - Mayer's bonded valence
  FA   - Mayer's free valence

  ATOM       NA         ZA         QA         VA         BVA        FA
  0 C      6.2869     6.0000    -0.2869     3.9078     3.6250     0.2829
  1 H      0.7944     1.0000     0.2056     0.9714     0.9249     0.0464
  2 H      0.8350     1.0000     0.1650     0.9649     0.9172     0.0477
  3 H      0.8334     1.0000     0.1666     0.9641     0.9167     0.0474
  4 C      6.1114     6.0000    -0.1114     4.1020     3.6766     0.4254
  5 N      7.1396     7.0000    -0.1396     3.3164     2.8377     0.4786
  6 C      6.2636     6.0000    -0.2636     3.9282     3.6444     0.2838
  7 H      0.8287     1.0000     0.1713     0.9587     0.9116     0.0471
  8 H      0.8153     1.0000     0.1847     0.9691     0.9225     0.0466
  9 H      0.8258     1.0000     0.1742     0.9696     0.9228     0.0468
 10 C      6.1155     6.0000    -0.1155     4.1070     3.6834     0.4236
 11 N      7.1503     7.0000    -0.1503     3.3069     2.8279     0.4790
 12 C      6.2807     6.0000    -0.2807     3.9297     3.6479     0.2818
 13 H      0.8272     1.0000     0.1728     0.9631     0.9161     0.0470
 14 H      0.8277     1.0000     0.1723     0.9634     0.9165     0.0469
 15 H      0.8280     1.0000     0.1720     0.9633     0.9162     0.0471
 16 C      6.1454     6.0000    -0.1454     4.1469     3.7197     0.4272
 17 N      7.0910     7.0000    -0.0910     3.3462     2.8731     0.4731

  Mayer bond orders larger than 0.100000
B(  0-C ,  1-H ) :   0.9014 B(  0-C ,  2-H ) :   0.9156 B(  0-C ,  3-H ) :   0.9167 
B(  0-C ,  4-C ) :   0.8999 B(  4-C ,  5-N ) :   2.7890 B(  6-C ,  7-H ) :   0.9103 
B(  6-C ,  8-H ) :   0.9101 B(  6-C ,  9-H ) :   0.9135 B(  6-C , 10-C ) :   0.9123 
B( 10-C , 11-N ) :   2.7741 B( 12-C , 13-H ) :   0.9163 B( 12-C , 14-H ) :   0.9165 
B( 12-C , 15-H ) :   0.9164 B( 12-C , 16-C ) :   0.9023 B( 16-C , 17-N ) :   2.8368 



----------------------------------
MP2 DERIVATIVE INTEGRAL GENERATION
----------------------------------


Input Wavefunction Amplitudes       ... 12mecn.remya.etal.2.mol1,3,11-orca.engrad-mp2.def2tzvp.frozencore.mp2tsaa.tmp
Input Correlated Electron Density   ... 12mecn.remya.etal.2.mol1,3,11-orca.engrad-mp2.def2tzvp.frozencore.pmp2re
Input Energy Weighted Density       ... 12mecn.remya.etal.2.mol1,3,11-orca.engrad-mp2.def2tzvp.frozencore.wmp2.tmp
Input SCF Electron Density          ... 12mecn.remya.etal.2.mol1,3,11-orca.engrad-mp2.def2tzvp.frozencore.scfp

One-Electron Terms    ...
                        ... One-Electron Terms done
Prescreening matrices              ... done

Batch handling in the gradient evaluation:
Memory available                      ... 8000.0 MB
Memory per occupied orbital in Q2     ...   20.3 MB
Memory per occupied orbital in Q3     ...    0.1 MB
Total memory requirement per |i>      ...   20.4 MB
Max. Number of orbitals possible      ...    391
Number of orbitals treated per batch  ...     24
Number of batches to be done          ...      1
Batch   0: i=    9 ...    32

---------------------------------------
MP2 TOTAL ENERGY:     -397.459203498 Eh
---------------------------------------

The final MP2 gradient
  0:  -0.00171007   0.00162898  -0.00781883
  1:  -0.00127180   0.00261325   0.00024247
  2:   0.00195981  -0.00231145  -0.00062186
  3:  -0.00007992  -0.00159689   0.00050536
  4:   0.00105049   0.00014094   0.00338600
  5:   0.00000476  -0.00008310   0.00410714
  6:  -0.00149941   0.00034276   0.00820845
  7:  -0.00078374   0.00145612  -0.00129260
  8:  -0.00183226  -0.00111051  -0.00093991
  9:   0.00309642  -0.00027121   0.00042319
 10:   0.00085326  -0.00072801  -0.00050169
 11:   0.00019057  -0.00006294  -0.00570188
 12:   0.00081153   0.00131305  -0.00774063
 13:  -0.00325133   0.00139789  -0.00053338
 14:   0.00143954   0.00143836   0.00078023
 15:   0.00123858  -0.00351237  -0.00075330
 16:  -0.00023598  -0.00032187   0.00396992
 17:   0.00001954  -0.00033300   0.00428134

-----------------------------------
NORM OF THE MP2 GRADIENT:  0.019216
-----------------------------------

-------------------------   --------------------
FINAL SINGLE POINT ENERGY      -397.459203498045
-------------------------   --------------------


                            ***************************************
                            *     ORCA property calculations      *
                            ***************************************

                                    ---------------------
                                    Active property flags
                                    ---------------------
   (+) Dipole Moment


------------------------------------------------------------------------------
                       ORCA ELECTRIC PROPERTIES CALCULATION
------------------------------------------------------------------------------

Dipole Moment Calculation                       ... on
Quadrupole Moment Calculation                   ... off
Polarizability Calculation                      ... off
GBWName                                         ... 12mecn.remya.etal.2.mol1,3,11-orca.engrad-mp2.def2tzvp.frozencore.gbw
Electron density file                           ... 12mecn.remya.etal.2.mol1,3,11-orca.engrad-mp2.def2tzvp.frozencore.scfp
The origin for moment calculation is the CENTER OF MASS  = (-3.628488,  3.810034  0.269661)

-------------
DIPOLE MOMENT
-------------
                                X             Y             Z
Electronic contribution:     -0.23991       0.20125      -2.99383
Nuclear contribution   :      0.36557      -0.28666       4.63256
                        -----------------------------------------
Total Dipole Moment    :      0.12566      -0.08541       1.63873
                        -----------------------------------------
Magnitude (a.u.)       :      1.64576
Magnitude (Debye)      :      4.18319



--------------------
Rotational spectrum 
--------------------
 
Rotational constants in cm-1:     0.043839     0.006696     0.006413 
Rotational constants in MHz :  1314.270839   200.745082   192.270955 

 Dipole components along the rotational axes: 
x,y,z [a.u.] :    -0.150146    -1.012250     1.288925 
x,y,z [Debye]:    -0.381641    -2.572935     3.276186 

 

                         *** MP2 UNRELAXED DENSITY ***

------------------------------------------------------------------------------
                       ORCA ELECTRIC PROPERTIES CALCULATION
------------------------------------------------------------------------------

Dipole Moment Calculation                       ... on
Quadrupole Moment Calculation                   ... off
Polarizability Calculation                      ... off
GBWName                                         ... 12mecn.remya.etal.2.mol1,3,11-orca.engrad-mp2.def2tzvp.frozencore.gbw
Electron density file                           ... 12mecn.remya.etal.2.mol1,3,11-orca.engrad-mp2.def2tzvp.frozencore.pmp2ur
The origin for moment calculation is the CENTER OF MASS  = (-3.628488,  3.810034  0.269661)

-------------
DIPOLE MOMENT
-------------
                                X             Y             Z
Electronic contribution:     -0.24260       0.20293      -3.02914
Nuclear contribution   :      0.36557      -0.28666       4.63256
                        -----------------------------------------
Total Dipole Moment    :      0.12297      -0.08373       1.60342
                        -----------------------------------------
Magnitude (a.u.)       :      1.61031
Magnitude (Debye)      :      4.09308



--------------------
Rotational spectrum 
--------------------
 
Rotational constants in cm-1:     0.043839     0.006696     0.006413 
Rotational constants in MHz :  1314.270839   200.745082   192.270955 

 Dipole components along the rotational axes: 
x,y,z [a.u.] :    -0.146893    -0.990573     1.261063 
x,y,z [Debye]:    -0.373372    -2.517835     3.205366 

 

                           *** MP2 RELAXED DENSITY ***

------------------------------------------------------------------------------
                       ORCA ELECTRIC PROPERTIES CALCULATION
------------------------------------------------------------------------------

Dipole Moment Calculation                       ... on
Quadrupole Moment Calculation                   ... off
Polarizability Calculation                      ... off
GBWName                                         ... 12mecn.remya.etal.2.mol1,3,11-orca.engrad-mp2.def2tzvp.frozencore.gbw
Electron density file                           ... 12mecn.remya.etal.2.mol1,3,11-orca.engrad-mp2.def2tzvp.frozencore.pmp2re
The origin for moment calculation is the CENTER OF MASS  = (-3.628488,  3.810034  0.269661)

-------------
DIPOLE MOMENT
-------------
                                X             Y             Z
Electronic contribution:     -0.24880       0.20810      -3.13093
Nuclear contribution   :      0.36557      -0.28666       4.63256
                        -----------------------------------------
Total Dipole Moment    :      0.11677      -0.07855       1.50163
                        -----------------------------------------
Magnitude (a.u.)       :      1.50821
Magnitude (Debye)      :      3.83356



--------------------
Rotational spectrum 
--------------------
 
Rotational constants in cm-1:     0.043839     0.006696     0.006413 
Rotational constants in MHz :  1314.270839   200.745082   192.270955 

 Dipole components along the rotational axes: 
x,y,z [a.u.] :    -0.139101    -0.928074     1.180685 
x,y,z [Debye]:    -0.353568    -2.358976     3.001063 

 

Timings for individual modules:

Sum of individual times         ...      150.173 sec (=   2.503 min)
GTO integral calculation        ...        1.048 sec (=   0.017 min)   0.7 %
SCF iterations                  ...       34.370 sec (=   0.573 min)  22.9 %
MP2 module                      ...      114.755 sec (=   1.913 min)  76.4 %
                             ****ORCA TERMINATED NORMALLY****
TOTAL RUN TIME: 0 days 0 hours 2 minutes 31 seconds 346 msec
