61
Energy:  -2136.50900138
O   -2.75351125  -0.96219542   1.90536489
H   -2.28597282  -1.03248612   2.73765023
H   -3.66342786  -1.16397690   2.12346541
O    1.73789263   2.06850031   3.44259804
H    1.55481103   2.84849223   2.91883705
H    2.60743246   2.22530944   3.81075999
O    0.78525141  -0.02933932   1.94701099
H    1.25392028   0.64472666   2.43916583
H    0.31044838  -0.52637703   2.61315470
O   -2.41078794   2.68204950   3.79813162
H   -3.10600828   2.94277718   4.40221904
H   -1.75750862   2.25643924   4.35339180
O    3.21416083   1.17277660  -2.01743368
H    4.09862851   1.46179262  -2.24197431
H    2.79349118   1.00948142  -2.86159219
O   -0.84154005  -1.05138848   3.90367206
H   -0.73251496  -1.77879101   4.51623303
H   -0.76084083  -0.26678573   4.44599854
O   -0.32191628   0.27393400  -2.00798298
H   -1.13446192  -0.09838600  -2.35058952
H    0.22819538   0.40155039  -2.78084976
O   -1.18179106  -3.19138549  -4.06726842
H   -1.52604648  -3.71229278  -4.79278592
H   -0.32372040  -2.89490770  -4.37066174
O   -0.59986416  -3.90718315  -1.47488048
H   -0.91524027  -3.74835144  -2.36456708
H   -0.96502110  -4.76011550  -1.23951127
O    1.03103216   3.98048321   1.57540372
H    1.33924037   4.88610707   1.54246486
H    0.07655800   4.05112078   1.56052902
O    1.93882531  -0.86096481  -0.66563305
H    2.62919439  -0.33885986  -1.07432462
H    2.05668392  -1.73952820  -1.02683598
O   -1.47295559   1.09839634   0.57474427
H   -2.15358885   0.62218765   1.05034442
H   -1.63757305   2.01914838   0.77808788
O   -1.68695135   3.68688268   1.40254188
H   -2.31362695   4.34939557   1.11170478
H   -1.99322226   3.43258441   2.27303736
O   -2.47342621  -1.04232033  -2.89669895
H   -3.34982791  -0.86684272  -3.23927670
H   -2.16713590  -1.79862647  -3.39711789
O    2.03331223  -3.28152285  -1.93518694
H    1.18285603  -3.67427047  -1.73845005
H    2.66661414  -3.97468219  -1.74893261
O   -0.78628757  -1.67199523   0.11718318
H   -0.80882819  -2.47227392  -0.40748603
H   -1.57749220  -1.71474566   0.65421156
O    1.49190284   0.40159348  -4.05318724
H    1.51546623  -0.52136364  -4.30582684
H    1.37080255   0.87300508  -4.87740667
O    1.43377815  -2.32807005  -4.47178697
H    1.96431824  -2.71958671  -5.16567008
H    1.77412771  -2.71215613  -3.66378208
O   -0.37233166   1.37072924   5.12801855
H    0.40845233   1.68956190   4.67530015
H   -0.20018191   1.54306948   6.05370486
O    1.27303547   1.89136188  -0.17066280
H    2.01227599   1.99046673  -0.77060741
H    1.26680846   2.70191287   0.33845426
Ca   0.22947255   0.11497800  -0.03716947
