
                                 *****************
                                 * O   R   C   A *
                                 *****************

           --- An Ab Initio, DFT and Semiempirical electronic structure package ---

                  #######################################################
                  #                        -***-                        #
                  #          Department of theory and spectroscopy      #
                  #               Directorship: Frank Neese             #
                  #        Max Planck Institute fuer Kohlenforschung    #
                  #                Kaiser Wilhelm Platz 1               #
                  #                 D-45470 Muelheim/Ruhr               #
                  #                      Germany                        #
                  #                                                     #
                  #                  All rights reserved                #
                  #                        -***-                        #
                  #######################################################


                         Program Version 4.2.0 -  RELEASE  -


 With contributions from (in alphabetic order):
   Daniel Aravena         : Magnetic Suceptibility
   Michael Atanasov       : Ab Initio Ligand Field Theory (pilot matlab implementation)
   Alexander A. Auer      : GIAO ZORA, VPT2
   Ute Becker             : Parallelization
   Giovanni Bistoni       : ED, misc. LED, open-shell LED, HFLED
   Martin Brehm           : Molecular dynamics
   Dmytro Bykov           : SCF Hessian
   Vijay G. Chilkuri      : MRCI spin determinant printing, contributions to CSF-ICE
   Dipayan Datta          : RHF DLPNO-CCSD density
   Achintya Kumar Dutta   : EOM-CC, STEOM-CC
   Dmitry Ganyushin       : Spin-Orbit,Spin-Spin,Magnetic field MRCI
   Miquel Garcia          : C-PCM Hessian, Gaussian charge scheme
   Yang Guo               : DLPNO-NEVPT2, CIM, IAO-localization
   Andreas Hansen         : Spin unrestricted coupled pair/coupled cluster methods
   Benjamin Helmich-Paris : CASSCF linear response (MC-RPA)
   Lee Huntington         : MR-EOM, pCC
   Robert Izsak           : Overlap fitted RIJCOSX, COSX-SCS-MP3, EOM
   Christian Kollmar      : KDIIS, OOCD, Brueckner-CCSD(T), CCSD density
   Simone Kossmann        : Meta GGA functionals, TD-DFT gradient, OOMP2, MP2 Hessian
   Martin Krupicka        : AUTO-CI
   Lucas Lang             : DCDCAS
   Dagmar Lenk            : GEPOL surface, SMD
   Dimitrios Liakos       : Extrapolation schemes; Compound Job, initial MDCI parallelization
   Dimitrios Manganas     : Further ROCIS development; embedding schemes
   Dimitrios Pantazis     : SARC Basis sets
   Taras Petrenko         : DFT Hessian,TD-DFT gradient, ASA, ECA, R-Raman, ABS, FL, XAS/XES, NRVS
   Peter Pinski           : DLPNO-MP2, DLPNO-MP2 Gradient
   Christoph Reimann      : Effective Core Potentials
   Marius Retegan         : Local ZFS, SOC
   Christoph Riplinger    : Optimizer, TS searches, QM/MM, DLPNO-CCSD(T), (RO)-DLPNO pert. Triples
   Tobias Risthaus        : Range-separated hybrids, TD-DFT gradient, RPA, STAB
   Michael Roemelt        : Original ROCIS implementation
   Masaaki Saitow         : Open-shell DLPNO-CCSD energy and density
   Barbara Sandhoefer     : DKH picture change effects
   Avijit Sen             : IP-ROCIS
   Kantharuban Sivalingam : CASSCF convergence, NEVPT2, FIC-MRCI
   Bernardo de Souza      : ESD, SOC TD-DFT
   Georgi Stoychev        : AutoAux, RI-MP2 NMR
   Willem Van den Heuvel  : Paramagnetic NMR
   Boris Wezisla          : Elementary symmetry handling
   Frank Wennmohs         : Technical directorship


 We gratefully acknowledge several colleagues who have allowed us to
 interface, adapt or use parts of their codes:
   Stefan Grimme, W. Hujo, H. Kruse,             : VdW corrections, initial TS optimization,
                  C. Bannwarth                     DFT functionals, gCP, sTDA/sTD-DF
   Ed Valeev, F. Pavosevic, A. Kumar             : LibInt (2-el integral package), F12 methods
   Garnet Chan, S. Sharma, J. Yang, R. Olivares  : DMRG
   Ulf Ekstrom                                   : XCFun DFT Library
   Mihaly Kallay                                 : mrcc  (arbitrary order and MRCC methods)
   Andreas Klamt, Michael Diedenhofen            : otool_cosmo (COSMO solvation model)
   Jiri Pittner, Ondrej Demel                    : Mk-CCSD
   Frank Weinhold                                : gennbo (NPA and NBO analysis)
   Christopher J. Cramer and Donald G. Truhlar   : smd solvation model
   Lars Goerigk                                  : TD-DFT with DH, B97 family of functionals
   V. Asgeirsson, H. Jonsson                     : NEB implementation
   FAccTs GmbH                                   : IRC, NEB, NEB-TS, Multilevel, MM, QM/MM, CI optimization
   S Lehtola, MJT Oliveira, MAL Marques          : LibXC Library


 Your calculation uses the libint2 library for the computation of 2-el integrals
 For citations please refer to: http://libint.valeyev.net

 Your ORCA version has been built with support for libXC version: 4.2.3
 For citations please refer to: https://tddft.org/programs/libxc/

 This ORCA versions uses:
   CBLAS   interface :  Fast vector & matrix operations
   LAPACKE interface :  Fast linear algebra routines
   SCALAPACK package :  Parallel linear algebra routines


----- Orbital basis set information -----
Your calculation utilizes the basis: def2-TZVP
   F. Weigend and R. Ahlrichs, Phys. Chem. Chem. Phys. 7, 3297 (2005).

================================================================================
                                        WARNINGS
                       Please study these warnings very carefully!
================================================================================


WARNING: The frozen-core approximation for MP2-gradient calculations is turned on by default.

INFO   : the flag for use of LIBINT has been found!

================================================================================
                                       INPUT FILE
================================================================================
NAME = 12mecn.remya.etal.2.mol0,1,9-orca.engrad-mp2.def2tzvp.frozencore.inp
|  1> # 12mecn.remya.etal.2.mol0,1,9
|  2> ! MP2 def2-TZVP EnGrad TightSCF
|  3> 
|  4> %pal
|  5>     nprocs 6
|  6> end
|  7> 
|  8> %maxcore 8000
|  9> 
| 10> %scf
| 11>     ConvForced true
| 12> end
| 13> 
| 14> *xyz 0 1
| 15> C  -0.869520000  -3.929380000   1.700199000
| 16> H  -0.057420000  -3.268850000   2.015352000
| 17> H  -0.697530000  -4.930670000   2.101524000
| 18> H  -1.821490000  -3.546590000   2.077146000
| 19> C  -0.916080000  -3.969960000   0.256749000
| 20> N  -0.955390000  -3.995980000  -0.909290000
| 21> C  -4.697980000  -0.249690000   1.746215000
| 22> H  -4.927570000   0.755530000   2.111799000
| 23> H  -3.709180000  -0.561560000   2.093253000
| 24> H  -5.432280000  -0.961520000   2.128066000
| 25> C  -4.714100000  -0.247110000   0.301670000
| 26> N  -4.729750000  -0.234960000  -0.865260000
| 27> C   0.923766000   4.000693000  -1.575910000
| 28> H   0.011949000   4.478423000  -1.939550000
| 29> H   0.947903000   2.966558000  -1.929960000
| 30> H   1.805950000   4.519548000  -1.956520000
| 31> C   0.942834000   3.994846000  -0.131200000
| 32> N   0.960035000   3.982544000   1.035639000
| 33> *
| 34> 
| 35>                          ****END OF INPUT****
================================================================================

                     *******************************
                     * Energy+Gradient Calculation *
                     *******************************

---------------------------------
CARTESIAN COORDINATES (ANGSTROEM)
---------------------------------
  C     -0.869520   -3.929380    1.700199
  H     -0.057420   -3.268850    2.015352
  H     -0.697530   -4.930670    2.101524
  H     -1.821490   -3.546590    2.077146
  C     -0.916080   -3.969960    0.256749
  N     -0.955390   -3.995980   -0.909290
  C     -4.697980   -0.249690    1.746215
  H     -4.927570    0.755530    2.111799
  H     -3.709180   -0.561560    2.093253
  H     -5.432280   -0.961520    2.128066
  C     -4.714100   -0.247110    0.301670
  N     -4.729750   -0.234960   -0.865260
  C      0.923766    4.000693   -1.575910
  H      0.011949    4.478423   -1.939550
  H      0.947903    2.966558   -1.929960
  H      1.805950    4.519548   -1.956520
  C      0.942834    3.994846   -0.131200
  N      0.960035    3.982544    1.035639

----------------------------
CARTESIAN COORDINATES (A.U.)
----------------------------
  NO LB      ZA    FRAG     MASS         X           Y           Z
   0 C     6.0000    0    12.011   -1.643155   -7.425452    3.212910
   1 H     1.0000    0     1.008   -0.108508   -6.177231    3.808463
   2 H     1.0000    0     1.008   -1.318141   -9.317616    3.971305
   3 H     1.0000    0     1.008   -3.442117   -6.702084    3.925237
   4 C     6.0000    0    12.011   -1.731140   -7.502137    0.485185
   5 N     7.0000    0    14.007   -1.805425   -7.551308   -1.718309
   6 C     6.0000    0    12.011   -8.877896   -0.471846    3.299868
   7 H     1.0000    0     1.008   -9.311758    1.427745    3.990722
   8 H     1.0000    0     1.008   -7.009334   -1.061195    3.955675
   9 H     1.0000    0     1.008  -10.265521   -1.817009    4.021462
  10 C     6.0000    0    12.011   -8.908358   -0.466970    0.570074
  11 N     7.0000    0    14.007   -8.937932   -0.444010   -1.635104
  12 C     6.0000    0    12.011    1.745665    7.560214   -2.978038
  13 H     1.0000    0     1.008    0.022580    8.462993   -3.665218
  14 H     1.0000    0     1.008    1.791277    5.605982   -3.647096
  15 H     1.0000    0     1.008    3.412751    8.540708   -3.697287
  16 C     6.0000    0    12.011    1.781698    7.549165   -0.247932
  17 N     7.0000    0    14.007    1.814203    7.525917    1.957074

--------------------------------
INTERNAL COORDINATES (ANGSTROEM)
--------------------------------
 C      0   0   0     0.000000000000     0.00000000     0.00000000
 H      1   0   0     1.093218964485     0.00000000     0.00000000
 H      1   2   0     1.092347920685   109.32735472     0.00000000
 H      1   2   3     1.093098397130   109.63009885   119.86690662
 C      1   2   3     1.444770733542   109.20363402   239.27834980
 N      5   1   2     1.166991544966   179.65780255   294.97577729
 C      4   1   2     4.387853650347   143.90409828    67.01149066
 H      7   4   1     1.093997476028   143.39548984   274.71701792
 H      7   4   1     1.093354338878    33.78512473   288.96408791
 H      7   4   1     1.091654077582    85.67789748   156.55844139
 C      7   4   1     1.444637244371    94.82265768    46.72700231
 N     11   7   4     1.167098183488   179.48927802   206.44026684
 C     12  11   7     7.099860767731    95.48655212    67.87948734
 H     13  12  11     1.091728099844    68.24348594   245.44247304
 H     13  12  11     1.093329408501    59.04996266   115.15016504
 H     13  12  11     1.091935480228   164.08990443   156.73133655
 C     13  12  11     1.444847659836    84.72193082   359.69928942
 N     17  13  12     1.167030618933   179.61752891    66.58099395

---------------------------
INTERNAL COORDINATES (A.U.)
---------------------------
 C      0   0   0     0.000000000000     0.00000000     0.00000000
 H      1   0   0     2.065884447285     0.00000000     0.00000000
 H      1   2   0     2.064238413053   109.32735472     0.00000000
 H      1   2   3     2.065656608005   109.63009885   119.86690662
 C      1   2   3     2.730221012699   109.20363402   239.27834980
 N      5   1   2     2.205294420586   179.65780255   294.97577729
 C      4   1   2     8.291841714882   143.90409828    67.01149066
 H      7   4   1     2.067355620894   143.39548984   274.71701792
 H      7   4   1     2.066140267815    33.78512473   288.96408791
 H      7   4   1     2.062927239608    85.67789748   156.55844139
 C      7   4   1     2.729968754725    94.82265768    46.72700231
 N     11   7   4     2.205495938188   179.48927802   206.44026684
 C     12  11   7    13.416792439983    95.48655212    67.87948734
 H     13  12  11     2.063067121411    68.24348594   245.44247304
 H     13  12  11     2.066093156230    59.04996266   115.15016504
 H     13  12  11     2.063459013543   164.08990443   156.73133655
 C     13  12  11     2.730366382327    84.72193082   359.69928942
 N     17  13  12     2.205368259683   179.61752891    66.58099395

---------------------
BASIS SET INFORMATION
---------------------
There are 3 groups of distinct atoms

 Group   1 Type C   : 11s6p2d1f contracted to 5s3p2d1f pattern {62111/411/11/1}
 Group   2 Type H   : 5s1p contracted to 3s1p pattern {311/1}
 Group   3 Type N   : 11s6p2d1f contracted to 5s3p2d1f pattern {62111/411/11/1}

Atom   0C    basis set group =>   1
Atom   1H    basis set group =>   2
Atom   2H    basis set group =>   2
Atom   3H    basis set group =>   2
Atom   4C    basis set group =>   1
Atom   5N    basis set group =>   3
Atom   6C    basis set group =>   1
Atom   7H    basis set group =>   2
Atom   8H    basis set group =>   2
Atom   9H    basis set group =>   2
Atom  10C    basis set group =>   1
Atom  11N    basis set group =>   3
Atom  12C    basis set group =>   1
Atom  13H    basis set group =>   2
Atom  14H    basis set group =>   2
Atom  15H    basis set group =>   2
Atom  16C    basis set group =>   1
Atom  17N    basis set group =>   3


           ************************************************************
           *        Program running with 6 parallel MPI-processes     *
           *              working on a common directory               *
           ************************************************************
------------------------------------------------------------------------------
                           ORCA GTO INTEGRAL CALCULATION
------------------------------------------------------------------------------

                         BASIS SET STATISTICS AND STARTUP INFO

 # of primitive gaussian shells          ...  234
 # of primitive gaussian functions       ...  486
 # of contracted shells                  ...  135
 # of contracted basis functions         ...  333
 Highest angular momentum                ...    3
 Maximum contraction depth               ...    6
 Integral package used                   ... LIBINT
 Integral threshhold            Thresh   ...  2.500e-11
 Primitive cut-off              TCut     ...  2.500e-12


------------------------------ INTEGRAL EVALUATION ----------------------------


 * One electron integrals 
 Pre-screening matrix                    ... done
 Shell pair data                         ... done (   0.002 sec)



           ************************************************************
           *        Program running with 6 parallel MPI-processes     *
           *              working on a common directory               *
           ************************************************************
-------------------------------------------------------------------------------
                                 ORCA SCF
-------------------------------------------------------------------------------

------------
SCF SETTINGS
------------
Hamiltonian:
 Ab initio Hamiltonian  Method          .... Hartree-Fock(GTOs)


General Settings:
 Integral files         IntName         .... 12mecn.remya.etal.2.mol0,1,9-orca.engrad-mp2.def2tzvp.frozencore
 Hartree-Fock type      HFTyp           .... RHF
 Total Charge           Charge          ....    0
 Multiplicity           Mult            ....    1
 Number of Electrons    NEL             ....   66
 Basis Dimension        Dim             ....  333
 Nuclear Repulsion      ENuc            ....    287.2750642562 Eh

Convergence Acceleration:
 DIIS                   CNVDIIS         .... on
   Start iteration      DIISMaxIt       ....    12
   Startup error        DIISStart       ....  0.200000
   # of expansion vecs  DIISMaxEq       ....     5
   Bias factor          DIISBfac        ....   1.050
   Max. coefficient     DIISMaxC        ....  10.000
 Newton-Raphson         CNVNR           .... off
 SOSCF                  CNVSOSCF        .... on
   Start iteration      SOSCFMaxIt      ....   150
   Startup grad/error   SOSCFStart      ....  0.003300
 Level Shifting         CNVShift        .... on
   Level shift para.    LevelShift      ....    0.2500
   Turn off err/grad.   ShiftErr        ....    0.0010
 Zerner damping         CNVZerner       .... off
 Static damping         CNVDamp         .... on
   Fraction old density DampFac         ....    0.7000
   Max. Damping (<1)    DampMax         ....    0.9800
   Min. Damping (>=0)   DampMin         ....    0.0000
   Turn off err/grad.   DampErr         ....    0.1000
 Fernandez-Rico         CNVRico         .... off

SCF Procedure:
 Maximum # iterations   MaxIter         ....   125
 SCF integral mode      SCFMode         .... Direct
   Integral package                     .... LIBINT
 Reset frequency        DirectResetFreq ....    20
 Integral Threshold     Thresh          ....  2.500e-11 Eh
 Primitive CutOff       TCut            ....  2.500e-12 Eh

Convergence Tolerance:
 Convergence Check Mode ConvCheckMode   .... Total+1el-Energy
 Convergence forced     ConvForced      .... 1
 Energy Change          TolE            ....  1.000e-08 Eh
 1-El. energy change                    ....  1.000e-05 Eh
 Orbital Gradient       TolG            ....  1.000e-05
 Orbital Rotation angle TolX            ....  1.000e-05
 DIIS Error             TolErr          ....  5.000e-07


Diagonalization of the overlap matrix:
Smallest eigenvalue                        ... 1.550e-04
Time for diagonalization                   ...    0.016 sec
Threshold for overlap eigenvalues          ... 1.000e-08
Number of eigenvalues below threshold      ... 0
Time for construction of square roots      ...    0.008 sec
Total time needed                          ...    0.025 sec

-------------------
DFT GRID GENERATION
-------------------

General Integration Accuracy     IntAcc      ...  4.340
Radial Grid Type                 RadialGrid  ... Gauss-Chebyshev
Angular Grid (max. acc.)         AngularGrid ... Lebedev-110
Angular grid pruning method      GridPruning ... 3 (G Style)
Weight generation scheme         WeightScheme... Becke
Basis function cutoff            BFCut       ...    1.0000e-11
Integration weight cutoff        WCut        ...    1.0000e-14
Grids for H and He will be reduced by one unit

# of grid points (after initial pruning)     ...  22188 (   0.0 sec)
# of grid points (after weights+screening)   ...  21151 (   0.0 sec)
nearest neighbour list constructed           ...    0.0 sec
Grid point re-assignment to atoms done       ...    0.0 sec
Grid point division into batches done        ...    0.0 sec
Reduced shell lists constructed in    0.0 sec

Total number of grid points                  ...    21151
Total number of batches                      ...      342
Average number of points per batch           ...       61
Average number of grid points per atom       ...     1175
Average number of shells per batch           ...    53.28 (39.46%)
Average number of basis functions per batch  ...   124.28 (37.32%)
Average number of large shells per batch     ...    38.10 (71.52%)
Average number of large basis fcns per batch ...    89.79 (72.25%)
Maximum spatial batch extension              ...  14.29, 15.68, 17.73 au
Average spatial batch extension              ...   0.67,  0.69,  0.80 au

Time for grid setup =    0.069 sec

------------------------------
INITIAL GUESS: MODEL POTENTIAL
------------------------------
Loading Hartree-Fock densities                     ... done
Calculating cut-offs                               ... done
Setting up the integral package                    ... done
Initializing the effective Hamiltonian             ... done
Starting the Coulomb interaction                   ... done (   0.0 sec)
Reading the grid                                   ... done
Mapping shells                                     ... done
Starting the XC term evaluation                    ... done (   0.0 sec)
Transforming the Hamiltonian                       ... done (   0.0 sec)
Diagonalizing the Hamiltonian                      ... done (   0.0 sec)
Back transforming the eigenvectors                 ... done (   0.0 sec)
Now organizing SCF variables                       ... done
                      ------------------
                      INITIAL GUESS DONE (   0.2 sec)
                      ------------------
--------------
SCF ITERATIONS
--------------
ITER       Energy         Delta-E        Max-DP      RMS-DP      [F,P]     Damp
               ***  Starting incremental Fock matrix formation  ***
  0   -395.4185523429   0.000000000000 0.03802371  0.00086872  0.2842821 0.7000
  1   -395.5998783590  -0.181326016108 0.02721527  0.00068927  0.1879449 0.7000
                               ***Turning on DIIS***
  2   -395.7055031023  -0.105624743331 0.01618502  0.00044660  0.1422011 0.7000
  3   -396.6543706015  -0.948867499162 0.00993466  0.00028383  0.1056635 0.7000
  4   -396.6089809159   0.045389685602 0.02707092  0.00069328  0.0744546 0.0000
  5   -395.9516129073   0.657368008528 0.00634774  0.00012572  0.0062097 0.0000
                      *** Initiating the SOSCF procedure ***
                           *** Shutting down DIIS ***
                      *** Re-Reading the Fockian *** 
                      *** Removing any level shift *** 
ITER      Energy       Delta-E        Grad      Rot      Max-DP    RMS-DP
  6   -395.93350498   0.0181079234  0.001260  0.001260  0.004347  0.000079
               *** Restarting incremental Fock matrix formation ***
  7   -395.92271216   0.0107928224  0.000418  0.000628  0.003045  0.000056
  8   -395.92273090  -0.0000187359  0.000336  0.000526  0.002523  0.000046
  9   -395.92273483  -0.0000039355  0.000122  0.000155  0.000791  0.000014
 10   -395.92273558  -0.0000007460  0.000013  0.000016  0.000069  0.000001
 11   -395.92273559  -0.0000000086  0.000008  0.000008  0.000020  0.000000
 12   -395.92273559  -0.0000000020  0.000003  0.000006  0.000010  0.000000
                  ***Gradient check signals convergence***
              ***Rediagonalizing the Fockian in SOSCF/NRSCF***

               *****************************************************
               *                     SUCCESS                       *
               *           SCF CONVERGED AFTER  13 CYCLES          *
               *****************************************************


----------------
TOTAL SCF ENERGY
----------------

Total Energy       :         -395.92273559 Eh          -10773.60535 eV

Components:
Nuclear Repulsion  :          287.27506426 Eh            7817.15191 eV
Electronic Energy  :         -683.19779985 Eh          -18590.75727 eV
One Electron Energy:        -1103.37889655 Eh          -30024.46619 eV
Two Electron Energy:          420.18109670 Eh           11433.70892 eV

Virial components:
Potential Energy   :         -791.05030586 Eh          -21525.57316 eV
Kinetic Energy     :          395.12757027 Eh           10751.96781 eV
Virial Ratio       :            2.00201243


---------------
SCF CONVERGENCE
---------------

  Last Energy change         ...   -1.0249e-09  Tolerance :   1.0000e-08
  Last MAX-Density change    ...    4.5371e-06  Tolerance :   1.0000e-07
  Last RMS-Density change    ...    7.5187e-08  Tolerance :   5.0000e-09
  Last Orbital Gradient      ...    2.2889e-06  Tolerance :   1.0000e-05
  Last Orbital Rotation      ...    2.6371e-06  Tolerance :   1.0000e-05

             **** THE GBW FILE WAS UPDATED (12mecn.remya.etal.2.mol0,1,9-orca.engrad-mp2.def2tzvp.frozencore.gbw) ****
             **** DENSITY FILE WAS UPDATED (12mecn.remya.etal.2.mol0,1,9-orca.engrad-mp2.def2tzvp.frozencore.scfp) ****
             **** ENERGY FILE WAS UPDATED (12mecn.remya.etal.2.mol0,1,9-orca.engrad-mp2.def2tzvp.frozencore.en.tmp) ****
             **** THE GBW FILE WAS UPDATED (12mecn.remya.etal.2.mol0,1,9-orca.engrad-mp2.def2tzvp.frozencore.gbw) ****
             **** DENSITY FILE WAS UPDATED (12mecn.remya.etal.2.mol0,1,9-orca.engrad-mp2.def2tzvp.frozencore.scfp) ****
----------------
ORBITAL ENERGIES
----------------

  NO   OCC          E(Eh)            E(eV) 
   0   2.0000     -15.573571      -423.7784 
   1   2.0000     -15.573416      -423.7742 
   2   2.0000     -15.573102      -423.7656 
   3   2.0000     -11.287477      -307.1479 
   4   2.0000     -11.286908      -307.1324 
   5   2.0000     -11.282661      -307.0168 
   6   2.0000     -11.280630      -306.9616 
   7   2.0000     -11.279876      -306.9410 
   8   2.0000     -11.279867      -306.9408 
   9   2.0000      -1.214628       -33.0517 
  10   2.0000      -1.214385       -33.0451 
  11   2.0000      -1.214231       -33.0409 
  12   2.0000      -1.046216       -28.4690 
  13   2.0000      -1.045730       -28.4558 
  14   2.0000      -1.042808       -28.3763 
  15   2.0000      -0.701920       -19.1002 
  16   2.0000      -0.701481       -19.0883 
  17   2.0000      -0.699097       -19.0234 
  18   2.0000      -0.636401       -17.3174 
  19   2.0000      -0.634826       -17.2745 
  20   2.0000      -0.633976       -17.2514 
  21   2.0000      -0.632287       -17.2054 
  22   2.0000      -0.631852       -17.1936 
  23   2.0000      -0.628218       -17.0947 
  24   2.0000      -0.556459       -15.1420 
  25   2.0000      -0.555591       -15.1184 
  26   2.0000      -0.555471       -15.1151 
  27   2.0000      -0.458115       -12.4659 
  28   2.0000      -0.458085       -12.4651 
  29   2.0000      -0.457589       -12.4516 
  30   2.0000      -0.457401       -12.4465 
  31   2.0000      -0.457257       -12.4426 
  32   2.0000      -0.456805       -12.4303 
  33   0.0000       0.094076         2.5599 
  34   0.0000       0.121739         3.3127 
  35   0.0000       0.133178         3.6240 
  36   0.0000       0.163176         4.4402 
  37   0.0000       0.169371         4.6088 
  38   0.0000       0.170113         4.6290 
  39   0.0000       0.172657         4.6982 
  40   0.0000       0.173633         4.7248 
  41   0.0000       0.177272         4.8238 
  42   0.0000       0.186342         5.0706 
  43   0.0000       0.203326         5.5328 
  44   0.0000       0.208179         5.6648 
  45   0.0000       0.213640         5.8134 
  46   0.0000       0.221457         6.0262 
  47   0.0000       0.224654         6.1131 
  48   0.0000       0.225394         6.1333 
  49   0.0000       0.227533         6.1915 
  50   0.0000       0.241572         6.5735 
  51   0.0000       0.254585         6.9276 
  52   0.0000       0.265695         7.2299 
  53   0.0000       0.267671         7.2837 
  54   0.0000       0.317811         8.6481 
  55   0.0000       0.319214         8.6863 
  56   0.0000       0.320411         8.7188 
  57   0.0000       0.327539         8.9128 
  58   0.0000       0.328256         8.9323 
  59   0.0000       0.353307         9.6140 
  60   0.0000       0.362265         9.8577 
  61   0.0000       0.375674        10.2226 
  62   0.0000       0.381792        10.3891 
  63   0.0000       0.381932        10.3929 
  64   0.0000       0.387823        10.5532 
  65   0.0000       0.402468        10.9517 
  66   0.0000       0.408142        11.1061 
  67   0.0000       0.420754        11.4493 
  68   0.0000       0.427297        11.6273 
  69   0.0000       0.496963        13.5230 
  70   0.0000       0.498903        13.5758 
  71   0.0000       0.504170        13.7192 
  72   0.0000       0.531062        14.4509 
  73   0.0000       0.533537        14.5183 
  74   0.0000       0.537994        14.6396 
  75   0.0000       0.576424        15.6853 
  76   0.0000       0.589105        16.0304 
  77   0.0000       0.592616        16.1259 
  78   0.0000       0.598472        16.2852 
  79   0.0000       0.599925        16.3248 
  80   0.0000       0.602589        16.3973 
  81   0.0000       0.605113        16.4660 
  82   0.0000       0.608731        16.5644 
  83   0.0000       0.610245        16.6056 
  84   0.0000       0.658407        17.9162 
  85   0.0000       0.659331        17.9413 
  86   0.0000       0.660277        17.9671 
  87   0.0000       0.661377        17.9970 
  88   0.0000       0.662333        18.0230 
  89   0.0000       0.674073        18.3425 
  90   0.0000       0.704751        19.1773 
  91   0.0000       0.706849        19.2343 
  92   0.0000       0.730576        19.8800 
  93   0.0000       0.796351        21.6698 
  94   0.0000       0.808211        21.9925 
  95   0.0000       0.811616        22.0852 
  96   0.0000       0.812949        22.1215 
  97   0.0000       0.815121        22.1806 
  98   0.0000       0.815402        22.1882 
  99   0.0000       0.815785        22.1986 
 100   0.0000       0.817675        22.2501 
 101   0.0000       0.841804        22.9067 
 102   0.0000       0.915661        24.9164 
 103   0.0000       0.917584        24.9687 
 104   0.0000       0.918859        25.0034 
 105   0.0000       0.919104        25.0101 
 106   0.0000       0.921386        25.0722 
 107   0.0000       0.926673        25.2161 
 108   0.0000       1.022652        27.8278 
 109   0.0000       1.032505        28.0959 
 110   0.0000       1.041923        28.3522 
 111   0.0000       1.118202        30.4278 
 112   0.0000       1.123568        30.5738 
 113   0.0000       1.125032        30.6137 
 114   0.0000       1.125355        30.6225 
 115   0.0000       1.127418        30.6786 
 116   0.0000       1.148023        31.2393 
 117   0.0000       1.320537        35.9336 
 118   0.0000       1.323147        36.0047 
 119   0.0000       1.323525        36.0149 
 120   0.0000       1.418277        38.5933 
 121   0.0000       1.420954        38.6661 
 122   0.0000       1.421486        38.6806 
 123   0.0000       1.422561        38.7098 
 124   0.0000       1.424156        38.7533 
 125   0.0000       1.427763        38.8514 
 126   0.0000       1.449101        39.4320 
 127   0.0000       1.449250        39.4361 
 128   0.0000       1.450747        39.4768 
 129   0.0000       1.469762        39.9942 
 130   0.0000       1.471087        40.0303 
 131   0.0000       1.471767        40.0488 
 132   0.0000       1.473075        40.0844 
 133   0.0000       1.474774        40.1306 
 134   0.0000       1.477848        40.2143 
 135   0.0000       1.509461        41.0745 
 136   0.0000       1.511914        41.1413 
 137   0.0000       1.513718        41.1904 
 138   0.0000       1.679096        45.6905 
 139   0.0000       1.694477        46.1091 
 140   0.0000       1.698369        46.2150 
 141   0.0000       1.698790        46.2264 
 142   0.0000       1.703588        46.3570 
 143   0.0000       1.727115        46.9972 
 144   0.0000       1.737889        47.2904 
 145   0.0000       1.739253        47.3275 
 146   0.0000       1.743082        47.4317 
 147   0.0000       1.749123        47.5961 
 148   0.0000       1.749912        47.6175 
 149   0.0000       1.753818        47.7238 
 150   0.0000       1.793096        48.7926 
 151   0.0000       1.799152        48.9574 
 152   0.0000       1.801587        49.0237 
 153   0.0000       1.803227        49.0683 
 154   0.0000       1.816757        49.4365 
 155   0.0000       1.823929        49.6316 
 156   0.0000       1.932507        52.5862 
 157   0.0000       1.934394        52.6375 
 158   0.0000       1.935380        52.6644 
 159   0.0000       1.935943        52.6797 
 160   0.0000       1.936231        52.6875 
 161   0.0000       1.944526        52.9133 
 162   0.0000       1.968165        53.5565 
 163   0.0000       1.971239        53.6401 
 164   0.0000       1.971877        53.6575 
 165   0.0000       2.222863        60.4872 
 166   0.0000       2.224977        60.5447 
 167   0.0000       2.228828        60.6495 
 168   0.0000       2.233934        60.7884 
 169   0.0000       2.238106        60.9020 
 170   0.0000       2.243136        61.0388 
 171   0.0000       2.246761        61.1375 
 172   0.0000       2.254629        61.3516 
 173   0.0000       2.255978        61.3883 
 174   0.0000       2.341021        63.7024 
 175   0.0000       2.343173        63.7610 
 176   0.0000       2.352696        64.0201 
 177   0.0000       2.541408        69.1552 
 178   0.0000       2.545168        69.2575 
 179   0.0000       2.550214        69.3948 
 180   0.0000       2.551228        69.4225 
 181   0.0000       2.552864        69.4669 
 182   0.0000       2.567441        69.8636 
 183   0.0000       2.571583        69.9763 
 184   0.0000       2.577010        70.1240 
 185   0.0000       2.602330        70.8130 
 186   0.0000       2.614951        71.1564 
 187   0.0000       2.619044        71.2678 
 188   0.0000       2.621036        71.3220 
 189   0.0000       2.623878        71.3993 
 190   0.0000       2.628838        71.5343 
 191   0.0000       2.642825        71.9149 
 192   0.0000       2.704242        73.5862 
 193   0.0000       2.704907        73.6043 
 194   0.0000       2.707773        73.6822 
 195   0.0000       2.733413        74.3799 
 196   0.0000       2.738472        74.5176 
 197   0.0000       2.740030        74.5600 
 198   0.0000       2.744561        74.6833 
 199   0.0000       2.748162        74.7813 
 200   0.0000       2.748415        74.7882 
 201   0.0000       2.912343        79.2489 
 202   0.0000       2.912485        79.2527 
 203   0.0000       2.912618        79.2564 
 204   0.0000       2.913233        79.2731 
 205   0.0000       2.913309        79.2752 
 206   0.0000       2.913326        79.2756 
 207   0.0000       2.945694        80.1564 
 208   0.0000       2.947299        80.2001 
 209   0.0000       2.948782        80.2404 
 210   0.0000       2.953428        80.3668 
 211   0.0000       2.954116        80.3856 
 212   0.0000       2.957882        80.4881 
 213   0.0000       3.017638        82.1141 
 214   0.0000       3.025201        82.3199 
 215   0.0000       3.026577        82.3574 
 216   0.0000       3.085679        83.9656 
 217   0.0000       3.088598        84.0450 
 218   0.0000       3.091162        84.1148 
 219   0.0000       3.092180        84.1425 
 220   0.0000       3.092270        84.1450 
 221   0.0000       3.095936        84.2447 
 222   0.0000       3.236314        88.0646 
 223   0.0000       3.237229        88.0895 
 224   0.0000       3.237650        88.1009 
 225   0.0000       3.243809        88.2685 
 226   0.0000       3.244733        88.2937 
 227   0.0000       3.245134        88.3046 
 228   0.0000       3.247879        88.3793 
 229   0.0000       3.248026        88.3833 
 230   0.0000       3.248657        88.4005 
 231   0.0000       3.329105        90.5896 
 232   0.0000       3.330808        90.6359 
 233   0.0000       3.331829        90.6637 
 234   0.0000       3.334596        90.7390 
 235   0.0000       3.335099        90.7527 
 236   0.0000       3.337262        90.8115 
 237   0.0000       3.438781        93.5740 
 238   0.0000       3.441257        93.6414 
 239   0.0000       3.442864        93.6851 
 240   0.0000       3.445052        93.7446 
 241   0.0000       3.449646        93.8696 
 242   0.0000       3.454123        93.9915 
 243   0.0000       3.484024        94.8051 
 244   0.0000       3.487236        94.8925 
 245   0.0000       3.491609        95.0115 
 246   0.0000       3.634958        98.9122 
 247   0.0000       3.635454        98.9257 
 248   0.0000       3.636035        98.9415 
 249   0.0000       3.652723        99.3956 
 250   0.0000       3.653592        99.4193 
 251   0.0000       3.655362        99.4675 
 252   0.0000       3.799545       103.3909 
 253   0.0000       3.800910       103.4280 
 254   0.0000       3.802580       103.4734 
 255   0.0000       3.803603       103.5013 
 256   0.0000       3.804471       103.5249 
 257   0.0000       3.805063       103.5410 
 258   0.0000       3.925773       106.8257 
 259   0.0000       3.928538       106.9010 
 260   0.0000       3.928769       106.9072 
 261   0.0000       3.947110       107.4063 
 262   0.0000       3.948019       107.4311 
 263   0.0000       3.949215       107.4636 
 264   0.0000       3.953689       107.5853 
 265   0.0000       3.958767       107.7235 
 266   0.0000       3.959327       107.7388 
 267   0.0000       4.240461       115.3888 
 268   0.0000       4.247753       115.5872 
 269   0.0000       4.248001       115.5940 
 270   0.0000       4.250164       115.6528 
 271   0.0000       4.253432       115.7418 
 272   0.0000       4.256756       115.8322 
 273   0.0000       4.341633       118.1418 
 274   0.0000       4.342264       118.1590 
 275   0.0000       4.342322       118.1606 
 276   0.0000       4.346415       118.2720 
 277   0.0000       4.347021       118.2884 
 278   0.0000       4.347064       118.2896 
 279   0.0000       4.562574       124.1539 
 280   0.0000       4.564690       124.2115 
 281   0.0000       4.564827       124.2153 
 282   0.0000       4.738666       128.9457 
 283   0.0000       4.742596       129.0526 
 284   0.0000       4.747281       129.1801 
 285   0.0000       4.748202       129.2051 
 286   0.0000       4.758870       129.4954 
 287   0.0000       4.758987       129.4986 
 288   0.0000       4.832138       131.4892 
 289   0.0000       4.839653       131.6937 
 290   0.0000       4.851839       132.0253 
 291   0.0000       4.959611       134.9579 
 292   0.0000       4.960658       134.9864 
 293   0.0000       4.961056       134.9972 
 294   0.0000       4.961793       135.0173 
 295   0.0000       4.961932       135.0210 
 296   0.0000       4.962129       135.0264 
 297   0.0000       5.066745       137.8731 
 298   0.0000       5.066765       137.8737 
 299   0.0000       5.067852       137.9033 
 300   0.0000       5.068202       137.9128 
 301   0.0000       5.068672       137.9256 
 302   0.0000       5.069159       137.9388 
 303   0.0000       5.198642       141.4622 
 304   0.0000       5.199590       141.4880 
 305   0.0000       5.202959       141.5797 
 306   0.0000       5.555560       151.1745 
 307   0.0000       5.556723       151.2061 
 308   0.0000       5.557429       151.2253 
 309   0.0000       5.557772       151.2347 
 310   0.0000       5.558206       151.2465 
 311   0.0000       5.562903       151.3743 
 312   0.0000       6.020774       163.8336 
 313   0.0000       6.022060       163.8686 
 314   0.0000       6.024053       163.9228 
 315   0.0000       6.080996       165.4723 
 316   0.0000       6.085151       165.5854 
 317   0.0000       6.086825       165.6309 
 318   0.0000       6.087073       165.6377 
 319   0.0000       6.088819       165.6852 
 320   0.0000       6.103299       166.0792 
 321   0.0000       6.463726       175.8869 
 322   0.0000       6.463886       175.8913 
 323   0.0000       6.464530       175.9088 
 324   0.0000      23.464458       638.5004 
 325   0.0000      23.476415       638.8257 
 326   0.0000      23.477326       638.8505 
 327   0.0000      24.381078       663.4429 
 328   0.0000      24.381565       663.4561 
 329   0.0000      24.386288       663.5846 
 330   0.0000      33.377906       908.2590 
 331   0.0000      33.392115       908.6456 
 332   0.0000      33.426339       909.5769 

                    ********************************
                    * MULLIKEN POPULATION ANALYSIS *
                    ********************************

-----------------------
MULLIKEN ATOMIC CHARGES
-----------------------
   0 C :   -0.165517
   1 H :    0.158583
   2 H :    0.158359
   3 H :    0.145053
   4 C :   -0.107640
   5 N :   -0.188835
   6 C :   -0.166052
   7 H :    0.160696
   8 H :    0.147509
   9 H :    0.155550
  10 C :   -0.106764
  11 N :   -0.190942
  12 C :   -0.164283
  13 H :    0.157718
  14 H :    0.159838
  15 H :    0.155089
  16 C :   -0.103815
  17 N :   -0.204547
Sum of atomic charges:    0.0000000

--------------------------------
MULLIKEN REDUCED ORBITAL CHARGES
--------------------------------
  0 C s       :     3.148967  s :     3.148967
      pz      :     0.796775  p :     2.950615
      px      :     1.071009
      py      :     1.082831
      dz2     :     0.017862  d :     0.062456
      dxz     :     0.011190
      dyz     :     0.011988
      dx2y2   :     0.010033
      dxy     :     0.011383
      f0      :     0.001701  f :     0.003479
      f+1     :     0.000214
      f-1     :     0.000214
      f+2     :     0.000079
      f-2     :     0.000054
      f+3     :     0.000250
      f-3     :     0.000967
  1 H s       :     0.819044  s :     0.819044
      pz      :     0.004498  p :     0.022373
      px      :     0.010015
      py      :     0.007859
  2 H s       :     0.819228  s :     0.819228
      pz      :     0.005141  p :     0.022413
      px      :     0.003965
      py      :     0.013307
  3 H s       :     0.832662  s :     0.832662
      pz      :     0.004952  p :     0.022285
      px      :     0.012264
      py      :     0.005069
  4 C s       :     3.232163  s :     3.232163
      pz      :     0.964461  p :     2.744559
      px      :     0.889799
      py      :     0.890299
      dz2     :     0.026853  d :     0.113551
      dxz     :     0.043187
      dyz     :     0.042827
      dx2y2   :     0.000137
      dxy     :     0.000548
      f0      :     0.004145  f :     0.017367
      f+1     :     0.006547
      f-1     :     0.006559
      f+2     :     0.000039
      f-2     :     0.000077
      f+3     :     0.000000
      f-3     :     0.000000
  5 N s       :     3.719967  s :     3.719967
      pz      :     1.284610  p :     3.410714
      px      :     1.063732
      py      :     1.062372
      dz2     :     0.011748  d :     0.055191
      dxz     :     0.021669
      dyz     :     0.021702
      dx2y2   :     0.000039
      dxy     :     0.000033
      f0      :     0.000625  f :     0.002963
      f+1     :     0.001163
      f-1     :     0.001165
      f+2     :     0.000005
      f-2     :     0.000005
      f+3     :     0.000000
      f-3     :     0.000000
  6 C s       :     3.149072  s :     3.149072
      pz      :     0.796011  p :     2.951112
      px      :     1.071968
      py      :     1.083133
      dz2     :     0.017902  d :     0.062391
      dxz     :     0.011215
      dyz     :     0.011828
      dx2y2   :     0.010668
      dxy     :     0.010779
      f0      :     0.001718  f :     0.003477
      f+1     :     0.000205
      f-1     :     0.000206
      f+2     :     0.000052
      f-2     :     0.000075
      f+3     :     0.000493
      f-3     :     0.000728
  7 H s       :     0.816909  s :     0.816909
      pz      :     0.004828  p :     0.022395
      px      :     0.004138
      py      :     0.013429
  8 H s       :     0.830180  s :     0.830180
      pz      :     0.004736  p :     0.022312
      px      :     0.012982
      py      :     0.004594
  9 H s       :     0.822067  s :     0.822067
      pz      :     0.005003  p :     0.022383
      px      :     0.008849
      py      :     0.008530
 10 C s       :     3.232400  s :     3.232400
      pz      :     0.965041  p :     2.743406
      px      :     0.889225
      py      :     0.889140
      dz2     :     0.026807  d :     0.113595
      dxz     :     0.043224
      dyz     :     0.043000
      dx2y2   :     0.000300
      dxy     :     0.000264
      f0      :     0.004126  f :     0.017363
      f+1     :     0.006581
      f-1     :     0.006588
      f+2     :     0.000037
      f-2     :     0.000031
      f+3     :     0.000000
      f-3     :     0.000000
 11 N s       :     3.719319  s :     3.719319
      pz      :     1.285481  p :     3.413506
      px      :     1.064548
      py      :     1.063476
      dz2     :     0.011705  d :     0.055153
      dxz     :     0.021715
      dyz     :     0.021728
      dx2y2   :     0.000003
      dxy     :     0.000003
      f0      :     0.000621  f :     0.002963
      f+1     :     0.001170
      f-1     :     0.001171
      f+2     :     0.000001
      f-2     :     0.000001
      f+3     :    -0.000000
      f-3     :    -0.000000
 12 C s       :     3.148594  s :     3.148594
      pz      :     0.790888  p :     2.950688
      px      :     1.076918
      py      :     1.082881
      dz2     :     0.017897  d :     0.061538
      dxz     :     0.011295
      dyz     :     0.010884
      dx2y2   :     0.011362
      dxy     :     0.010100
      f0      :     0.001727  f :     0.003464
      f+1     :     0.000198
      f-1     :     0.000196
      f+2     :     0.000061
      f-2     :     0.000062
      f+3     :     0.000008
      f-3     :     0.001211
 13 H s       :     0.819814  s :     0.819814
      pz      :     0.004854  p :     0.022469
      px      :     0.011736
      py      :     0.005879
 14 H s       :     0.817681  s :     0.817681
      pz      :     0.004819  p :     0.022481
      px      :     0.003709
      py      :     0.013952
 15 H s       :     0.822485  s :     0.822485
      pz      :     0.004998  p :     0.022426
      px      :     0.011156
      py      :     0.006272
 16 C s       :     3.235520  s :     3.235520
      pz      :     0.970871  p :     2.736951
      px      :     0.884716
      py      :     0.881364
      dz2     :     0.026491  d :     0.114020
      dxz     :     0.043037
      dyz     :     0.043915
      dx2y2   :     0.000278
      dxy     :     0.000298
      f0      :     0.004112  f :     0.017324
      f+1     :     0.006554
      f-1     :     0.006588
      f+2     :     0.000036
      f-2     :     0.000033
      f+3     :     0.000000
      f-3     :     0.000000
 17 N s       :     3.713841  s :     3.713841
      pz      :     1.289083  p :     3.432833
      px      :     1.069757
      py      :     1.073994
      dz2     :     0.011660  d :     0.054904
      dxz     :     0.021639
      dyz     :     0.021594
      dx2y2   :     0.000006
      dxy     :     0.000005
      f0      :     0.000624  f :     0.002968
      f+1     :     0.001172
      f-1     :     0.001170
      f+2     :     0.000001
      f-2     :     0.000001
      f+3     :     0.000000
      f-3     :     0.000000


                     *******************************
                     * LOEWDIN POPULATION ANALYSIS *
                     *******************************

----------------------
LOEWDIN ATOMIC CHARGES
----------------------
   0 C :   -0.245681
   1 H :    0.144788
   2 H :    0.143558
   3 H :    0.140882
   4 C :   -0.201217
   5 N :    0.017676
   6 C :   -0.245555
   7 H :    0.145707
   8 H :    0.141568
   9 H :    0.142645
  10 C :   -0.200754
  11 N :    0.016383
  12 C :   -0.243433
  13 H :    0.144118
  14 H :    0.146641
  15 H :    0.143488
  16 C :   -0.197525
  17 N :    0.006711

-------------------------------
LOEWDIN REDUCED ORBITAL CHARGES
-------------------------------
  0 C s       :     2.813638  s :     2.813638
      pz      :     1.026732  p :     3.143127
      px      :     1.056350
      py      :     1.060045
      dz2     :     0.077422  d :     0.263419
      dxz     :     0.060764
      dyz     :     0.063348
      dx2y2   :     0.028271
      dxy     :     0.033614
      f0      :     0.007331  f :     0.025497
      f+1     :     0.005331
      f-1     :     0.005087
      f+2     :     0.002467
      f-2     :     0.001993
      f+3     :     0.000678
      f-3     :     0.002610
  1 H s       :     0.794422  s :     0.794422
      pz      :     0.012021  p :     0.060790
      px      :     0.026864
      py      :     0.021905
  2 H s       :     0.795523  s :     0.795523
      pz      :     0.013285  p :     0.060919
      px      :     0.012865
      py      :     0.034769
  3 H s       :     0.798709  s :     0.798709
      pz      :     0.012890  p :     0.060409
      px      :     0.032091
      py      :     0.015428
  4 C s       :     2.838164  s :     2.838164
      pz      :     1.190894  p :     2.856396
      px      :     0.832501
      py      :     0.833001
      dz2     :     0.154551  d :     0.447959
      dxz     :     0.146345
      dyz     :     0.145960
      dx2y2   :     0.000126
      dxy     :     0.000977
      f0      :     0.023073  f :     0.058698
      f+1     :     0.017694
      f-1     :     0.017674
      f+2     :     0.000075
      f-2     :     0.000180
      f+3     :     0.000000
      f-3     :     0.000001
  5 N s       :     3.314868  s :     3.314868
      pz      :     1.494313  p :     3.541115
      px      :     1.024075
      py      :     1.022728
      dz2     :     0.045899  d :     0.111942
      dxz     :     0.032956
      dyz     :     0.032975
      dx2y2   :     0.000060
      dxy     :     0.000052
      f0      :     0.006211  f :     0.014399
      f+1     :     0.004079
      f-1     :     0.004075
      f+2     :     0.000018
      f-2     :     0.000016
      f+3     :     0.000000
      f-3     :     0.000000
  6 C s       :     2.813692  s :     2.813692
      pz      :     1.026525  p :     3.143116
      px      :     1.057923
      py      :     1.058668
      dz2     :     0.077577  d :     0.263254
      dxz     :     0.061138
      dyz     :     0.062739
      dx2y2   :     0.030710
      dxy     :     0.031089
      f0      :     0.007359  f :     0.025493
      f+1     :     0.005249
      f-1     :     0.005164
      f+2     :     0.002102
      f-2     :     0.002330
      f+3     :     0.001324
      f-3     :     0.001964
  7 H s       :     0.793594  s :     0.793594
      pz      :     0.012653  p :     0.060699
      px      :     0.013226
      py      :     0.034821
  8 H s       :     0.797973  s :     0.797973
      pz      :     0.012447  p :     0.060459
      px      :     0.033713
      py      :     0.014300
  9 H s       :     0.796375  s :     0.796375
      pz      :     0.013014  p :     0.060980
      px      :     0.024426
      py      :     0.023540
 10 C s       :     2.838288  s :     2.838288
      pz      :     1.191595  p :     2.855476
      px      :     0.831870
      py      :     0.832011
      dz2     :     0.154534  d :     0.448279
      dxz     :     0.146585
      dyz     :     0.146493
      dx2y2   :     0.000377
      dxy     :     0.000290
      f0      :     0.023114  f :     0.058711
      f+1     :     0.017733
      f-1     :     0.017733
      f+2     :     0.000076
      f-2     :     0.000053
      f+3     :     0.000000
      f-3     :     0.000001
 11 N s       :     3.314855  s :     3.314855
      pz      :     1.494983  p :     3.542597
      px      :     1.024169
      py      :     1.023445
      dz2     :     0.045930  d :     0.111783
      dxz     :     0.032902
      dyz     :     0.032935
      dx2y2   :     0.000008
      dxy     :     0.000008
      f0      :     0.006226  f :     0.014383
      f+1     :     0.004074
      f-1     :     0.004076
      f+2     :     0.000003
      f-2     :     0.000003
      f+3     :     0.000000
      f-3     :     0.000000
 12 C s       :     2.813634  s :     2.813634
      pz      :     1.023754  p :     3.142975
      px      :     1.058119
      py      :     1.061102
      dz2     :     0.078047  d :     0.261440
      dxz     :     0.062052
      dyz     :     0.059940
      dx2y2   :     0.032051
      dxy     :     0.029350
      f0      :     0.007410  f :     0.025383
      f+1     :     0.005087
      f-1     :     0.005166
      f+2     :     0.002246
      f-2     :     0.002195
      f+3     :     0.000026
      f-3     :     0.003252
 13 H s       :     0.794788  s :     0.794788
      pz      :     0.012698  p :     0.061095
      px      :     0.030969
      py      :     0.017428
 14 H s       :     0.792451  s :     0.792451
      pz      :     0.012595  p :     0.060908
      px      :     0.012238
      py      :     0.036075
 15 H s       :     0.795545  s :     0.795545
      pz      :     0.012971  p :     0.060967
      px      :     0.029638
      py      :     0.018358
 16 C s       :     2.839478  s :     2.839478
      pz      :     1.193076  p :     2.848910
      px      :     0.828826
      py      :     0.827009
      dz2     :     0.154115  d :     0.450327
      dxz     :     0.146655
      dyz     :     0.148892
      dx2y2   :     0.000305
      dxy     :     0.000359
      f0      :     0.023045  f :     0.058811
      f+1     :     0.017765
      f-1     :     0.017868
      f+2     :     0.000072
      f-2     :     0.000060
      f+3     :     0.000000
      f-3     :     0.000001
 17 N s       :     3.314314  s :     3.314314
      pz      :     1.495687  p :     3.553887
      px      :     1.027433
      py      :     1.030766
      dz2     :     0.045828  d :     0.110777
      dxz     :     0.032555
      dyz     :     0.032373
      dx2y2   :     0.000012
      dxy     :     0.000010
      f0      :     0.006231  f :     0.014310
      f+1     :     0.004048
      f-1     :     0.004024
      f+2     :     0.000004
      f-2     :     0.000003
      f+3     :     0.000000
      f-3     :     0.000000


                      *****************************
                      * MAYER POPULATION ANALYSIS *
                      *****************************

  NA   - Mulliken gross atomic population
  ZA   - Total nuclear charge
  QA   - Mulliken gross atomic charge
  VA   - Mayer's total valence
  BVA  - Mayer's bonded valence
  FA   - Mayer's free valence

  ATOM       NA         ZA         QA         VA         BVA        FA
  0 C      6.1655     6.0000    -0.1655     3.8108     3.8108     0.0000
  1 H      0.8414     1.0000     0.1586     0.9610     0.9610     0.0000
  2 H      0.8416     1.0000     0.1584     0.9623     0.9623     0.0000
  3 H      0.8549     1.0000     0.1451     0.9622     0.9622     0.0000
  4 C      6.1076     6.0000    -0.1076     3.9152     3.9152     0.0000
  5 N      7.1888     7.0000    -0.1888     3.0345     3.0345     0.0000
  6 C      6.1661     6.0000    -0.1661     3.8100     3.8100     0.0000
  7 H      0.8393     1.0000     0.1607     0.9623     0.9623     0.0000
  8 H      0.8525     1.0000     0.1475     0.9619     0.9619    -0.0000
  9 H      0.8444     1.0000     0.1556     0.9611     0.9611     0.0000
 10 C      6.1068     6.0000    -0.1068     3.9163     3.9163     0.0000
 11 N      7.1909     7.0000    -0.1909     3.0351     3.0351    -0.0000
 12 C      6.1643     6.0000    -0.1643     3.8043     3.8043     0.0000
 13 H      0.8423     1.0000     0.1577     0.9622     0.9622    -0.0000
 14 H      0.8402     1.0000     0.1598     0.9616     0.9616    -0.0000
 15 H      0.8449     1.0000     0.1551     0.9618     0.9618    -0.0000
 16 C      6.1038     6.0000    -0.1038     3.9246     3.9246     0.0000
 17 N      7.2045     7.0000    -0.2045     3.0390     3.0390     0.0000

  Mayer bond orders larger than 0.100000
B(  0-C ,  1-H ) :   0.9633 B(  0-C ,  2-H ) :   0.9634 B(  0-C ,  3-H ) :   0.9663 
B(  0-C ,  4-C ) :   0.9279 B(  4-C ,  5-N ) :   3.0085 B(  6-C ,  7-H ) :   0.9616 
B(  6-C ,  8-H ) :   0.9658 B(  6-C ,  9-H ) :   0.9647 B(  6-C , 10-C ) :   0.9281 
B( 10-C , 11-N ) :   3.0091 B( 12-C , 13-H ) :   0.9617 B( 12-C , 14-H ) :   0.9623 
B( 12-C , 15-H ) :   0.9629 B( 12-C , 16-C ) :   0.9286 B( 16-C , 17-N ) :   3.0137 


-------
TIMINGS
-------

Total SCF time: 0 days 0 hours 0 min 24 sec 

Total time                  ....      24.464 sec
Sum of individual times     ....      24.168 sec  ( 98.8%)

Fock matrix formation       ....      23.617 sec  ( 96.5%)
Diagonalization             ....       0.139 sec  (  0.6%)
Density matrix formation    ....       0.018 sec  (  0.1%)
Population analysis         ....       0.026 sec  (  0.1%)
Initial guess               ....       0.165 sec  (  0.7%)
Orbital Transformation      ....       0.000 sec  (  0.0%)
Orbital Orthonormalization  ....       0.000 sec  (  0.0%)
DIIS solution               ....       0.050 sec  (  0.2%)
SOSCF solution              ....       0.083 sec  (  0.3%)


           ************************************************************
           *        Program running with 6 parallel MPI-processes     *
           *              working on a common directory               *
           ************************************************************

------------------------------------------------------------------------------
                                ORCA  MP2 
------------------------------------------------------------------------------

Freezing NCore=18 chemical core electrons
MP2 will be done in the AO integral direct mode
The Q1-step will be done using symmetric double matrices
Dimension of the basis                    ...  333
Memory devoted for MP2                    ... 8000 MB   
Memory needed for all in one shot         ...  566 MB
Number of MOs that can be treated together...   55      
MP2 density construction                  ... relaxed
The MP2 gradient is requested => amplitudes will be stored on disk
Total number of MOs              ...   24
Number of MOs treated per batch  ...    4 
Number of batches necessary      ...    1 
OPERATORS   0/  0 PASS   0
-----------------------------------------------
 MP2 CORRELATION ENERGY   :     -1.526531664 Eh
-----------------------------------------------


---------------------
MP2 DENSITY FORMATION
---------------------

Completing the external part of the density      ... done
Storing the unrelaxed density                    ... done

Calculating G(D)                                 ... done
Completing the Lagrangian                        ... done
Solving the Z-vector equations                   ... 

------------------------------------------------------------------------------
                           ORCA CP-SCF CALCULATION
------------------------------------------------------------------------------

Input orbitals are from        ... 12mecn.remya.etal.2.mol0,1,9-orca.engrad-mp2.def2tzvp.frozencore.gbw
Input Perturbation             ... 12mecn.remya.etal.2.mol0,1,9-orca.engrad-mp2.def2tzvp.frozencore.pin.tmp
Wavefunction output            ... 12mecn.remya.etal.2.mol0,1,9-orca.engrad-mp2.def2tzvp.frozencore.pout.tmp
Perturbation mode              ... Real perturbation (singlet)
Solver                         ... POPLE
Max. number of iterations      ... 128
Convergence tolerance          ... 1.000e-08
Integral handling              ... Direct
Number of perturbations        ... 1
Number of operators            ... 1
Orbital ranges used for CP-SCF:
 Operator 0:  Orbitals   0... 32  to  33...332
Variables per vector in CP-SCF ... 9900
Number of vectors sought       ... 1
     CP-SCF ITERATION   0: 
     CP-SCF ITERATION   1:      0.001374759845
     CP-SCF ITERATION   2:      0.000279052139
     CP-SCF ITERATION   3:      0.000005959763
     CP-SCF ITERATION   4:      0.000000446411
     CP-SCF ITERATION   5:      0.000000102764
     CP-SCF ITERATION   6:      0.000000020664
     CP-SCF ITERATION   7:      0.000000005627
                                                 ... done
Finalizing the relaxed density                   ... done
Transforming P to the AO basis                   ... done
Storing the relaxed density                      ... done

------------------------------------
ENERGY WEIGHTED DENSITY FINALIZATION
------------------------------------

Gathering the parts of the W-matrix              ...                                                      done
Forming the Z-density                            ... done
Transforming Z to the AO basis                   ... done
Calculating G(Z)                                 ... done
Finalizing the W-matrix                          ...                                                      done
Transforming W to the AO basis and storing       ... done

                *********************************************
                * UNRELAXED MP2 DENSITY POPULATION ANALYSIS *
                *********************************************

------------------------------------------------------------------------------
                           ORCA POPULATION ANALYSIS
------------------------------------------------------------------------------
Input electron density              ... 12mecn.remya.etal.2.mol0,1,9-orca.engrad-mp2.def2tzvp.frozencore.pmp2ur
BaseName (.gbw .S,...)              ... 12mecn.remya.etal.2.mol0,1,9-orca.engrad-mp2.def2tzvp.frozencore

                    ********************************
                    * MULLIKEN POPULATION ANALYSIS *
                    ********************************

-----------------------
MULLIKEN ATOMIC CHARGES
-----------------------
   0 C :   -0.178806
   1 H :    0.161149
   2 H :    0.160946
   3 H :    0.147637
   4 C :   -0.116145
   5 N :   -0.174775
   6 C :   -0.179344
   7 H :    0.163274
   8 H :    0.150081
   9 H :    0.158135
  10 C :   -0.115341
  11 N :   -0.176809
  12 C :   -0.177485
  13 H :    0.160291
  14 H :    0.162392
  15 H :    0.157670
  16 C :   -0.112847
  17 N :   -0.190021
Sum of atomic charges:    0.0000000

--------------------------------
MULLIKEN REDUCED ORBITAL CHARGES
--------------------------------
  0 C s       :     3.147363  s :     3.147363
      pz      :     0.795523  p :     2.936120
      px      :     1.064418
      py      :     1.076179
      dz2     :     0.020365  d :     0.087983
      dxz     :     0.017277
      dyz     :     0.018044
      dx2y2   :     0.015529
      dxy     :     0.016768
      f0      :     0.002099  f :     0.007340
      f+1     :     0.000880
      f-1     :     0.000884
      f+2     :     0.000616
      f-2     :     0.000598
      f+3     :     0.000809
      f-3     :     0.001456
  1 H s       :     0.813662  s :     0.813662
      pz      :     0.005504  p :     0.025189
      px      :     0.010890
      py      :     0.008795
  2 H s       :     0.813830  s :     0.813830
      pz      :     0.006126  p :     0.025225
      px      :     0.005000
      py      :     0.014098
  3 H s       :     0.827222  s :     0.827222
      pz      :     0.005954  p :     0.025141
      px      :     0.013098
      py      :     0.006089
  4 C s       :     3.231700  s :     3.231700
      pz      :     0.955621  p :     2.734819
      px      :     0.889399
      py      :     0.889799
      dz2     :     0.029337  d :     0.129290
      dxz     :     0.045308
      dyz     :     0.044960
      dx2y2   :     0.004640
      dxy     :     0.005046
      f0      :     0.004608  f :     0.020337
      f+1     :     0.006990
      f-1     :     0.007001
      f+2     :     0.000593
      f-2     :     0.000631
      f+3     :     0.000257
      f-3     :     0.000257
  5 N s       :     3.707141  s :     3.707141
      pz      :     1.272316  p :     3.384934
      px      :     1.056950
      py      :     1.055668
      dz2     :     0.015918  d :     0.077041
      dxz     :     0.025661
      dyz     :     0.025691
      dx2y2   :     0.004888
      dxy     :     0.004883
      f0      :     0.001051  f :     0.005659
      f+1     :     0.001607
      f-1     :     0.001610
      f+2     :     0.000419
      f-2     :     0.000419
      f+3     :     0.000276
      f-3     :     0.000276
  6 C s       :     3.147469  s :     3.147469
      pz      :     0.794773  p :     2.936611
      px      :     1.065355
      py      :     1.076483
      dz2     :     0.020382  d :     0.087926
      dxz     :     0.017291
      dyz     :     0.017921
      dx2y2   :     0.016114
      dxy     :     0.016218
      f0      :     0.002113  f :     0.007339
      f+1     :     0.000871
      f-1     :     0.000879
      f+2     :     0.000593
      f-2     :     0.000615
      f+3     :     0.001028
      f-3     :     0.001240
  7 H s       :     0.811532  s :     0.811532
      pz      :     0.005819  p :     0.025194
      px      :     0.005166
      py      :     0.014209
  8 H s       :     0.824756  s :     0.824756
      pz      :     0.005743  p :     0.025163
      px      :     0.013794
      py      :     0.005626
  9 H s       :     0.816653  s :     0.816653
      pz      :     0.005997  p :     0.025212
      px      :     0.009761
      py      :     0.009455
 10 C s       :     3.231923  s :     3.231923
      pz      :     0.956193  p :     2.733767
      px      :     0.888861
      py      :     0.888713
      dz2     :     0.029288  d :     0.129319
      dxz     :     0.045343
      dyz     :     0.045122
      dx2y2   :     0.004799
      dxy     :     0.004767
      f0      :     0.004590  f :     0.020332
      f+1     :     0.007022
      f-1     :     0.007031
      f+2     :     0.000592
      f-2     :     0.000586
      f+3     :     0.000256
      f-3     :     0.000256
 11 N s       :     3.706497  s :     3.706497
      pz      :     1.273179  p :     3.387628
      px      :     1.057736
      py      :     1.056713
      dz2     :     0.015879  d :     0.077025
      dxz     :     0.025711
      dyz     :     0.025721
      dx2y2   :     0.004857
      dxy     :     0.004857
      f0      :     0.001047  f :     0.005660
      f+1     :     0.001615
      f-1     :     0.001616
      f+2     :     0.000415
      f-2     :     0.000415
      f+3     :     0.000276
      f-3     :     0.000276
 12 C s       :     3.146971  s :     3.146971
      pz      :     0.789744  p :     2.936111
      px      :     1.070267
      py      :     1.076100
      dz2     :     0.020363  d :     0.087074
      dxz     :     0.017366
      dyz     :     0.016972
      dx2y2   :     0.016784
      dxy     :     0.015589
      f0      :     0.002122  f :     0.007328
      f+1     :     0.000870
      f-1     :     0.000862
      f+2     :     0.000605
      f-2     :     0.000601
      f+3     :     0.000591
      f-3     :     0.001678
 13 H s       :     0.814439  s :     0.814439
      pz      :     0.005844  p :     0.025270
      px      :     0.012563
      py      :     0.006863
 14 H s       :     0.812318  s :     0.812318
      pz      :     0.005812  p :     0.025290
      px      :     0.004751
      py      :     0.014727
 15 H s       :     0.817089  s :     0.817089
      pz      :     0.005987  p :     0.025241
      px      :     0.012005
      py      :     0.007249
 16 C s       :     3.234898  s :     3.234898
      pz      :     0.962013  p :     2.728046
      px      :     0.884573
      py      :     0.881460
      dz2     :     0.028965  d :     0.129614
      dxz     :     0.045143
      dyz     :     0.045991
      dx2y2   :     0.004749
      dxy     :     0.004766
      f0      :     0.004576  f :     0.020289
      f+1     :     0.006996
      f-1     :     0.007029
      f+2     :     0.000591
      f-2     :     0.000588
      f+3     :     0.000254
      f-3     :     0.000255
 17 N s       :     3.701117  s :     3.701117
      pz      :     1.276794  p :     3.406316
      px      :     1.062750
      py      :     1.066773
      dz2     :     0.015857  d :     0.076916
      dxz     :     0.025664
      dyz     :     0.025632
      dx2y2   :     0.004882
      dxy     :     0.004881
      f0      :     0.001050  f :     0.005672
      f+1     :     0.001618
      f-1     :     0.001617
      f+2     :     0.000416
      f-2     :     0.000416
      f+3     :     0.000277
      f-3     :     0.000277


                     *******************************
                     * LOEWDIN POPULATION ANALYSIS *
                     *******************************

----------------------
LOEWDIN ATOMIC CHARGES
----------------------
   0 C :   -0.253778
   1 H :    0.146455
   2 H :    0.145242
   3 H :    0.142511
   4 C :   -0.206266
   5 N :    0.025842
   6 C :   -0.253652
   7 H :    0.147390
   8 H :    0.143199
   9 H :    0.144315
  10 C :   -0.205835
  11 N :    0.024577
  12 C :   -0.251490
  13 H :    0.145812
  14 H :    0.148295
  15 H :    0.145166
  16 C :   -0.202837
  17 N :    0.015054

-------------------------------
LOEWDIN REDUCED ORBITAL CHARGES
-------------------------------
  0 C s       :     2.811835  s :     2.811835
      pz      :     1.018216  p :     3.118685
      px      :     1.048402
      py      :     1.052067
      dz2     :     0.082629  d :     0.291738
      dxz     :     0.066608
      dyz     :     0.069194
      dx2y2   :     0.033984
      dxy     :     0.039323
      f0      :     0.008449  f :     0.031520
      f+1     :     0.006394
      f-1     :     0.006146
      f+2     :     0.003144
      f-2     :     0.002663
      f+3     :     0.001340
      f-3     :     0.003383
  1 H s       :     0.788015  s :     0.788015
      pz      :     0.013396  p :     0.065530
      px      :     0.028646
      py      :     0.023489
  2 H s       :     0.789107  s :     0.789107
      pz      :     0.014718  p :     0.065652
      px      :     0.014075
      py      :     0.036858
  3 H s       :     0.792273  s :     0.792273
      pz      :     0.014320  p :     0.065217
      px      :     0.034133
      py      :     0.016764
  4 C s       :     2.834905  s :     2.834905
      pz      :     1.178365  p :     2.837388
      px      :     0.829292
      py      :     0.829731
      dz2     :     0.161886  d :     0.467551
      dxz     :     0.147974
      dyz     :     0.147612
      dx2y2   :     0.004626
      dxy     :     0.005454
      f0      :     0.024687  f :     0.066422
      f+1     :     0.019819
      f-1     :     0.019801
      f+2     :     0.000746
      f-2     :     0.000854
      f+3     :     0.000257
      f-3     :     0.000258
  5 N s       :     3.307016  s :     3.307016
      pz      :     1.478415  p :     3.506930
      px      :     1.014901
      py      :     1.013615
      dz2     :     0.052716  d :     0.141392
      dxz     :     0.039498
      dyz     :     0.039509
      dx2y2   :     0.004839
      dxy     :     0.004831
      f0      :     0.007281  f :     0.018819
      f+1     :     0.005043
      f-1     :     0.005039
      f+2     :     0.000453
      f-2     :     0.000451
      f+3     :     0.000276
      f-3     :     0.000276
  6 C s       :     2.811889  s :     2.811889
      pz      :     1.018008  p :     3.118663
      px      :     1.049952
      py      :     1.050703
      dz2     :     0.082778  d :     0.291584
      dxz     :     0.066986
      dyz     :     0.068594
      dx2y2   :     0.036424
      dxy     :     0.036801
      f0      :     0.008478  f :     0.031516
      f+1     :     0.006311
      f-1     :     0.006228
      f+2     :     0.002770
      f-2     :     0.003006
      f+3     :     0.002024
      f-3     :     0.002700
  7 H s       :     0.787197  s :     0.787197
      pz      :     0.014056  p :     0.065413
      px      :     0.014454
      py      :     0.036903
  8 H s       :     0.791542  s :     0.791542
      pz      :     0.013853  p :     0.065260
      px      :     0.035816
      py      :     0.015590
  9 H s       :     0.789947  s :     0.789947
      pz      :     0.014438  p :     0.065738
      px      :     0.026103
      py      :     0.025197
 10 C s       :     2.835026  s :     2.835026
      pz      :     1.179053  p :     2.836538
      px      :     0.828684
      py      :     0.828801
      dz2     :     0.161893  d :     0.467839
      dxz     :     0.148193
      dyz     :     0.148105
      dx2y2   :     0.004866
      dxy     :     0.004782
      f0      :     0.024723  f :     0.066432
      f+1     :     0.019864
      f-1     :     0.019866
      f+2     :     0.000744
      f-2     :     0.000722
      f+3     :     0.000256
      f-3     :     0.000257
 11 N s       :     3.307008  s :     3.307008
      pz      :     1.479077  p :     3.508352
      px      :     1.014984
      py      :     1.014291
      dz2     :     0.052752  d :     0.141259
      dxz     :     0.039451
      dyz     :     0.039479
      dx2y2   :     0.004788
      dxy     :     0.004789
      f0      :     0.007296  f :     0.018804
      f+1     :     0.005040
      f-1     :     0.005042
      f+2     :     0.000437
      f-2     :     0.000437
      f+3     :     0.000276
      f-3     :     0.000276
 12 C s       :     2.811823  s :     2.811823
      pz      :     1.015267  p :     3.118490
      px      :     1.050142
      py      :     1.053080
      dz2     :     0.083213  d :     0.289773
      dxz     :     0.067909
      dyz     :     0.065821
      dx2y2   :     0.037775
      dxy     :     0.035055
      f0      :     0.008528  f :     0.031404
      f+1     :     0.006150
      f-1     :     0.006227
      f+2     :     0.002922
      f-2     :     0.002863
      f+3     :     0.000652
      f-3     :     0.004061
 13 H s       :     0.788381  s :     0.788381
      pz      :     0.014098  p :     0.065806
      px      :     0.032896
      py      :     0.018813
 14 H s       :     0.786065  s :     0.786065
      pz      :     0.013993  p :     0.065640
      px      :     0.013422
      py      :     0.038224
 15 H s       :     0.789132  s :     0.789132
      pz      :     0.014388  p :     0.065702
      px      :     0.031530
      py      :     0.019784
 16 C s       :     2.836178  s :     2.836178
      pz      :     1.180551  p :     2.830521
      px      :     0.825806
      py      :     0.824163
      dz2     :     0.161442  d :     0.469631
      dxz     :     0.148239
      dyz     :     0.150365
      dx2y2   :     0.004768
      dxy     :     0.004817
      f0      :     0.024656  f :     0.066507
      f+1     :     0.019883
      f-1     :     0.019990
      f+2     :     0.000740
      f-2     :     0.000729
      f+3     :     0.000254
      f-3     :     0.000256
 17 N s       :     3.306515  s :     3.306515
      pz      :     1.479814  p :     3.519270
      px      :     1.018139
      py      :     1.021317
      dz2     :     0.052671  d :     0.140422
      dxz     :     0.039144
      dyz     :     0.038986
      dx2y2   :     0.004811
      dxy     :     0.004810
      f0      :     0.007301  f :     0.018739
      f+1     :     0.005015
      f-1     :     0.004993
      f+2     :     0.000438
      f-2     :     0.000437
      f+3     :     0.000277
      f-3     :     0.000277


                      *****************************
                      * MAYER POPULATION ANALYSIS *
                      *****************************

  NA   - Mulliken gross atomic population
  ZA   - Total nuclear charge
  QA   - Mulliken gross atomic charge
  VA   - Mayer's total valence
  BVA  - Mayer's bonded valence
  FA   - Mayer's free valence

  ATOM       NA         ZA         QA         VA         BVA        FA
  0 C      6.1788     6.0000    -0.1788     3.9283     3.6452     0.2831
  1 H      0.8389     1.0000     0.1611     0.9685     0.9210     0.0475
  2 H      0.8391     1.0000     0.1609     0.9697     0.9224     0.0473
  3 H      0.8524     1.0000     0.1476     0.9702     0.9218     0.0483
  4 C      6.1161     6.0000    -0.1161     4.0170     3.5776     0.4394
  5 N      7.1748     7.0000    -0.1748     3.2291     2.7433     0.4858
  6 C      6.1793     6.0000    -0.1793     3.9275     3.6444     0.2831
  7 H      0.8367     1.0000     0.1633     0.9696     0.9224     0.0472
  8 H      0.8499     1.0000     0.1501     0.9698     0.9215     0.0483
  9 H      0.8419     1.0000     0.1581     0.9686     0.9210     0.0475
 10 C      6.1153     6.0000    -0.1153     4.0181     3.5787     0.4393
 11 N      7.1768     7.0000    -0.1768     3.2299     2.7439     0.4860
 12 C      6.1775     6.0000    -0.1775     3.9217     3.6394     0.2824
 13 H      0.8397     1.0000     0.1603     0.9696     0.9223     0.0473
 14 H      0.8376     1.0000     0.1624     0.9690     0.9215     0.0475
 15 H      0.8423     1.0000     0.1577     0.9693     0.9218     0.0475
 16 C      6.1128     6.0000    -0.1128     4.0258     3.5882     0.4376
 17 N      7.1900     7.0000    -0.1900     3.2354     2.7492     0.4862

  Mayer bond orders larger than 0.100000
B(  0-C ,  1-H ) :   0.9259 B(  0-C ,  2-H ) :   0.9261 B(  0-C ,  3-H ) :   0.9285 
B(  0-C ,  4-C ) :   0.8764 B(  4-C ,  5-N ) :   2.7243 B(  6-C ,  7-H ) :   0.9244 
B(  6-C ,  8-H ) :   0.9281 B(  6-C ,  9-H ) :   0.9273 B(  6-C , 10-C ) :   0.8766 
B( 10-C , 11-N ) :   2.7249 B( 12-C , 13-H ) :   0.9245 B( 12-C , 14-H ) :   0.9249 
B( 12-C , 15-H ) :   0.9256 B( 12-C , 16-C ) :   0.8771 B( 16-C , 17-N ) :   2.7307 



                *******************************************
                * RELAXED MP2 DENSITY POPULATION ANALYSIS *
                *******************************************

------------------------------------------------------------------------------
                           ORCA POPULATION ANALYSIS
------------------------------------------------------------------------------
Input electron density              ... 12mecn.remya.etal.2.mol0,1,9-orca.engrad-mp2.def2tzvp.frozencore.pmp2re
BaseName (.gbw .S,...)              ... 12mecn.remya.etal.2.mol0,1,9-orca.engrad-mp2.def2tzvp.frozencore

                    ********************************
                    * MULLIKEN POPULATION ANALYSIS *
                    ********************************

-----------------------
MULLIKEN ATOMIC CHARGES
-----------------------
   0 C :   -0.279908
   1 H :    0.174815
   2 H :    0.174345
   3 H :    0.162260
   4 C :   -0.144608
   5 N :   -0.086898
   6 C :   -0.280272
   7 H :    0.176256
   8 H :    0.164570
   9 H :    0.172137
  10 C :   -0.144342
  11 N :   -0.088356
  12 C :   -0.277746
  13 H :    0.173655
  14 H :    0.176041
  15 H :    0.171338
  16 C :   -0.145670
  17 N :   -0.097617
Sum of atomic charges:    0.0000000

--------------------------------
MULLIKEN REDUCED ORBITAL CHARGES
--------------------------------
  0 C s       :     3.183701  s :     3.183701
      pz      :     0.841924  p :     3.011511
      px      :     1.079108
      py      :     1.090480
      dz2     :     0.016113  d :     0.077611
      dxz     :     0.017485
      dyz     :     0.018076
      dx2y2   :     0.012481
      dxy     :     0.013455
      f0      :     0.001864  f :     0.007085
      f+1     :     0.000940
      f-1     :     0.000945
      f+2     :     0.000602
      f-2     :     0.000588
      f+3     :     0.000784
      f-3     :     0.001361
  1 H s       :     0.801136  s :     0.801136
      pz      :     0.005603  p :     0.024048
      px      :     0.010095
      py      :     0.008350
  2 H s       :     0.801577  s :     0.801577
      pz      :     0.006107  p :     0.024078
      px      :     0.005178
      py      :     0.012793
  3 H s       :     0.813690  s :     0.813690
      pz      :     0.005992  p :     0.024050
      px      :     0.011967
      py      :     0.006091
  4 C s       :     3.210529  s :     3.210529
      pz      :     0.989966  p :     2.810504
      px      :     0.910645
      py      :     0.909893
      dz2     :     0.024550  d :     0.104583
      dxz     :     0.035356
      dyz     :     0.035073
      dx2y2   :     0.004614
      dxy     :     0.004990
      f0      :     0.004423  f :     0.018992
      f+1     :     0.006416
      f-1     :     0.006429
      f+2     :     0.000589
      f-2     :     0.000623
      f+3     :     0.000256
      f-3     :     0.000257
  5 N s       :     3.649464  s :     3.649464
      pz      :     1.262041  p :     3.364224
      px      :     1.051289
      py      :     1.050894
      dz2     :     0.014908  d :     0.068025
      dxz     :     0.021677
      dyz     :     0.021683
      dx2y2   :     0.004881
      dxy     :     0.004877
      f0      :     0.000934  f :     0.005185
      f+1     :     0.001430
      f-1     :     0.001432
      f+2     :     0.000418
      f-2     :     0.000418
[...]
      f+1     :     0.006446
      f-1     :     0.006453
      f+2     :     0.000587
      f-2     :     0.000582
      f+3     :     0.000256
      f-3     :     0.000256
 11 N s       :     3.648640  s :     3.648640
      pz      :     1.263013  p :     3.366513
      px      :     1.052069
      py      :     1.051431
      dz2     :     0.014882  d :     0.068017
      dxz     :     0.021712
      dyz     :     0.021710
      dx2y2   :     0.004856
      dxy     :     0.004857
      f0      :     0.000931  f :     0.005187
      f+1     :     0.001436
      f-1     :     0.001437
      f+2     :     0.000415
      f-2     :     0.000415
      f+3     :     0.000276
      f-3     :     0.000276
 12 C s       :     3.183192  s :     3.183192
      pz      :     0.836493  p :     3.010665
      px      :     1.084675
      py      :     1.089497
      dz2     :     0.016064  d :     0.076815
      dxz     :     0.017500
      dyz     :     0.017218
      dx2y2   :     0.013512
      dxy     :     0.012520
      f0      :     0.001882  f :     0.007074
      f+1     :     0.000932
      f-1     :     0.000926
      f+2     :     0.000595
      f-2     :     0.000590
      f+3     :     0.000590
      f-3     :     0.001560
 13 H s       :     0.802227  s :     0.802227
      pz      :     0.005870  p :     0.024118
      px      :     0.011498
      py      :     0.006751
 14 H s       :     0.799818  s :     0.799818
      pz      :     0.005862  p :     0.024141
      px      :     0.004969
      py      :     0.013310
 15 H s       :     0.804561  s :     0.804561
      pz      :     0.005995  p :     0.024101
      px      :     0.011029
      py      :     0.007077
 16 C s       :     3.213926  s :     3.213926
      pz      :     0.996414  p :     2.807806
      px      :     0.905744
      py      :     0.905648
      dz2     :     0.024234  d :     0.104992
      dxz     :     0.035285
      dyz     :     0.036019
      dx2y2   :     0.004721
      dxy     :     0.004734
      f0      :     0.004398  f :     0.018945
      f+1     :     0.006424
      f-1     :     0.006445
      f+2     :     0.000586
      f-2     :     0.000583
      f+3     :     0.000254
      f-3     :     0.000254
 17 N s       :     3.641656  s :     3.641656
      pz      :     1.267588  p :     3.382796
      px      :     1.056862
      py      :     1.058346
      dz2     :     0.014856  d :     0.067966
      dxz     :     0.021666
      dyz     :     0.021682
      dx2y2   :     0.004881
      dxy     :     0.004880
      f0      :     0.000933  f :     0.005200
      f+1     :     0.001439
      f-1     :     0.001441
      f+2     :     0.000416
      f-2     :     0.000416
      f+3     :     0.000277
      f-3     :     0.000277


                     *******************************
                     * LOEWDIN POPULATION ANALYSIS *
                     *******************************

----------------------
LOEWDIN ATOMIC CHARGES
----------------------
   0 C :   -0.284559
   1 H :    0.153192
   2 H :    0.151947
   3 H :    0.149525
   4 C :   -0.220679
   5 N :    0.050583
   6 C :   -0.284445
   7 H :    0.154039
   8 H :    0.150174
   9 H :    0.151106
  10 C :   -0.220443
  11 N :    0.049560
  12 C :   -0.282267
  13 H :    0.152420
  14 H :    0.154973
  15 H :    0.151886
  16 C :   -0.218593
  17 N :    0.041580

-------------------------------
LOEWDIN REDUCED ORBITAL CHARGES
-------------------------------
  0 C s       :     2.816756  s :     2.816756
      pz      :     1.036112  p :     3.155420
      px      :     1.057883
      py      :     1.061426
      dz2     :     0.075092  d :     0.280655
      dxz     :     0.068181
      dyz     :     0.070567
      dx2y2   :     0.030899
      dxy     :     0.035916
      f0      :     0.007959  f :     0.031728
      f+1     :     0.006819
      f-1     :     0.006564
      f+2     :     0.003127
      f-2     :     0.002644
      f+3     :     0.001318
      f-3     :     0.003297
  1 H s       :     0.780974  s :     0.780974
      pz      :     0.013964  p :     0.065834
      px      :     0.028383
      py      :     0.023487
  2 H s       :     0.782100  s :     0.782100
      pz      :     0.015194  p :     0.065952
      px      :     0.014534
      py      :     0.036225
  3 H s       :     0.784875  s :     0.784875
      pz      :     0.014843  p :     0.065600
      px      :     0.033654
      py      :     0.017103
  4 C s       :     2.840513  s :     2.840513
      pz      :     1.169672  p :     2.862083
      px      :     0.846293
      py      :     0.846119
      dz2     :     0.164069  d :     0.451629
      dxz     :     0.138949
      dyz     :     0.138667
      dx2y2   :     0.004591
      dxy     :     0.005354
      f0      :     0.025667  f :     0.066454
      f+1     :     0.019353
      f-1     :     0.019350
      f+2     :     0.000742
      f-2     :     0.000826
      f+3     :     0.000257
      f-3     :     0.000258
  5 N s       :     3.307182  s :     3.307182
      pz      :     1.465372  p :     3.485918
      px      :     1.010592
      py      :     1.009954
      dz2     :     0.053392  d :     0.137136
      dxz     :     0.037068
      dyz     :     0.037015
      dx2y2   :     0.004833
      dxy     :     0.004828
      f0      :     0.007380  f :     0.019181
      f+1     :     0.005177
      f-1     :     0.005166
      f+2     :     0.000454
      f-2     :     0.000451
      f+3     :     0.000276
      f-3     :     0.000276
  6 C s       :     2.816810  s :     2.816810
      pz      :     1.035956  p :     3.155385
      px      :     1.059573
      py      :     1.059856
      dz2     :     0.075176  d :     0.280524
      dxz     :     0.068550
      dyz     :     0.070085
      dx2y2   :     0.033190
      dxy     :     0.033524
      f0      :     0.007976  f :     0.031727
      f+1     :     0.006741
      f-1     :     0.006657
      f+2     :     0.002752
      f-2     :     0.002986
      f+3     :     0.001980
      f-3     :     0.002635
  7 H s       :     0.780274  s :     0.780274
      pz      :     0.014572  p :     0.065687
      px      :     0.014893
      py      :     0.036222
  8 H s       :     0.784195  s :     0.784195
      pz      :     0.014401  p :     0.065631
      px      :     0.035254
      py      :     0.015976
  9 H s       :     0.782828  s :     0.782828
      pz      :     0.014940  p :     0.066066
      px      :     0.026008
      py      :     0.025118
 10 C s       :     2.840606  s :     2.840606
      pz      :     1.170284  p :     2.861522
      px      :     0.845702
      py      :     0.845537
      dz2     :     0.164113  d :     0.451860
      dxz     :     0.139165
      dyz     :     0.139048
      dx2y2   :     0.004805
      dxy     :     0.004729
      f0      :     0.025719  f :     0.066455
      f+1     :     0.019391
      f-1     :     0.019395
      f+2     :     0.000728
      f-2     :     0.000709
      f+3     :     0.000256
      f-3     :     0.000257
 11 N s       :     3.307182  s :     3.307182
      pz      :     1.466059  p :     3.487057
      px      :     1.010718
      py      :     1.010280
      dz2     :     0.053437  d :     0.137034
      dxz     :     0.037011
      dyz     :     0.037010
      dx2y2   :     0.004788
      dxy     :     0.004788
      f0      :     0.007394  f :     0.019167
      f+1     :     0.005174
      f-1     :     0.005173
      f+2     :     0.000437
      f-2     :     0.000437
      f+3     :     0.000276
      f-3     :     0.000276
 12 C s       :     2.816714  s :     2.816714
      pz      :     1.033517  p :     3.155050
      px      :     1.059252
      py      :     1.062281
      dz2     :     0.075496  d :     0.278882
      dxz     :     0.069427
      dyz     :     0.067574
      dx2y2   :     0.034469
      dxy     :     0.031916
      f0      :     0.008013  f :     0.031621
      f+1     :     0.006576
      f-1     :     0.006674
      f+2     :     0.002906
      f-2     :     0.002845
      f+3     :     0.000651
      f-3     :     0.003956
 13 H s       :     0.781497  s :     0.781497
      pz      :     0.014605  p :     0.066082
      px      :     0.032418
      py      :     0.019059
 14 H s       :     0.779095  s :     0.779095
      pz      :     0.014519  p :     0.065932
      px      :     0.013913
      py      :     0.037501
 15 H s       :     0.782106  s :     0.782106
      pz      :     0.014883  p :     0.066008
      px      :     0.031135
      py      :     0.019990
 16 C s       :     2.841539  s :     2.841539
      pz      :     1.171527  p :     2.857318
      px      :     0.842802
      py      :     0.842990
      dz2     :     0.163590  d :     0.453273
      dxz     :     0.139191
      dyz     :     0.141021
      dx2y2   :     0.004712
      dxy     :     0.004760
      f0      :     0.025666  f :     0.066463
      f+1     :     0.019411
      f-1     :     0.019435
      f+2     :     0.000726
      f-2     :     0.000715
      f+3     :     0.000254
      f-3     :     0.000256
 17 N s       :     3.306671  s :     3.306671
      pz      :     1.467165  p :     3.496215
      px      :     1.013838
      py      :     1.015212
      dz2     :     0.053302  d :     0.136411
      dxz     :     0.036739
      dyz     :     0.036751
      dx2y2   :     0.004810
      dxy     :     0.004809
      f0      :     0.007395  f :     0.019123
      f+1     :     0.005150
      f-1     :     0.005148
      f+2     :     0.000438
      f-2     :     0.000437
      f+3     :     0.000277
      f-3     :     0.000277


                      *****************************
                      * MAYER POPULATION ANALYSIS *
                      *****************************

  NA   - Mulliken gross atomic population
  ZA   - Total nuclear charge
  QA   - Mulliken gross atomic charge
  VA   - Mayer's total valence
  BVA  - Mayer's bonded valence
  FA   - Mayer's free valence

  ATOM       NA         ZA         QA         VA         BVA        FA
  0 C      6.2799     6.0000    -0.2799     3.9320     3.6500     0.2820
  1 H      0.8252     1.0000     0.1748     0.9624     0.9155     0.0469
  2 H      0.8257     1.0000     0.1743     0.9635     0.9168     0.0467
  3 H      0.8377     1.0000     0.1623     0.9645     0.9168     0.0477
  4 C      6.1446     6.0000    -0.1446     4.1392     3.7107     0.4285
  5 N      7.0869     7.0000    -0.0869     3.3419     2.8685     0.4735
  6 C      6.2803     6.0000    -0.2803     3.9314     3.6493     0.2820
  7 H      0.8237     1.0000     0.1763     0.9637     0.9170     0.0467
  8 H      0.8354     1.0000     0.1646     0.9640     0.9163     0.0476
  9 H      0.8279     1.0000     0.1721     0.9624     0.9154     0.0470
 10 C      6.1443     6.0000    -0.1443     4.1406     3.7121     0.4284
 11 N      7.0884     7.0000    -0.0884     3.3430     2.8693     0.4736
 12 C      6.2777     6.0000    -0.2777     3.9265     3.6453     0.2813
 13 H      0.8263     1.0000     0.1737     0.9637     0.9170     0.0467
 14 H      0.8240     1.0000     0.1760     0.9626     0.9157     0.0469
 15 H      0.8287     1.0000     0.1713     0.9634     0.9164     0.0469
 16 C      6.1457     6.0000    -0.1457     4.1508     3.7240     0.4268
 17 N      7.0976     7.0000    -0.0976     3.3504     2.8766     0.4737

  Mayer bond orders larger than 0.100000
B(  0-C ,  1-H ) :   0.9167 B(  0-C ,  2-H ) :   0.9168 B(  0-C ,  3-H ) :   0.9191 
B(  0-C ,  4-C ) :   0.9005 B(  4-C ,  5-N ) :   2.8318 B(  6-C ,  7-H ) :   0.9152 
B(  6-C ,  8-H ) :   0.9187 B(  6-C ,  9-H ) :   0.9179 B(  6-C , 10-C ) :   0.9007 
B( 10-C , 11-N ) :   2.8327 B( 12-C , 13-H ) :   0.9154 B( 12-C , 14-H ) :   0.9156 
B( 12-C , 15-H ) :   0.9164 B( 12-C , 16-C ) :   0.9018 B( 16-C , 17-N ) :   2.8404 



----------------------------------
MP2 DERIVATIVE INTEGRAL GENERATION
----------------------------------


Input Wavefunction Amplitudes       ... 12mecn.remya.etal.2.mol0,1,9-orca.engrad-mp2.def2tzvp.frozencore.mp2tsaa.tmp
Input Correlated Electron Density   ... 12mecn.remya.etal.2.mol0,1,9-orca.engrad-mp2.def2tzvp.frozencore.pmp2re
Input Energy Weighted Density       ... 12mecn.remya.etal.2.mol0,1,9-orca.engrad-mp2.def2tzvp.frozencore.wmp2.tmp
Input SCF Electron Density          ... 12mecn.remya.etal.2.mol0,1,9-orca.engrad-mp2.def2tzvp.frozencore.scfp

One-Electron Terms    ...
                        ... One-Electron Terms done
Prescreening matrices              ... done

Batch handling in the gradient evaluation:
Memory available                      ... 8000.0 MB
Memory per occupied orbital in Q2     ...   20.3 MB
Memory per occupied orbital in Q3     ...    0.1 MB
Total memory requirement per |i>      ...   20.4 MB
Max. Number of orbitals possible      ...    391
Number of orbitals treated per batch  ...     24
Number of batches to be done          ...      1
Batch   0: i=    9 ...    32

---------------------------------------
MP2 TOTAL ENERGY:     -397.449267255 Eh
---------------------------------------

The final MP2 gradient
  0:  -0.00012440  -0.00153965  -0.00686459
  1:   0.00250830   0.00165651  -0.00135259
  2:   0.00045910  -0.00229952   0.00013415
  3:  -0.00293374   0.00095251  -0.00138834
  4:   0.00000731   0.00106576   0.00632154
  5:  -0.00010700   0.00024761   0.00315519
  6:  -0.00172515   0.00101238  -0.00702561
  7:  -0.00143665   0.00399212  -0.00147769
  8:   0.00204704  -0.00308371  -0.00109572
  9:   0.00013235  -0.00233592   0.00003315
 10:   0.00102202   0.00015209   0.00662756
 11:  -0.00004512  -0.00006550   0.00295163
 12:  -0.00080396   0.00418689   0.00707700
 13:  -0.00267709  -0.00005139   0.00036266
 14:   0.00051850  -0.00253578   0.00125303
 15:   0.00286957  -0.00031191   0.00053487
 16:   0.00021839  -0.00111282  -0.00619867
 17:   0.00007053   0.00007034  -0.00304756

-----------------------------------
NORM OF THE MP2 GRADIENT:  0.020434
-----------------------------------

-------------------------   --------------------
FINAL SINGLE POINT ENERGY      -397.449267254846
-------------------------   --------------------


                            ***************************************
                            *     ORCA property calculations      *
                            ***************************************

                                    ---------------------
                                    Active property flags
                                    ---------------------
   (+) Dipole Moment


------------------------------------------------------------------------------
                       ORCA ELECTRIC PROPERTIES CALCULATION
------------------------------------------------------------------------------

Dipole Moment Calculation                       ... on
Quadrupole Moment Calculation                   ... off
Polarizability Calculation                      ... off
GBWName                                         ... 12mecn.remya.etal.2.mol0,1,9-orca.engrad-mp2.def2tzvp.frozencore.gbw
Electron density file                           ... 12mecn.remya.etal.2.mol0,1,9-orca.engrad-mp2.def2tzvp.frozencore.scfp
The origin for moment calculation is the CENTER OF MASS  = (-2.949857, -0.135707  0.368293)

-------------
DIPOLE MOMENT
-------------
                                X             Y             Z
Electronic contribution:     -0.10601      -0.05720      -3.06221
Nuclear contribution   :      0.15861       0.09100       4.63394
                        -----------------------------------------
Total Dipole Moment    :      0.05260       0.03379       1.57173
                        -----------------------------------------
Magnitude (a.u.)       :      1.57298
Magnitude (Debye)      :      3.99819



--------------------
Rotational spectrum 
--------------------
 
Rotational constants in cm-1:     0.024133     0.010372     0.008393 
Rotational constants in MHz :   723.479261   310.943317   251.617599 

 Dipole components along the rotational axes: 
x,y,z [a.u.] :     0.114008    -0.053837    -1.567916 
x,y,z [Debye]:     0.289784    -0.136843    -3.985326 

 

                         *** MP2 UNRELAXED DENSITY ***

------------------------------------------------------------------------------
                       ORCA ELECTRIC PROPERTIES CALCULATION
------------------------------------------------------------------------------

Dipole Moment Calculation                       ... on
Quadrupole Moment Calculation                   ... off
Polarizability Calculation                      ... off
GBWName                                         ... 12mecn.remya.etal.2.mol0,1,9-orca.engrad-mp2.def2tzvp.frozencore.gbw
Electron density file                           ... 12mecn.remya.etal.2.mol0,1,9-orca.engrad-mp2.def2tzvp.frozencore.pmp2ur
The origin for moment calculation is the CENTER OF MASS  = (-2.949857, -0.135707  0.368293)

-------------
DIPOLE MOMENT
-------------
                                X             Y             Z
Electronic contribution:     -0.10715      -0.05798      -3.09749
Nuclear contribution   :      0.15861       0.09100       4.63394
                        -----------------------------------------
Total Dipole Moment    :      0.05146       0.03302       1.53645
                        -----------------------------------------
Magnitude (a.u.)       :      1.53767
Magnitude (Debye)      :      3.90845



--------------------
Rotational spectrum 
--------------------
 
Rotational constants in cm-1:     0.024133     0.010372     0.008393 
Rotational constants in MHz :   723.479261   310.943317   251.617599 

 Dipole components along the rotational axes: 
x,y,z [a.u.] :     0.111449    -0.052585    -1.532724 
x,y,z [Debye]:     0.283281    -0.133660    -3.895876 

 

                           *** MP2 RELAXED DENSITY ***

------------------------------------------------------------------------------
                       ORCA ELECTRIC PROPERTIES CALCULATION
------------------------------------------------------------------------------

Dipole Moment Calculation                       ... on
Quadrupole Moment Calculation                   ... off
Polarizability Calculation                      ... off
GBWName                                         ... 12mecn.remya.etal.2.mol0,1,9-orca.engrad-mp2.def2tzvp.frozencore.gbw
Electron density file                           ... 12mecn.remya.etal.2.mol0,1,9-orca.engrad-mp2.def2tzvp.frozencore.pmp2re
The origin for moment calculation is the CENTER OF MASS  = (-2.949857, -0.135707  0.368293)

-------------
DIPOLE MOMENT
-------------
                                X             Y             Z
Electronic contribution:     -0.10997      -0.06077      -3.19060
Nuclear contribution   :      0.15861       0.09100       4.63394
                        -----------------------------------------
Total Dipole Moment    :      0.04863       0.03022       1.44334
                        -----------------------------------------
Magnitude (a.u.)       :      1.44448
Magnitude (Debye)      :      3.67156



--------------------
Rotational spectrum 
--------------------
 
Rotational constants in cm-1:     0.024133     0.010372     0.008393 
Rotational constants in MHz :   723.479261   310.943317   251.617599 

 Dipole components along the rotational axes: 
x,y,z [a.u.] :     0.105296    -0.048803    -1.439806 
x,y,z [Debye]:     0.267642    -0.124047    -3.659695 

 

Timings for individual modules:

Sum of individual times         ...      120.961 sec (=   2.016 min)
GTO integral calculation        ...        0.999 sec (=   0.017 min)   0.8 %
SCF iterations                  ...       25.126 sec (=   0.419 min)  20.8 %
MP2 module                      ...       94.836 sec (=   1.581 min)  78.4 %
                             ****ORCA TERMINATED NORMALLY****
TOTAL RUN TIME: 0 days 0 hours 2 minutes 1 seconds 996 msec
