90
Energy:   -416.95374379
C   -0.65132097  -3.44439261  -4.45605104
H   -0.01067419  -2.85735897  -3.83166064
H   -1.20735939  -2.79901394  -5.10351281
H   -0.05984901  -4.11532095  -5.04334584
C   -1.62437297  -4.25251127  -3.57757848
N   -2.34885442  -4.85419233  -2.92351573
C    3.67758488   2.56175458   0.99244019
H    4.54105388   3.18339433   1.10595446
H    3.95890682   1.53592146   1.10829984
H    2.95264653   2.81897525   1.73621504
C    3.07330990   2.77328580  -0.40816907
N    2.62339972   2.93078040  -1.45098633
C   -0.94080231   0.63668019   0.40991476
H   -1.60674996   0.30138684   1.17737308
H   -1.19712730   0.16518404  -0.51576767
H   -1.02374603   1.69823425   0.30445197
C    0.50596040   0.27000900   0.78942747
N    1.58314101  -0.00299436   1.07199194
C    0.63539426   0.39848240  -3.00163321
H    0.93238450  -0.18274557  -2.15377059
H    0.66074988   1.43772711  -2.74820350
H    1.30660607   0.21299201  -3.81401681
C   -0.79458861   0.00624746  -3.41744657
N   -1.85927586  -0.28578928  -3.72703851
C    3.09464239  -2.85401355  -0.94111558
H    2.53661122  -2.16950693  -0.33700294
H    4.13780357  -2.75034571  -0.72671683
H    2.78398467  -3.85498930  -0.72561985
C    2.84353227  -2.54773821  -2.42931555
N    2.65656937  -2.31970230  -3.53734806
C    1.09088501   1.98461655   4.20400837
H    1.03295094   3.05286856   4.18447740
H    1.71028617   1.64625379   3.39979948
H    1.51082679   1.66717159   5.13555369
C   -0.32161267   1.39100401   4.04884882
N   -1.37328139   0.94903250   3.93332548
C   -4.16259144   2.54087217  -2.68615889
H   -4.46163464   3.27834263  -3.40142853
H   -4.76126780   2.63581817  -1.80441575
H   -4.29499646   1.56466511  -3.10375652
C   -2.67997946   2.74782350  -2.32472721
N   -1.57610745   2.90190818  -2.05562490
C    0.04762533   5.35332504  -0.66993764
H    0.55420952   6.28288450  -0.51440032
H   -0.98552929   5.54031667  -0.87615295
H    0.48959814   4.84055789  -1.49856843
C    0.16938290   4.48432598   0.59561193
N    0.26003694   3.83731668   1.53787112
C    4.63294750  -1.36709844   2.11590396
H    4.56157043  -2.43443753   2.14025077
H    5.66293693  -1.07918733   2.08231731
H    4.13029937  -0.99573955   1.24737847
C    3.97669869  -0.77978296   3.37923211
N    3.48809163  -0.34249989   4.31983735
C   -3.26754047   3.07422127   1.96613849
H   -2.28472814   3.14954498   2.38243941
H   -3.39766769   2.10495082   1.53199473
H   -3.99400372   3.21969759   2.73814035
C   -3.44920590   4.15146105   0.88071134
N   -3.58446407   4.95351504   0.07256148
C   -4.35609449  -0.59999034   3.28879690
H   -3.86998709  -0.14086380   4.12414270
H   -5.21748194  -1.13646907   3.62806275
H   -4.65724127   0.15455312   2.59246805
C   -3.38254374  -1.57464127   2.60042599
N   -2.65769096  -2.30031319   2.08790256
C    4.45923804   0.77618199  -3.57793054
H    5.29880478   1.25027575  -4.04189496
H    3.64392590   1.46707770  -3.52474858
H    4.16725955  -0.07634055  -4.15486466
C    4.84456100   0.32646237  -2.15635448
N    5.13145145  -0.00837433  -1.09792649
C   -3.77034965  -2.08398994  -1.38983630
H   -4.55536431  -2.33699265  -2.07148268
H   -3.67980128  -2.85118419  -0.64948972
H   -2.84824922  -1.99432600  -1.92517757
C   -4.09797321  -0.74471560  -0.70382824
N   -4.34190384   0.25243502  -0.19306407
C    0.40137826  -2.16041590   3.62148223
H   -0.28340334  -2.76935645   4.17390032
H   -0.14531003  -1.49500072   2.98645968
H    1.00165275  -1.59226769   4.30102417
C    1.30982944  -3.05940746   2.76233694
N    1.98621264  -3.72874754   2.12266422
C   -0.82241233  -4.70881815   0.32272170
H   -1.46553596  -5.31523112  -0.28023393
H   -1.30927223  -4.48372734   1.24857301
H    0.08715212  -5.23767887   0.51739563
C   -0.50517305  -3.39883289  -0.42219295
N   -0.26897399  -2.42348931  -0.97681577
