90
Energy:   -416.55898065
C   -0.94788480  -2.95826881  -3.54678371
H   -1.22719664  -2.03999955  -3.07384963
H   -1.44541728  -3.03910426  -4.49061958
H    0.11107256  -2.97317273  -3.69938213
C   -1.35391740  -4.14209909  -2.64940787
N   -1.65622712  -5.02351455  -1.98127077
C    3.95708153   3.07750262   0.19830953
H    4.66343130   3.86880298   0.33907149
H    4.38626380   2.15379387   0.52612627
H    3.07412605   3.28222266   0.76697324
C    3.59355944   2.97342772  -1.29454683
N    3.32290072   2.89593923  -2.40604624
C   -1.62947262   0.60436655   0.50723427
H   -0.81039568   1.24760288   0.75271372
H   -1.44148969  -0.37566717   0.89336304
H   -2.52874489   0.99139468   0.93899542
C   -1.78460646   0.53207169  -1.02322545
N   -1.90011065   0.47824488  -2.16272227
C    1.43914591   0.07611727  -2.07352192
H    0.82413186  -0.78618777  -2.22546901
H    2.36247200  -0.04707070  -2.60001288
H    0.93268950   0.94448994  -2.44003237
C    1.72432616   0.24468332  -0.56957454
N    1.93665582   0.37018841   0.55018264
C    3.30601032  -3.23598208  -0.35201308
H    2.75785298  -2.50963976   0.21088173
H    4.34959641  -3.14173755  -0.13534480
H    2.97385779  -4.21785085  -0.08648060
C    3.07101420  -3.00385624  -1.85617212
N    2.89604890  -2.83102800  -2.97608689
C    0.96582398   3.03219505   3.05880437
H    1.52742928   3.07480310   3.96857589
H    0.88892955   4.01416132   2.64079888
H    1.46094494   2.38652475   2.36392007
C   -0.44440393   2.48685554   3.35114335
N   -1.49438270   2.08082549   3.56880302
C   -5.36895163   1.15984154  -2.49230124
H   -4.53040139   0.74352806  -3.01039077
H   -5.41702735   2.21229432  -2.67919954
H   -6.26848591   0.69476484  -2.83790338
C   -5.21198682   0.91363884  -0.98023435
N   -5.09511938   0.73032973   0.14556818
C   -0.23920531   3.68340586  -2.80770643
H    0.67037577   3.46675847  -3.32792405
H   -0.58293495   4.65902827  -3.08140322
H   -0.98090782   2.95769911  -3.06871636
C    0.01388926   3.63552433  -1.28940129
N    0.20232968   3.59987435  -0.15895410
C    4.84949118  -0.70562815   2.24589090
H    4.21452368  -0.94435793   1.41841005
H    4.95301885  -1.56459344   2.87546199
H    5.81213894  -0.41099422   1.88340059
C    4.22887297   0.45018162   3.05244952
N    3.76679451   1.31073453   3.65296908
C   -3.28846274   3.92261276   1.20534450
H   -2.26408755   3.98368941   1.50837139
H   -3.72417764   3.02819671   1.59913575
H   -3.82162527   4.77263823   1.57695384
C   -3.36833815   3.89859723  -0.33239513
N   -3.42780903   3.88071659  -1.47731218
C   -4.20126110   0.03076670   3.57376272
H   -3.79708740   0.53800457   4.42479359
H   -5.16195686  -0.37045115   3.82071817
H   -4.30074348   0.72026718   2.76161037
C   -3.25710343  -1.11419016   3.16237475
N   -2.55413512  -1.96666259   2.85607770
C    5.10621375   0.00077538  -3.75120875
H    6.09586786  -0.01149414  -4.15782204
H    4.62423503   0.91937627  -4.01344533
H    4.54745935  -0.82106069  -4.14779176
C    5.17972946  -0.12083489  -2.21777914
N    5.23446525  -0.21137926  -1.07607109
C   -3.81558337  -2.66552361  -0.30313036
H   -4.60074443  -2.33758001   0.34561865
H   -2.91101048  -2.14948016  -0.05747585
H   -3.66952983  -3.71859851  -0.18229690
C   -4.19765573  -2.36459289  -1.76431530
N   -4.48212596  -2.14053629  -2.85223390
C    0.68674190  -0.89340163   3.48971938
H   -0.08379346  -1.21224212   4.16017905
H    0.24464517  -0.52449644   2.58785546
H    1.26051083  -0.11608535   3.94957556
C    1.60622893  -2.08421387   3.16091880
N    2.29082881  -2.97082771   2.91611182
C   -0.56795143  -4.58757554   1.41370869
H    0.32916152  -4.88326545   1.91635769
H   -0.90907895  -5.38880293   0.79196455
H   -1.32070431  -4.35178093   2.13666311
C   -0.28475288  -3.34820040   0.54460120
N   -0.07389869  -2.42542926  -0.10248883
