
                                 *****************
                                 * O   R   C   A *
                                 *****************

           --- An Ab Initio, DFT and Semiempirical electronic structure package ---

                  #######################################################
                  #                        -***-                        #
                  #          Department of theory and spectroscopy      #
                  #               Directorship: Frank Neese             #
                  #        Max Planck Institute fuer Kohlenforschung    #
                  #                Kaiser Wilhelm Platz 1               #
                  #                 D-45470 Muelheim/Ruhr               #
                  #                      Germany                        #
                  #                                                     #
                  #                  All rights reserved                #
                  #                        -***-                        #
                  #######################################################


                         Program Version 4.2.0 -  RELEASE  -


 With contributions from (in alphabetic order):
   Daniel Aravena         : Magnetic Suceptibility
   Michael Atanasov       : Ab Initio Ligand Field Theory (pilot matlab implementation)
   Alexander A. Auer      : GIAO ZORA, VPT2
   Ute Becker             : Parallelization
   Giovanni Bistoni       : ED, misc. LED, open-shell LED, HFLED
   Martin Brehm           : Molecular dynamics
   Dmytro Bykov           : SCF Hessian
   Vijay G. Chilkuri      : MRCI spin determinant printing, contributions to CSF-ICE
   Dipayan Datta          : RHF DLPNO-CCSD density
   Achintya Kumar Dutta   : EOM-CC, STEOM-CC
   Dmitry Ganyushin       : Spin-Orbit,Spin-Spin,Magnetic field MRCI
   Miquel Garcia          : C-PCM Hessian, Gaussian charge scheme
   Yang Guo               : DLPNO-NEVPT2, CIM, IAO-localization
   Andreas Hansen         : Spin unrestricted coupled pair/coupled cluster methods
   Benjamin Helmich-Paris : CASSCF linear response (MC-RPA)
   Lee Huntington         : MR-EOM, pCC
   Robert Izsak           : Overlap fitted RIJCOSX, COSX-SCS-MP3, EOM
   Christian Kollmar      : KDIIS, OOCD, Brueckner-CCSD(T), CCSD density
   Simone Kossmann        : Meta GGA functionals, TD-DFT gradient, OOMP2, MP2 Hessian
   Martin Krupicka        : AUTO-CI
   Lucas Lang             : DCDCAS
   Dagmar Lenk            : GEPOL surface, SMD
   Dimitrios Liakos       : Extrapolation schemes; Compound Job, initial MDCI parallelization
   Dimitrios Manganas     : Further ROCIS development; embedding schemes
   Dimitrios Pantazis     : SARC Basis sets
   Taras Petrenko         : DFT Hessian,TD-DFT gradient, ASA, ECA, R-Raman, ABS, FL, XAS/XES, NRVS
   Peter Pinski           : DLPNO-MP2, DLPNO-MP2 Gradient
   Christoph Reimann      : Effective Core Potentials
   Marius Retegan         : Local ZFS, SOC
   Christoph Riplinger    : Optimizer, TS searches, QM/MM, DLPNO-CCSD(T), (RO)-DLPNO pert. Triples
   Tobias Risthaus        : Range-separated hybrids, TD-DFT gradient, RPA, STAB
   Michael Roemelt        : Original ROCIS implementation
   Masaaki Saitow         : Open-shell DLPNO-CCSD energy and density
   Barbara Sandhoefer     : DKH picture change effects
   Avijit Sen             : IP-ROCIS
   Kantharuban Sivalingam : CASSCF convergence, NEVPT2, FIC-MRCI
   Bernardo de Souza      : ESD, SOC TD-DFT
   Georgi Stoychev        : AutoAux, RI-MP2 NMR
   Willem Van den Heuvel  : Paramagnetic NMR
   Boris Wezisla          : Elementary symmetry handling
   Frank Wennmohs         : Technical directorship


 We gratefully acknowledge several colleagues who have allowed us to
 interface, adapt or use parts of their codes:
   Stefan Grimme, W. Hujo, H. Kruse,             : VdW corrections, initial TS optimization,
                  C. Bannwarth                     DFT functionals, gCP, sTDA/sTD-DF
   Ed Valeev, F. Pavosevic, A. Kumar             : LibInt (2-el integral package), F12 methods
   Garnet Chan, S. Sharma, J. Yang, R. Olivares  : DMRG
   Ulf Ekstrom                                   : XCFun DFT Library
   Mihaly Kallay                                 : mrcc  (arbitrary order and MRCC methods)
   Andreas Klamt, Michael Diedenhofen            : otool_cosmo (COSMO solvation model)
   Jiri Pittner, Ondrej Demel                    : Mk-CCSD
   Frank Weinhold                                : gennbo (NPA and NBO analysis)
   Christopher J. Cramer and Donald G. Truhlar   : smd solvation model
   Lars Goerigk                                  : TD-DFT with DH, B97 family of functionals
   V. Asgeirsson, H. Jonsson                     : NEB implementation
   FAccTs GmbH                                   : IRC, NEB, NEB-TS, Multilevel, MM, QM/MM, CI optimization
   S Lehtola, MJT Oliveira, MAL Marques          : LibXC Library


 Your calculation uses the libint2 library for the computation of 2-el integrals
 For citations please refer to: http://libint.valeyev.net

 Your ORCA version has been built with support for libXC version: 4.2.3
 For citations please refer to: https://tddft.org/programs/libxc/

 This ORCA versions uses:
   CBLAS   interface :  Fast vector & matrix operations
   LAPACKE interface :  Fast linear algebra routines
   SCALAPACK package :  Parallel linear algebra routines


----- Orbital basis set information -----
Your calculation utilizes the basis: def2-TZVP
   F. Weigend and R. Ahlrichs, Phys. Chem. Chem. Phys. 7, 3297 (2005).

================================================================================
                                        WARNINGS
                       Please study these warnings very carefully!
================================================================================


WARNING: The frozen-core approximation for MP2-gradient calculations is turned on by default.

INFO   : the flag for use of LIBINT has been found!

================================================================================
                                       INPUT FILE
================================================================================
NAME = 12h2o.su.etal.mol0,2,3,5,6,8,9,10-orca.engrad-mp2.def2tzvp.frozencore.inp
|  1> # 12h2o.su.etal.mol0,2,3,5,6,8,9,10
|  2> ! MP2 def2-TZVP EnGrad TightSCF
|  3> 
|  4> %pal
|  5>     nprocs 6
|  6> end
|  7> 
|  8> %maxcore 8000
|  9> 
| 10> %scf
| 11>     ConvForced true
| 12> end
| 13> 
| 14> *xyz 0 1
| 15> O   1.794470000   0.923410000   2.768350000
| 16> H   2.338250000   1.359750000   3.430940000
| 17> H   0.879480000   1.303000000   2.865760000
| 18> O   0.923410000  -1.794470000  -2.768350000
| 19> H   1.359750000  -2.338250000  -3.430940000
| 20> H   1.303000000  -0.879480000  -2.865760000
| 21> O  -1.752130000  -0.741530000  -2.896280000
| 22> H  -2.036450000  -0.920500000  -1.984040000
| 23> H  -0.921210000  -1.242140000  -2.984230000
| 24> O   0.885520000  -1.737840000   0.052730000
| 25> H   1.284090000  -0.839590000   0.017130000
| 26> H   1.032320000  -2.090180000  -0.841890000
| 27> O   1.737840000   0.885520000  -0.052730000
| 28> H   2.090180000   1.032320000   0.841890000
| 29> H   0.839590000   1.284090000  -0.017130000
| 30> O   1.752130000   0.741530000  -2.896280000
| 31> H   2.036450000   0.920500000  -1.984040000
| 32> H   0.921210000   1.242140000  -2.984230000
| 33> O   0.741530000  -1.752130000   2.896280000
| 34> H   0.920500000  -2.036450000   1.984040000
| 35> H   1.242140000  -0.921210000   2.984230000
| 36> O  -0.923410000   1.794470000  -2.768350000
| 37> H  -1.359750000   2.338250000  -3.430940000
| 38> H  -1.303000000   0.879480000  -2.865760000
| 39> *
| 40> 
| 41>                          ****END OF INPUT****
================================================================================

                     *******************************
                     * Energy+Gradient Calculation *
                     *******************************

---------------------------------
CARTESIAN COORDINATES (ANGSTROEM)
---------------------------------
  O      1.794470    0.923410    2.768350
  H      2.338250    1.359750    3.430940
  H      0.879480    1.303000    2.865760
  O      0.923410   -1.794470   -2.768350
  H      1.359750   -2.338250   -3.430940
  H      1.303000   -0.879480   -2.865760
  O     -1.752130   -0.741530   -2.896280
  H     -2.036450   -0.920500   -1.984040
  H     -0.921210   -1.242140   -2.984230
  O      0.885520   -1.737840    0.052730
  H      1.284090   -0.839590    0.017130
  H      1.032320   -2.090180   -0.841890
  O      1.737840    0.885520   -0.052730
  H      2.090180    1.032320    0.841890
  H      0.839590    1.284090   -0.017130
  O      1.752130    0.741530   -2.896280
  H      2.036450    0.920500   -1.984040
  H      0.921210    1.242140   -2.984230
  O      0.741530   -1.752130    2.896280
  H      0.920500   -2.036450    1.984040
  H      1.242140   -0.921210    2.984230
  O     -0.923410    1.794470   -2.768350
  H     -1.359750    2.338250   -3.430940
  H     -1.303000    0.879480   -2.865760

----------------------------
CARTESIAN COORDINATES (A.U.)
----------------------------
  NO LB      ZA    FRAG     MASS         X           Y           Z
   0 O     8.0000    0    15.999    3.391057    1.744992    5.231423
   1 H     1.0000    0     1.008    4.418652    2.569555    6.483537
   2 H     1.0000    0     1.008    1.661976    2.462313    5.415502
   3 O     8.0000    0    15.999    1.744992   -3.391057   -5.231423
   4 H     1.0000    0     1.008    2.569555   -4.418652   -6.483537
   5 H     1.0000    0     1.008    2.462313   -1.661976   -5.415502
   6 O     8.0000    0    15.999   -3.311046   -1.401289   -5.473176
   7 H     1.0000    0     1.008   -3.848333   -1.739493   -3.749292
   8 H     1.0000    0     1.008   -1.740835   -2.347304   -5.639377
   9 O     8.0000    0    15.999    1.673390   -3.284042    0.099645
  10 H     1.0000    0     1.008    2.426578   -1.586595    0.032371
  11 H     1.0000    0     1.008    1.950802   -3.949868   -1.590942
  12 O     8.0000    0    15.999    3.284042    1.673390   -0.099645
  13 H     1.0000    0     1.008    3.949868    1.950802    1.590942
  14 H     1.0000    0     1.008    1.586595    2.426578   -0.032371
  15 O     8.0000    0    15.999    3.311046    1.401289   -5.473176
  16 H     1.0000    0     1.008    3.848333    1.739493   -3.749292
  17 H     1.0000    0     1.008    1.740835    2.347304   -5.639377
  18 O     8.0000    0    15.999    1.401289   -3.311046    5.473176
  19 H     1.0000    0     1.008    1.739493   -3.848333    3.749292
  20 H     1.0000    0     1.008    2.347304   -1.740835    5.639377
  21 O     8.0000    0    15.999   -1.744992    3.391057   -5.231423
  22 H     1.0000    0     1.008   -2.569555    4.418652   -6.483537
  23 H     1.0000    0     1.008   -2.462313    1.661976   -5.415502

--------------------------------
INTERNAL COORDINATES (ANGSTROEM)
--------------------------------
 O      0   0   0     0.000000000000     0.00000000     0.00000000
 H      1   0   0     0.961828878803     0.00000000     0.00000000
 H      1   2   0     0.995381322057   106.21731035     0.00000000
 O      1   2   3     6.229017908788   152.78811022   148.20682389
 H      4   1   2     0.961828878803   142.70840549    32.77530239
 H      4   1   2     0.995381322057    68.44287781   304.10042923
 O      4   1   2     2.878117964938    90.56600904   213.46992033
 H      7   4   1     0.972136791249    99.37069922   316.39996436
 H      7   4   1     0.974050112161    12.30570018   203.88443535
 O      4   1   2     2.821902722526    26.43043848   121.43990250
 H     10   4   1     0.983350632989    88.66470709   356.04997417
 H     10   4   1     0.972645187106    21.75017499   221.89319655
 O     11  10   4     1.785153773264   170.81379649    89.95043540
 H     13  11  10     0.972645187106   101.65007623   109.44492584
 H     13  11  10     0.983350632989    99.09581498     3.33484705
 O      6   4   1     1.682356278379   171.61043709   305.15113011
 H     16   6   4     0.972136791249   103.79460456    70.64587838
 H     16   6   4     0.974050112161   105.61118924   321.69395179
 O     10   4   1     2.847229166523   177.43098014   143.94628814
 H     19  10  12     0.972136791249    19.08819947     8.79504813
 H     19  10  12     0.974050112161    93.43428486   132.89132802
 O     18  16   6     1.937600461318   161.54375213    39.05245435
 H     22  18  16     0.961828878803   121.08403650   202.75419110
 H     22  18  16     0.995381322057    95.17003195   315.21089530

---------------------------
INTERNAL COORDINATES (A.U.)
---------------------------
 O      0   0   0     0.000000000000     0.00000000     0.00000000
 H      1   0   0     1.817593168635     0.00000000     0.00000000
 H      1   2   0     1.880998097508   106.21731035     0.00000000
 O      1   2   3    11.771137930900   152.78811022   148.20682389
 H      4   1   2     1.817593168635   142.70840549    32.77530239
 H      4   1   2     1.880998097508    68.44287781   304.10042923
 O      4   1   2     5.438854734852    90.56600904   213.46992033
 H      7   4   1     1.837072300170    99.37069922   316.39996436
 H      7   4   1     1.840687952699    12.30570018   203.88443535
 O      4   1   2     5.332623322141    26.43043848   121.43990250
 H     10   4   1     1.858263389967    88.66470709   356.04997417
 H     10   4   1     1.838033029106    21.75017499   221.89319655
 O     11  10   4     3.373451738406   170.81379649    89.95043540
 H     13  11  10     1.838033029106   101.65007623   109.44492584
 H     13  11  10     1.858263389967    99.09581498     3.33484705
 O      6   4   1     3.179192625819   171.61043709   305.15113011
 H     16   6   4     1.837072300170   103.79460456    70.64587838
 H     16   6   4     1.840687952699   105.61118924   321.69395179
 O     10   4   1     5.380483365242   177.43098014   143.94628814
 H     19  10  12     1.837072300170    19.08819947     8.79504813
 H     19  10  12     1.840687952699    93.43428486   132.89132802
 O     18  16   6     3.661534228851   161.54375213    39.05245435
 H     22  18  16     1.817593168635   121.08403650   202.75419110
 H     22  18  16     1.880998097508    95.17003195   315.21089530

---------------------
BASIS SET INFORMATION
---------------------
There are 2 groups of distinct atoms

 Group   1 Type O   : 11s6p2d1f contracted to 5s3p2d1f pattern {62111/411/11/1}
 Group   2 Type H   : 5s1p contracted to 3s1p pattern {311/1}

Atom   0O    basis set group =>   1
Atom   1H    basis set group =>   2
Atom   2H    basis set group =>   2
Atom   3O    basis set group =>   1
Atom   4H    basis set group =>   2
Atom   5H    basis set group =>   2
Atom   6O    basis set group =>   1
Atom   7H    basis set group =>   2
Atom   8H    basis set group =>   2
Atom   9O    basis set group =>   1
Atom  10H    basis set group =>   2
Atom  11H    basis set group =>   2
Atom  12O    basis set group =>   1
Atom  13H    basis set group =>   2
Atom  14H    basis set group =>   2
Atom  15O    basis set group =>   1
Atom  16H    basis set group =>   2
Atom  17H    basis set group =>   2
Atom  18O    basis set group =>   1
Atom  19H    basis set group =>   2
Atom  20H    basis set group =>   2
Atom  21O    basis set group =>   1
Atom  22H    basis set group =>   2
Atom  23H    basis set group =>   2


           ************************************************************
           *        Program running with 6 parallel MPI-processes     *
           *              working on a common directory               *
           ************************************************************
------------------------------------------------------------------------------
                           ORCA GTO INTEGRAL CALCULATION
------------------------------------------------------------------------------

                         BASIS SET STATISTICS AND STARTUP INFO

 # of primitive gaussian shells          ...  256
 # of primitive gaussian functions       ...  496
 # of contracted shells                  ...  152
 # of contracted basis functions         ...  344
 Highest angular momentum                ...    3
 Maximum contraction depth               ...    6
 Integral package used                   ... LIBINT
 Integral threshhold            Thresh   ...  2.500e-11
 Primitive cut-off              TCut     ...  2.500e-12


------------------------------ INTEGRAL EVALUATION ----------------------------


 * One electron integrals 
 Pre-screening matrix                    ... done
 Shell pair data                         ... done (   0.002 sec)



           ************************************************************
           *        Program running with 6 parallel MPI-processes     *
           *              working on a common directory               *
           ************************************************************
-------------------------------------------------------------------------------
                                 ORCA SCF
-------------------------------------------------------------------------------

------------
SCF SETTINGS
------------
Hamiltonian:
 Ab initio Hamiltonian  Method          .... Hartree-Fock(GTOs)


General Settings:
 Integral files         IntName         .... 12h2o.su.etal.mol0,2,3,5,6,8,9,10-orca.engrad-mp2.def2tzvp.frozencore
 Hartree-Fock type      HFTyp           .... RHF
 Total Charge           Charge          ....    0
 Multiplicity           Mult            ....    1
 Number of Electrons    NEL             ....   80
 Basis Dimension        Dim             ....  344
 Nuclear Repulsion      ENuc            ....    459.9364621610 Eh

Convergence Acceleration:
 DIIS                   CNVDIIS         .... on
   Start iteration      DIISMaxIt       ....    12
   Startup error        DIISStart       ....  0.200000
   # of expansion vecs  DIISMaxEq       ....     5
   Bias factor          DIISBfac        ....   1.050
   Max. coefficient     DIISMaxC        ....  10.000
 Newton-Raphson         CNVNR           .... off
 SOSCF                  CNVSOSCF        .... on
   Start iteration      SOSCFMaxIt      ....   150
   Startup grad/error   SOSCFStart      ....  0.003300
 Level Shifting         CNVShift        .... on
   Level shift para.    LevelShift      ....    0.2500
   Turn off err/grad.   ShiftErr        ....    0.0010
 Zerner damping         CNVZerner       .... off
 Static damping         CNVDamp         .... on
   Fraction old density DampFac         ....    0.7000
   Max. Damping (<1)    DampMax         ....    0.9800
   Min. Damping (>=0)   DampMin         ....    0.0000
   Turn off err/grad.   DampErr         ....    0.1000
 Fernandez-Rico         CNVRico         .... off

SCF Procedure:
 Maximum # iterations   MaxIter         ....   125
 SCF integral mode      SCFMode         .... Direct
   Integral package                     .... LIBINT
 Reset frequency        DirectResetFreq ....    20
 Integral Threshold     Thresh          ....  2.500e-11 Eh
 Primitive CutOff       TCut            ....  2.500e-12 Eh

Convergence Tolerance:
 Convergence Check Mode ConvCheckMode   .... Total+1el-Energy
 Convergence forced     ConvForced      .... 1
 Energy Change          TolE            ....  1.000e-08 Eh
 1-El. energy change                    ....  1.000e-05 Eh
 Orbital Gradient       TolG            ....  1.000e-05
 Orbital Rotation angle TolX            ....  1.000e-05
 DIIS Error             TolErr          ....  5.000e-07


Diagonalization of the overlap matrix:
Smallest eigenvalue                        ... 3.635e-03
Time for diagonalization                   ...    0.017 sec
Threshold for overlap eigenvalues          ... 1.000e-08
Number of eigenvalues below threshold      ... 0
Time for construction of square roots      ...    0.009 sec
Total time needed                          ...    0.026 sec

-------------------
DFT GRID GENERATION
-------------------

General Integration Accuracy     IntAcc      ...  4.340
Radial Grid Type                 RadialGrid  ... Gauss-Chebyshev
Angular Grid (max. acc.)         AngularGrid ... Lebedev-110
Angular grid pruning method      GridPruning ... 3 (G Style)
Weight generation scheme         WeightScheme... Becke
Basis function cutoff            BFCut       ...    1.0000e-11
Integration weight cutoff        WCut        ...    1.0000e-14
Grids for H and He will be reduced by one unit

# of grid points (after initial pruning)     ...  26432 (   0.0 sec)
# of grid points (after weights+screening)   ...  24632 (   0.0 sec)
nearest neighbour list constructed           ...    0.0 sec
Grid point re-assignment to atoms done       ...    0.0 sec
Grid point division into batches done        ...    0.0 sec
Reduced shell lists constructed in    0.1 sec

Total number of grid points                  ...    24632
Total number of batches                      ...      399
Average number of points per batch           ...       61
Average number of grid points per atom       ...     1026
Average number of shells per batch           ...    64.87 (42.68%)
Average number of basis functions per batch  ...   129.07 (37.52%)
Average number of large shells per batch     ...    42.16 (65.00%)
Average number of large basis fcns per batch ...    82.16 (63.66%)
Maximum spatial batch extension              ...  15.72, 15.72, 15.00 au
Average spatial batch extension              ...   0.61,  0.60,  0.55 au

Time for grid setup =    0.097 sec

------------------------------
INITIAL GUESS: MODEL POTENTIAL
------------------------------
Loading Hartree-Fock densities                     ... done
Calculating cut-offs                               ... done
Setting up the integral package                    ... done
Initializing the effective Hamiltonian             ... done
Starting the Coulomb interaction                   ... done (   0.1 sec)
Reading the grid                                   ... done
Mapping shells                                     ... done
Starting the XC term evaluation                    ... done (   0.0 sec)
Transforming the Hamiltonian                       ... done (   0.0 sec)
Diagonalizing the Hamiltonian                      ... done (   0.0 sec)
Back transforming the eigenvectors                 ... done (   0.0 sec)
Now organizing SCF variables                       ... done
                      ------------------
                      INITIAL GUESS DONE (   0.3 sec)
                      ------------------
--------------
SCF ITERATIONS
--------------
ITER       Energy         Delta-E        Max-DP      RMS-DP      [F,P]     Damp
               ***  Starting incremental Fock matrix formation  ***
  0   -607.8428861107   0.000000000000 0.04390083  0.00082353  0.3394405 0.7000
  1   -608.1057192879  -0.262833177219 0.02910322  0.00057174  0.2167604 0.7000
                               ***Turning on DIIS***
  2   -608.2459687853  -0.140249497384 0.01629012  0.00032256  0.1634167 0.7000
  3   -609.5552904913  -1.309321705992 0.00762212  0.00015118  0.1217654 0.7000
  4   -609.2924844992   0.262805992167 0.01738615  0.00035185  0.0861454 0.0000
  5   -608.5666537504   0.725830748769 0.00224723  0.00005559  0.0053923 0.0000
                      *** Initiating the SOSCF procedure ***
                           *** Shutting down DIIS ***
                      *** Re-Reading the Fockian *** 
                      *** Removing any level shift *** 
ITER      Energy       Delta-E        Grad      Rot      Max-DP    RMS-DP
  6   -608.52927033   0.0373834166  0.000720  0.000720  0.001374  0.000034
               *** Restarting incremental Fock matrix formation ***
  7   -608.51807261   0.0111977257  0.000266  0.000382  0.000624  0.000015
  8   -608.51808394  -0.0000113309  0.000101  0.000305  0.000491  0.000012
  9   -608.51808666  -0.0000027259  0.000051  0.000038  0.000085  0.000002
 10   -608.51808686  -0.0000001988  0.000011  0.000009  0.000019  0.000000
                  ***Gradient check signals convergence***
              ***Rediagonalizing the Fockian in SOSCF/NRSCF***

               *****************************************************
               *                     SUCCESS                       *
               *           SCF CONVERGED AFTER  11 CYCLES          *
               *****************************************************


----------------
TOTAL SCF ENERGY
----------------

Total Energy       :         -608.51808687 Eh          -16558.61897 eV

Components:
Nuclear Repulsion  :          459.93646216 Eh           12515.50741 eV
Electronic Energy  :        -1068.45454903 Eh          -29074.12638 eV
One Electron Energy:        -1757.40185012 Eh          -47821.33553 eV
Two Electron Energy:          688.94730109 Eh           18747.20915 eV

Virial components:
Potential Energy   :        -1216.29566572 Eh          -33097.08769 eV
Kinetic Energy     :          607.77757885 Eh           16538.46872 eV
Virial Ratio       :            2.00121839


---------------
SCF CONVERGENCE
---------------

  Last Energy change         ...   -7.0816e-09  Tolerance :   1.0000e-08
  Last MAX-Density change    ...    5.2744e-06  Tolerance :   1.0000e-07
  Last RMS-Density change    ...    1.0868e-07  Tolerance :   5.0000e-09
  Last Orbital Gradient      ...    2.0345e-06  Tolerance :   1.0000e-05
  Last Orbital Rotation      ...    2.2257e-06  Tolerance :   1.0000e-05

             **** THE GBW FILE WAS UPDATED (12h2o.su.etal.mol0,2,3,5,6,8,9,10-orca.engrad-mp2.def2tzvp.frozencore.gbw) ****
             **** DENSITY FILE WAS UPDATED (12h2o.su.etal.mol0,2,3,5,6,8,9,10-orca.engrad-mp2.def2tzvp.frozencore.scfp) ****
             **** ENERGY FILE WAS UPDATED (12h2o.su.etal.mol0,2,3,5,6,8,9,10-orca.engrad-mp2.def2tzvp.frozencore.en.tmp) ****
             **** THE GBW FILE WAS UPDATED (12h2o.su.etal.mol0,2,3,5,6,8,9,10-orca.engrad-mp2.def2tzvp.frozencore.gbw) ****
             **** DENSITY FILE WAS UPDATED (12h2o.su.etal.mol0,2,3,5,6,8,9,10-orca.engrad-mp2.def2tzvp.frozencore.scfp) ****
----------------
ORBITAL ENERGIES
----------------

  NO   OCC          E(Eh)            E(eV) 
   0   2.0000     -20.623216      -561.1862 
   1   2.0000     -20.596281      -560.4533 
   2   2.0000     -20.570228      -559.7444 
   3   2.0000     -20.562235      -559.5268 
   4   2.0000     -20.554647      -559.3204 
   5   2.0000     -20.553028      -559.2763 
   6   2.0000     -20.520151      -558.3817 
   7   2.0000     -20.500419      -557.8448 
   8   2.0000      -1.404252       -38.2116 
   9   2.0000      -1.381898       -37.6033 
  10   2.0000      -1.365456       -37.1560 
  11   2.0000      -1.353915       -36.8419 
  12   2.0000      -1.341171       -36.4951 
  13   2.0000      -1.330169       -36.1957 
  14   2.0000      -1.307405       -35.5763 
  15   2.0000      -1.285028       -34.9674 
  16   2.0000      -0.769384       -20.9360 
  17   2.0000      -0.746512       -20.3136 
  18   2.0000      -0.729986       -19.8639 
  19   2.0000      -0.721499       -19.6330 
  20   2.0000      -0.717641       -19.5280 
  21   2.0000      -0.708417       -19.2770 
  22   2.0000      -0.689423       -18.7601 
  23   2.0000      -0.668484       -18.1904 
  24   2.0000      -0.648962       -17.6591 
  25   2.0000      -0.628226       -17.0949 
  26   2.0000      -0.611340       -16.6354 
  27   2.0000      -0.598830       -16.2950 
  28   2.0000      -0.584957       -15.9175 
  29   2.0000      -0.579879       -15.7793 
  30   2.0000      -0.565961       -15.4006 
  31   2.0000      -0.548168       -14.9164 
  32   2.0000      -0.527462       -14.3530 
  33   2.0000      -0.519007       -14.1229 
  34   2.0000      -0.511313       -13.9135 
  35   2.0000      -0.503995       -13.7144 
  36   2.0000      -0.503382       -13.6977 
  37   2.0000      -0.499769       -13.5994 
  38   2.0000      -0.471546       -12.8314 
  39   2.0000      -0.450095       -12.2477 
  40   0.0000       0.084930         2.3111 
  41   0.0000       0.119215         3.2440 
  42   0.0000       0.147749         4.0204 
  43   0.0000       0.155289         4.2256 
  44   0.0000       0.170941         4.6515 
  45   0.0000       0.178479         4.8567 
  46   0.0000       0.219865         5.9828 
  47   0.0000       0.232625         6.3301 
  48   0.0000       0.250520         6.8170 
  49   0.0000       0.272381         7.4119 
  50   0.0000       0.282771         7.6946 
  51   0.0000       0.312068         8.4918 
  52   0.0000       0.326104         8.8737 
  53   0.0000       0.335572         9.1314 
  54   0.0000       0.343946         9.3593 
  55   0.0000       0.358252         9.7485 
  56   0.0000       0.411950        11.2097 
  57   0.0000       0.443089        12.0571 
  58   0.0000       0.487296        13.2600 
  59   0.0000       0.494610        13.4590 
  60   0.0000       0.505750        13.7621 
  61   0.0000       0.515430        14.0256 
  62   0.0000       0.526548        14.3281 
  63   0.0000       0.530935        14.4475 
  64   0.0000       0.542864        14.7721 
  65   0.0000       0.544636        14.8203 
  66   0.0000       0.564008        15.3474 
  67   0.0000       0.570592        15.5266 
  68   0.0000       0.578199        15.7336 
  69   0.0000       0.603031        16.4093 
  70   0.0000       0.605865        16.4864 
  71   0.0000       0.609995        16.5988 
  72   0.0000       0.617796        16.8111 
  73   0.0000       0.640133        17.4189 
  74   0.0000       0.645875        17.5752 
  75   0.0000       0.650332        17.6964 
  76   0.0000       0.680689        18.5225 
  77   0.0000       0.688201        18.7269 
  78   0.0000       0.697506        18.9801 
  79   0.0000       0.708210        19.2714 
  80   0.0000       0.716716        19.5028 
  81   0.0000       0.737131        20.0584 
  82   0.0000       0.746888        20.3238 
  83   0.0000       0.758087        20.6286 
  84   0.0000       0.767422        20.8826 
  85   0.0000       0.782398        21.2901 
  86   0.0000       0.790849        21.5201 
  87   0.0000       0.802443        21.8356 
  88   0.0000       0.810209        22.0469 
  89   0.0000       0.820317        22.3220 
  90   0.0000       0.844162        22.9708 
  91   0.0000       0.861723        23.4487 
  92   0.0000       0.874784        23.8041 
  93   0.0000       0.875515        23.8240 
  94   0.0000       0.917936        24.9783 
  95   0.0000       0.957442        26.0533 
  96   0.0000       0.970987        26.4219 
  97   0.0000       0.992417        27.0051 
  98   0.0000       1.004394        27.3310 
  99   0.0000       1.045122        28.4392 
 100   0.0000       1.065461        28.9927 
 101   0.0000       1.092096        29.7175 
 102   0.0000       1.112627        30.2761 
 103   0.0000       1.162960        31.6458 
 104   0.0000       1.340405        36.4743 
 105   0.0000       1.362306        37.0702 
 106   0.0000       1.369291        37.2603 
 107   0.0000       1.380186        37.5568 
 108   0.0000       1.403755        38.1981 
 109   0.0000       1.408085        38.3160 
 110   0.0000       1.420796        38.6618 
 111   0.0000       1.428028        38.8586 
 112   0.0000       1.440901        39.2089 
 113   0.0000       1.442365        39.2488 
 114   0.0000       1.473605        40.0988 
 115   0.0000       1.494340        40.6631 
 116   0.0000       1.509948        41.0878 
 117   0.0000       1.514589        41.2141 
 118   0.0000       1.527580        41.5676 
 119   0.0000       1.559291        42.4305 
 120   0.0000       1.569278        42.7022 
 121   0.0000       1.581710        43.0405 
 122   0.0000       1.589211        43.2446 
 123   0.0000       1.592499        43.3341 
 124   0.0000       1.621525        44.1239 
 125   0.0000       1.632468        44.4217 
 126   0.0000       1.647274        44.8246 
 127   0.0000       1.688798        45.9545 
 128   0.0000       1.786566        48.6149 
 129   0.0000       1.817755        49.4636 
 130   0.0000       1.833395        49.8892 
 131   0.0000       1.854481        50.4630 
 132   0.0000       1.874035        50.9951 
 133   0.0000       1.884801        51.2880 
 134   0.0000       1.923680        52.3460 
 135   0.0000       1.934032        52.6277 
 136   0.0000       1.937826        52.7309 
 137   0.0000       1.961161        53.3659 
 138   0.0000       1.979788        53.8728 
 139   0.0000       1.996617        54.3307 
 140   0.0000       2.007482        54.6264 
 141   0.0000       2.020031        54.9678 
 142   0.0000       2.032573        55.3091 
 143   0.0000       2.036421        55.4138 
 144   0.0000       2.067386        56.2564 
 145   0.0000       2.087242        56.7967 
 146   0.0000       2.118087        57.6361 
 147   0.0000       2.142075        58.2888 
 148   0.0000       2.148971        58.4765 
 149   0.0000       2.151256        58.5387 
 150   0.0000       2.199823        59.8602 
 151   0.0000       2.216565        60.3158 
 152   0.0000       2.240360        60.9633 
 153   0.0000       2.254133        61.3381 
 154   0.0000       2.272174        61.8290 
 155   0.0000       2.295534        62.4647 
 156   0.0000       2.301796        62.6351 
 157   0.0000       2.305386        62.7327 
 158   0.0000       2.331803        63.4516 
 159   0.0000       2.346979        63.8645 
 160   0.0000       2.358393        64.1751 
 161   0.0000       2.361255        64.2530 
 162   0.0000       2.375530        64.6415 
 163   0.0000       2.387756        64.9741 
 164   0.0000       2.398348        65.2624 
 165   0.0000       2.413274        65.6685 
 166   0.0000       2.451332        66.7041 
 167   0.0000       2.469375        67.1951 
 168   0.0000       2.474067        67.3228 
 169   0.0000       2.498654        67.9918 
 170   0.0000       2.512595        68.3712 
 171   0.0000       2.524375        68.6917 
 172   0.0000       2.542899        69.1958 
 173   0.0000       2.564513        69.7839 
 174   0.0000       2.579400        70.1890 
 175   0.0000       2.586359        70.3784 
 176   0.0000       2.601476        70.7898 
 177   0.0000       2.616377        71.1952 
 178   0.0000       2.625456        71.4423 
 179   0.0000       2.634685        71.6934 
 180   0.0000       2.653737        72.2119 
 181   0.0000       2.661100        72.4122 
 182   0.0000       2.672395        72.7196 
 183   0.0000       2.683020        73.0087 
 184   0.0000       2.687607        73.1335 
 185   0.0000       2.717275        73.9408 
 186   0.0000       2.723925        74.1218 
 187   0.0000       2.751443        74.8706 
 188   0.0000       2.754162        74.9446 
 189   0.0000       2.799895        76.1890 
 190   0.0000       2.805198        76.3333 
 191   0.0000       2.815456        76.6124 
 192   0.0000       2.873892        78.2026 
 193   0.0000       2.899991        78.9128 
 194   0.0000       2.930946        79.7551 
 195   0.0000       2.954114        80.3855 
 196   0.0000       2.958867        80.5149 
 197   0.0000       2.979805        81.0846 
 198   0.0000       2.984651        81.2165 
 199   0.0000       3.000818        81.6564 
 200   0.0000       3.011773        81.9545 
 201   0.0000       3.027167        82.3734 
 202   0.0000       3.035876        82.6104 
 203   0.0000       3.059864        83.2631 
 204   0.0000       3.078578        83.7724 
 205   0.0000       3.086184        83.9793 
 206   0.0000       3.116947        84.8164 
 207   0.0000       3.140042        85.4449 
 208   0.0000       3.145624        85.5968 
 209   0.0000       3.153292        85.8054 
 210   0.0000       3.175364        86.4060 
 211   0.0000       3.207194        87.2722 
 212   0.0000       3.221012        87.6482 
 213   0.0000       3.239240        88.1442 
 214   0.0000       3.298397        89.7539 
 215   0.0000       3.308860        90.0387 
 216   0.0000       3.325583        90.4937 
 217   0.0000       3.333524        90.7098 
 218   0.0000       3.348862        91.1272 
 219   0.0000       3.392635        92.3183 
 220   0.0000       3.409826        92.7861 
 221   0.0000       3.477529        94.6284 
 222   0.0000       3.509861        95.5082 
 223   0.0000       3.550123        96.6038 
 224   0.0000       3.961163       107.7887 
 225   0.0000       4.035971       109.8243 
 226   0.0000       4.045940       110.0956 
 227   0.0000       4.081170       111.0543 
 228   0.0000       4.113158       111.9247 
 229   0.0000       4.130111       112.3860 
 230   0.0000       4.146180       112.8233 
 231   0.0000       4.178441       113.7012 
 232   0.0000       4.258915       115.8910 
 233   0.0000       4.283674       116.5647 
 234   0.0000       4.311502       117.3219 
 235   0.0000       4.332135       117.8834 
 236   0.0000       4.371483       118.9541 
 237   0.0000       4.379915       119.1835 
 238   0.0000       4.389423       119.4423 
 239   0.0000       4.403996       119.8388 
 240   0.0000       5.490796       149.4121 
 241   0.0000       5.510006       149.9349 
 242   0.0000       5.532893       150.5577 
 243   0.0000       5.542955       150.8315 
 244   0.0000       5.545046       150.8884 
 245   0.0000       5.549601       151.0123 
 246   0.0000       5.583935       151.9466 
 247   0.0000       5.585530       151.9900 
 248   0.0000       5.602988       152.4651 
 249   0.0000       5.637936       153.4160 
 250   0.0000       5.642732       153.5465 
 251   0.0000       5.649174       153.7218 
 252   0.0000       5.682501       154.6287 
 253   0.0000       5.694160       154.9460 
 254   0.0000       5.696134       154.9997 
 255   0.0000       5.710648       155.3946 
 256   0.0000       5.753085       156.5494 
 257   0.0000       5.785256       157.4248 
 258   0.0000       5.794118       157.6660 
 259   0.0000       5.808504       158.0574 
 260   0.0000       5.813499       158.1933 
 261   0.0000       5.820419       158.3817 
 262   0.0000       5.826919       158.5585 
 263   0.0000       5.837645       158.8504 
 264   0.0000       5.845834       159.0732 
 265   0.0000       5.857062       159.3788 
 266   0.0000       5.861219       159.4919 
 267   0.0000       5.862882       159.5371 
 268   0.0000       5.869220       159.7096 
 269   0.0000       5.875774       159.8879 
 270   0.0000       5.884436       160.1236 
 271   0.0000       5.887634       160.2107 
 272   0.0000       5.892221       160.3355 
 273   0.0000       5.904268       160.6633 
 274   0.0000       5.910721       160.8389 
 275   0.0000       5.925052       161.2289 
 276   0.0000       5.935089       161.5020 
 277   0.0000       5.939072       161.6104 
 278   0.0000       5.942339       161.6993 
 279   0.0000       5.964581       162.3045 
 280   0.0000       6.371784       173.3851 
 281   0.0000       6.433982       175.0776 
 282   0.0000       6.474404       176.1775 
 283   0.0000       6.480760       176.3505 
 284   0.0000       6.481185       176.3620 
 285   0.0000       6.492556       176.6714 
 286   0.0000       6.507332       177.0735 
 287   0.0000       6.540922       177.9875 
 288   0.0000       6.646254       180.8538 
 289   0.0000       6.668570       181.4610 
 290   0.0000       6.675016       181.6364 
 291   0.0000       6.719776       182.8544 
 292   0.0000       6.727855       183.0742 
 293   0.0000       6.739477       183.3905 
 294   0.0000       6.760284       183.9567 
 295   0.0000       6.786616       184.6732 
 296   0.0000       6.827731       185.7920 
 297   0.0000       6.836367       186.0270 
 298   0.0000       6.847783       186.3377 
 299   0.0000       6.849108       186.3737 
 300   0.0000       6.862845       186.7475 
 301   0.0000       6.872607       187.0131 
 302   0.0000       6.889658       187.4771 
 303   0.0000       6.899585       187.7473 
 304   0.0000       6.914973       188.1660 
 305   0.0000       6.917238       188.2276 
 306   0.0000       6.923144       188.3883 
 307   0.0000       6.928044       188.5217 
 308   0.0000       6.934914       188.7086 
 309   0.0000       6.939567       188.8352 
 310   0.0000       6.953249       189.2075 
 311   0.0000       6.968443       189.6210 
 312   0.0000       6.976426       189.8382 
 313   0.0000       6.988698       190.1721 
 314   0.0000       6.999083       190.4547 
 315   0.0000       7.016470       190.9279 
 316   0.0000       7.042687       191.6412 
 317   0.0000       7.064481       192.2343 
 318   0.0000       7.098406       193.1574 
 319   0.0000       7.120049       193.7464 
 320   0.0000       7.329190       199.4374 
 321   0.0000       7.370466       200.5606 
 322   0.0000       7.387800       201.0323 
 323   0.0000       7.443349       202.5438 
 324   0.0000       7.449815       202.7198 
 325   0.0000       7.458945       202.9682 
 326   0.0000       7.478730       203.5066 
 327   0.0000       7.488979       203.7855 
 328   0.0000       7.498976       204.0575 
 329   0.0000       7.540214       205.1797 
 330   0.0000       7.557408       205.6475 
 331   0.0000       7.566171       205.8860 
 332   0.0000       7.583480       206.3570 
 333   0.0000       7.591791       206.5831 
 334   0.0000       7.632578       207.6930 
 335   0.0000       7.662822       208.5160 
 336   0.0000      44.878802      1221.2143 
 337   0.0000      44.978679      1223.9321 
 338   0.0000      44.994955      1224.3750 
 339   0.0000      44.998969      1224.4842 
 340   0.0000      45.019384      1225.0397 
 341   0.0000      45.029660      1225.3193 
 342   0.0000      45.070946      1226.4428 
 343   0.0000      45.140649      1228.3395 

                    ********************************
                    * MULLIKEN POPULATION ANALYSIS *
                    ********************************

-----------------------
MULLIKEN ATOMIC CHARGES
-----------------------
   0 O :   -0.741759
   1 H :    0.377934
   2 H :    0.380214
   3 O :   -0.795270
   4 H :    0.358660
   5 H :    0.415567
   6 O :   -0.745955
   7 H :    0.367274
   8 H :    0.402835
   9 O :   -0.779107
  10 H :    0.368036
  11 H :    0.385936
  12 O :   -0.761374
  13 H :    0.406955
  14 H :    0.369944
  15 O :   -0.766927
  16 H :    0.399558
  17 H :    0.392465
  18 O :   -0.753225
  19 H :    0.390585
  20 H :    0.349403
  21 O :   -0.782735
  22 H :    0.352281
  23 H :    0.408706
Sum of atomic charges:   -0.0000000

--------------------------------
MULLIKEN REDUCED ORBITAL CHARGES
--------------------------------
  0 O s       :     3.807456  s :     3.807456
      pz      :     1.730098  p :     4.908846
      px      :     1.379827
      py      :     1.798921
      dz2     :     0.003895  d :     0.023978
      dxz     :     0.004338
      dyz     :     0.005494
      dx2y2   :     0.002555
      dxy     :     0.007696
      f0      :     0.000084  f :     0.001479
      f+1     :     0.000333
      f-1     :     0.000179
      f+2     :     0.000064
      f-2     :     0.000348
      f+3     :     0.000094
      f-3     :     0.000377
  1 H s       :     0.577159  s :     0.577159
      pz      :     0.016929  p :     0.044907
      px      :     0.013318
      py      :     0.014660
  2 H s       :     0.579218  s :     0.579218
      pz      :     0.010481  p :     0.040568
      px      :     0.018000
      py      :     0.012088
  3 O s       :     3.807875  s :     3.807875
      pz      :     1.725881  p :     4.964113
      px      :     1.791724
      py      :     1.446509
      dz2     :     0.003668  d :     0.021906
      dxz     :     0.005011
      dyz     :     0.004479
      dx2y2   :     0.002175
      dxy     :     0.006572
      f0      :     0.000081  f :     0.001376
      f+1     :     0.000169
      f-1     :     0.000315
      f+2     :     0.000060
      f-2     :     0.000345
      f+3     :     0.000326
      f-3     :     0.000081
  4 H s       :     0.596020  s :     0.596020
      pz      :     0.016929  p :     0.045320
      px      :     0.014665
      py      :     0.013726
  5 H s       :     0.528605  s :     0.528605
      pz      :     0.009781  p :     0.055828
      px      :     0.012995
      py      :     0.033052
  6 O s       :     3.795596  s :     3.795596
      pz      :     1.527412  p :     4.924361
      px      :     1.605685
      py      :     1.791263
      dz2     :     0.012286  d :     0.024611
      dxz     :     0.001245
      dyz     :     0.002272
      dx2y2   :     0.002273
      dxy     :     0.006535
      f0      :     0.000250  f :     0.001387
      f+1     :     0.000389
      f-1     :     0.000155
      f+2     :     0.000052
      f-2     :     0.000056
      f+3     :     0.000046
      f-3     :     0.000440
  7 H s       :     0.589223  s :     0.589223
      pz      :     0.019329  p :     0.043503
      px      :     0.011560
      py      :     0.012613
  8 H s       :     0.547971  s :     0.547971
      pz      :     0.009336  p :     0.049194
      px      :     0.024508
      py      :     0.015349
  9 O s       :     3.806034  s :     3.806034
      pz      :     1.586025  p :     4.949049
      px      :     1.877149
      py      :     1.485875
      dz2     :     0.009862  d :     0.022621
      dxz     :     0.002317
      dyz     :     0.002480
      dx2y2   :     0.002892
      dxy     :     0.005071
      f0      :     0.000182  f :     0.001403
      f+1     :     0.000117
      f-1     :     0.000423
      f+2     :     0.000077
      f-2     :     0.000036
      f+3     :     0.000450
      f-3     :     0.000118
 10 H s       :     0.578295  s :     0.578295
      pz      :     0.009535  p :     0.053669
      px      :     0.015988
      py      :     0.028146
 11 H s       :     0.564664  s :     0.564664
      pz      :     0.024494  p :     0.049400
      px      :     0.013318
      py      :     0.011588
 12 O s       :     3.802027  s :     3.802027
      pz      :     1.611046  p :     4.934330
      px      :     1.469678
      py      :     1.853606
      dz2     :     0.010418  d :     0.023623
      dxz     :     0.002516
      dyz     :     0.002092
      dx2y2   :     0.003484
      dxy     :     0.005115
      f0      :     0.000169  f :     0.001394
      f+1     :     0.000438
      f-1     :     0.000114
      f+2     :     0.000070
      f-2     :     0.000036
      f+3     :     0.000111
      f-3     :     0.000456
 13 H s       :     0.544628  s :     0.544628
      pz      :     0.025004  p :     0.048417
      px      :     0.010920
      py      :     0.012494
 14 H s       :     0.588192  s :     0.588192
      pz      :     0.009292  p :     0.041864
      px      :     0.018578
      py      :     0.013994
 15 O s       :     3.792405  s :     3.792405
      pz      :     1.568482  p :     4.949283
      px      :     1.595438
      py      :     1.785363
      dz2     :     0.011744  d :     0.023902
      dxz     :     0.001220
      dyz     :     0.002198
      dx2y2   :     0.002260
      dxy     :     0.006480
      f0      :     0.000230  f :     0.001337
      f+1     :     0.000377
      f-1     :     0.000147
      f+2     :     0.000050
      f-2     :     0.000054
      f+3     :     0.000044
      f-3     :     0.000434
 16 H s       :     0.552725  s :     0.552725
      pz      :     0.024490  p :     0.047716
      px      :     0.011120
      py      :     0.012107
 17 H s       :     0.557900  s :     0.557900
      pz      :     0.009660  p :     0.049635
      px      :     0.024460
      py      :     0.015515
 18 O s       :     3.804690  s :     3.804690
      pz      :     1.559735  p :     4.922463
      px      :     1.817047
      py      :     1.545680
      dz2     :     0.011228  d :     0.024628
      dxz     :     0.002887
      dyz     :     0.001170
      dx2y2   :     0.002134
      dxy     :     0.007209
      f0      :     0.000247  f :     0.001445
      f+1     :     0.000161
      f-1     :     0.000370
      f+2     :     0.000056
      f-2     :     0.000055
      f+3     :     0.000489
      f-3     :     0.000067
 19 H s       :     0.560785  s :     0.560785
      pz      :     0.024574  p :     0.048630
      px      :     0.012652
      py      :     0.011404
 20 H s       :     0.599876  s :     0.599876
      pz      :     0.010707  p :     0.050721
      px      :     0.016962
      py      :     0.023052
 21 O s       :     3.805831  s :     3.805831
      pz      :     1.733402  p :     4.952945
      px      :     1.782879
      py      :     1.436664
      dz2     :     0.003945  d :     0.022541
      dxz     :     0.005123
      dyz     :     0.004796
      dx2y2   :     0.002262
      dxy     :     0.006415
      f0      :     0.000089  f :     0.001417
      f+1     :     0.000175
      f-1     :     0.000331
      f+2     :     0.000061
      f-2     :     0.000355
      f+3     :     0.000325
      f-3     :     0.000081
 22 H s       :     0.602107  s :     0.602107
      pz      :     0.017123  p :     0.045613
      px      :     0.014826
      py      :     0.013663
 23 H s       :     0.534939  s :     0.534939
      pz      :     0.010374  p :     0.056355
      px      :     0.013132
      py      :     0.032849


                     *******************************
                     * LOEWDIN POPULATION ANALYSIS *
                     *******************************

----------------------
LOEWDIN ATOMIC CHARGES
----------------------
   0 O :   -0.296352
   1 H :    0.169492
   2 H :    0.192871
   3 O :   -0.327297
   4 H :    0.157912
   5 H :    0.157228
   6 O :   -0.293875
   7 H :    0.172927
   8 H :    0.162286
   9 O :   -0.355137
  10 H :    0.145355
  11 H :    0.152801
  12 O :   -0.296319
  13 H :    0.162949
  14 H :    0.179232
  15 O :   -0.300258
  16 H :    0.159991
  17 H :    0.157625
  18 O :   -0.359788
  19 H :    0.157220
  20 H :    0.141312
  21 O :   -0.351746
  22 H :    0.156062
  23 H :    0.155510

-------------------------------
LOEWDIN REDUCED ORBITAL CHARGES
-------------------------------
  0 O s       :     3.462516  s :     3.462516
      pz      :     1.686052  p :     4.800283
      px      :     1.364331
      py      :     1.749901
      dz2     :     0.005371  d :     0.031486
      dxz     :     0.006495
      dyz     :     0.005324
      dx2y2   :     0.004227
      dxy     :     0.010069
      f0      :     0.000087  f :     0.002067
      f+1     :     0.000447
      f-1     :     0.000272
      f+2     :     0.000033
      f-2     :     0.000593
      f+3     :     0.000090
      f-3     :     0.000543
  1 H s       :     0.666316  s :     0.666316
      pz      :     0.066644  p :     0.164192
      px      :     0.044605
      py      :     0.052943
  2 H s       :     0.658247  s :     0.658247
      pz      :     0.033254  p :     0.148883
      px      :     0.072074
      py      :     0.043555
  3 O s       :     3.454895  s :     3.454895
      pz      :     1.683707  p :     4.842058
      px      :     1.749295
      py      :     1.409056
      dz2     :     0.004708  d :     0.028402
      dxz     :     0.005158
      dyz     :     0.006739
      dx2y2   :     0.003566
      dxy     :     0.008231
      f0      :     0.000087  f :     0.001941
      f+1     :     0.000256
      f-1     :     0.000427
      f+2     :     0.000032
      f-2     :     0.000608
      f+3     :     0.000449
      f-3     :     0.000083
  4 H s       :     0.676570  s :     0.676570
      pz      :     0.066201  p :     0.165518
      px      :     0.052996
      py      :     0.046321
  5 H s       :     0.643118  s :     0.643118
      pz      :     0.033190  p :     0.199654
      px      :     0.047641
      py      :     0.118823
  6 O s       :     3.451530  s :     3.451530
      pz      :     1.518733  p :     4.809385
      px      :     1.559350
      py      :     1.731302
      dz2     :     0.015946  d :     0.030886
      dxz     :     0.002050
      dyz     :     0.001812
      dx2y2   :     0.003280
      dxy     :     0.007796
      f0      :     0.000462  f :     0.002074
      f+1     :     0.000569
      f-1     :     0.000329
      f+2     :     0.000021
      f-2     :     0.000052
      f+3     :     0.000025
      f-3     :     0.000617
  7 H s       :     0.667760  s :     0.667760
      pz      :     0.080942  p :     0.159313
      px      :     0.036648
      py      :     0.041723
  8 H s       :     0.661877  s :     0.661877
      pz      :     0.029419  p :     0.175836
      px      :     0.088298
      py      :     0.058119
  9 O s       :     3.456978  s :     3.456978
      pz      :     1.552883  p :     4.867338
      px      :     1.838493
      py      :     1.475961
      dz2     :     0.013577  d :     0.028876
      dxz     :     0.001522
      dyz     :     0.003703
      dx2y2   :     0.003875
      dxy     :     0.006199
      f0      :     0.000357  f :     0.001945
      f+1     :     0.000182
      f-1     :     0.000691
      f+2     :     0.000042
      f-2     :     0.000042
      f+3     :     0.000566
      f-3     :     0.000067
 10 H s       :     0.670265  s :     0.670265
      pz      :     0.030816  p :     0.184380
      px      :     0.052611
      py      :     0.100952
 11 H s       :     0.674037  s :     0.674037
      pz      :     0.093114  p :     0.173162
      px      :     0.043067
      py      :     0.036981
 12 O s       :     3.456530  s :     3.456530
      pz      :     1.562279  p :     4.806896
      px      :     1.455132
      py      :     1.789485
      dz2     :     0.014193  d :     0.030881
      dxz     :     0.003575
      dyz     :     0.001270
      dx2y2   :     0.005259
      dxy     :     0.006583
      f0      :     0.000336  f :     0.002013
      f+1     :     0.000699
      f-1     :     0.000201
      f+2     :     0.000037
      f-2     :     0.000042
      f+3     :     0.000074
      f-3     :     0.000623
 13 H s       :     0.664104  s :     0.664104
      pz      :     0.094682  p :     0.172947
      px      :     0.035759
      py      :     0.042506
 14 H s       :     0.665819  s :     0.665819
      pz      :     0.030473  p :     0.154949
      px      :     0.075169
      py      :     0.049307
 15 O s       :     3.445691  s :     3.445691
      pz      :     1.540272  p :     4.823071
      px      :     1.555798
      py      :     1.727000
      dz2     :     0.014816  d :     0.029507
      dxz     :     0.001847
      dyz     :     0.001676
      dx2y2   :     0.003304
      dxy     :     0.007863
      f0      :     0.000420  f :     0.001990
      f+1     :     0.000538
      f-1     :     0.000317
      f+2     :     0.000019
      f-2     :     0.000049
      f+3     :     0.000025
      f-3     :     0.000622
 16 H s       :     0.668023  s :     0.668023
      pz      :     0.093168  p :     0.171986
      px      :     0.037140
      py      :     0.041678
 17 H s       :     0.665760  s :     0.665760
      pz      :     0.030764  p :     0.176615
      px      :     0.087856
      py      :     0.057996
 18 O s       :     3.460636  s :     3.460636
      pz      :     1.539989  p :     4.866842
      px      :     1.791202
      py      :     1.535652
      dz2     :     0.014600  d :     0.030267
      dxz     :     0.002216
      dyz     :     0.001776
      dx2y2   :     0.002258
      dxy     :     0.009418
      f0      :     0.000429  f :     0.002043
      f+1     :     0.000307
      f-1     :     0.000545
      f+2     :     0.000023
      f-2     :     0.000046
      f+3     :     0.000689
      f-3     :     0.000002
 19 H s       :     0.670659  s :     0.670659
      pz      :     0.093880  p :     0.172121
      px      :     0.041808
      py      :     0.036433
 20 H s       :     0.686770  s :     0.686770
      pz      :     0.031871  p :     0.171918
      px      :     0.057802
      py      :     0.082246
 21 O s       :     3.460026  s :     3.460026
      pz      :     1.710877  p :     4.861333
      px      :     1.745981
      py      :     1.404476
      dz2     :     0.004250  d :     0.028432
      dxz     :     0.005240
      dyz     :     0.006950
      dx2y2   :     0.003686
      dxy     :     0.008306
      f0      :     0.000073  f :     0.001954
      f+1     :     0.000260
      f-1     :     0.000435
      f+2     :     0.000031
      f-2     :     0.000618
      f+3     :     0.000454
      f-3     :     0.000083
 22 H s       :     0.679035  s :     0.679035
      pz      :     0.065832  p :     0.164903
      px      :     0.052949
      py      :     0.046122
 23 H s       :     0.646821  s :     0.646821
      pz      :     0.033259  p :     0.197669
      px      :     0.047623
      py      :     0.116787


                      *****************************
                      * MAYER POPULATION ANALYSIS *
                      *****************************

  NA   - Mulliken gross atomic population
  ZA   - Total nuclear charge
  QA   - Mulliken gross atomic charge
  VA   - Mayer's total valence
  BVA  - Mayer's bonded valence
  FA   - Mayer's free valence

  ATOM       NA         ZA         QA         VA         BVA        FA
  0 O      8.7418     8.0000    -0.7418     1.7546     1.7546    -0.0000
  1 H      0.6221     1.0000     0.3779     0.8732     0.8732    -0.0000
  2 H      0.6198     1.0000     0.3802     0.8701     0.8701    -0.0000
  3 O      8.7953     8.0000    -0.7953     1.6700     1.6700     0.0000
  4 H      0.6413     1.0000     0.3587     0.8885     0.8885     0.0000
  5 H      0.5844     1.0000     0.4156     0.8672     0.8672    -0.0000
  6 O      8.7460     8.0000    -0.7460     1.7404     1.7404    -0.0000
  7 H      0.6327     1.0000     0.3673     0.8799     0.8799    -0.0000
  8 H      0.5972     1.0000     0.4028     0.8740     0.8740     0.0000
  9 O      8.7791     8.0000    -0.7791     1.6882     1.6882    -0.0000
 10 H      0.6320     1.0000     0.3680     0.8991     0.8991     0.0000
 11 H      0.6141     1.0000     0.3859     0.8824     0.8824    -0.0000
 12 O      8.7614     8.0000    -0.7614     1.7267     1.7267     0.0000
 13 H      0.5930     1.0000     0.4070     0.8644     0.8644    -0.0000
 14 H      0.6301     1.0000     0.3699     0.8804     0.8804     0.0000
 15 O      8.7669     8.0000    -0.7669     1.7212     1.7212     0.0000
 16 H      0.6004     1.0000     0.3996     0.8619     0.8619    -0.0000
 17 H      0.6075     1.0000     0.3925     0.8848     0.8848     0.0000
 18 O      8.7532     8.0000    -0.7532     1.7286     1.7286    -0.0000
 19 H      0.6094     1.0000     0.3906     0.8765     0.8765    -0.0000
 20 H      0.6506     1.0000     0.3494     0.9032     0.9032    -0.0000
 21 O      8.7827     8.0000    -0.7827     1.6834     1.6834    -0.0000
 22 H      0.6477     1.0000     0.3523     0.8926     0.8926    -0.0000
 23 H      0.5913     1.0000     0.4087     0.8719     0.8719    -0.0000

  Mayer bond orders larger than 0.100000
B(  0-O ,  1-H ) :   0.8642 B(  0-O ,  2-H ) :   0.8580 B(  3-O ,  4-H ) :   0.8785 
B(  3-O ,  5-H ) :   0.7647 B(  6-O ,  7-H ) :   0.8725 B(  6-O ,  8-H ) :   0.8199 
B(  9-O , 10-H ) :   0.8386 B(  9-O , 11-H ) :   0.8471 B( 12-O , 13-H ) :   0.8266 
B( 12-O , 14-H ) :   0.8659 B( 15-O , 16-H ) :   0.8410 B( 15-O , 17-H ) :   0.8254 
B( 18-O , 19-H ) :   0.8454 B( 18-O , 20-H ) :   0.8832 B( 21-O , 22-H ) :   0.8845 
B( 21-O , 23-H ) :   0.7828 

-------
TIMINGS
-------

Total SCF time: 0 days 0 hours 0 min 27 sec 

Total time                  ....      27.680 sec
Sum of individual times     ....      27.380 sec  ( 98.9%)

Fock matrix formation       ....      26.791 sec  ( 96.8%)
Diagonalization             ....       0.139 sec  (  0.5%)
Density matrix formation    ....       0.015 sec  (  0.1%)
Population analysis         ....       0.015 sec  (  0.1%)
Initial guess               ....       0.203 sec  (  0.7%)
Orbital Transformation      ....       0.000 sec  (  0.0%)
Orbital Orthonormalization  ....       0.000 sec  (  0.0%)
DIIS solution               ....       0.056 sec  (  0.2%)
SOSCF solution              ....       0.063 sec  (  0.2%)


           ************************************************************
           *        Program running with 6 parallel MPI-processes     *
           *              working on a common directory               *
           ************************************************************

------------------------------------------------------------------------------
                                ORCA  MP2 
------------------------------------------------------------------------------

Freezing NCore=16 chemical core electrons
MP2 will be done in the AO integral direct mode
The Q1-step will be done using symmetric double matrices
Dimension of the basis                    ...  344
Memory devoted for MP2                    ... 8000 MB   
Memory needed for all in one shot         ...  935 MB
Number of MOs that can be treated together...   50      
MP2 density construction                  ... relaxed
The MP2 gradient is requested => amplitudes will be stored on disk
Total number of MOs              ...   32
Number of MOs treated per batch  ...    6 
Number of batches necessary      ...    1 
OPERATORS   0/  0 PASS   0
-----------------------------------------------
 MP2 CORRELATION ENERGY   :     -2.074472393 Eh
-----------------------------------------------


---------------------
MP2 DENSITY FORMATION
---------------------

Completing the external part of the density      ... done
Storing the unrelaxed density                    ... done

Calculating G(D)                                 ... done
Completing the Lagrangian                        ... done
Solving the Z-vector equations                   ... 

------------------------------------------------------------------------------
                           ORCA CP-SCF CALCULATION
------------------------------------------------------------------------------

Input orbitals are from        ... 12h2o.su.etal.mol0,2,3,5,6,8,9,10-orca.engrad-mp2.def2tzvp.frozencore.gbw
Input Perturbation             ... 12h2o.su.etal.mol0,2,3,5,6,8,9,10-orca.engrad-mp2.def2tzvp.frozencore.pin.tmp
Wavefunction output            ... 12h2o.su.etal.mol0,2,3,5,6,8,9,10-orca.engrad-mp2.def2tzvp.frozencore.pout.tmp
Perturbation mode              ... Real perturbation (singlet)
Solver                         ... POPLE
Max. number of iterations      ... 128
Convergence tolerance          ... 1.000e-08
Integral handling              ... Direct
Number of perturbations        ... 1
Number of operators            ... 1
Orbital ranges used for CP-SCF:
 Operator 0:  Orbitals   0... 39  to  40...343
Variables per vector in CP-SCF ... 12160
Number of vectors sought       ... 1
     CP-SCF ITERATION   0: 
     CP-SCF ITERATION   1:      0.001013301980
     CP-SCF ITERATION   2:      0.000027511300
     CP-SCF ITERATION   3:      0.000000781407
     CP-SCF ITERATION   4:      0.000000115344
     CP-SCF ITERATION   5:      0.000000009500
                                                 ... done
Finalizing the relaxed density                   ... done
Transforming P to the AO basis                   ... done
Storing the relaxed density                      ... done

------------------------------------
ENERGY WEIGHTED DENSITY FINALIZATION
------------------------------------

Gathering the parts of the W-matrix              ...                                                      done
Forming the Z-density                            ... done
Transforming Z to the AO basis                   ... done
Calculating G(Z)                                 ... done
Finalizing the W-matrix                          ...                                                      done
Transforming W to the AO basis and storing       ... done

                *********************************************
                * UNRELAXED MP2 DENSITY POPULATION ANALYSIS *
                *********************************************

------------------------------------------------------------------------------
                           ORCA POPULATION ANALYSIS
------------------------------------------------------------------------------
Input electron density              ... 12h2o.su.etal.mol0,2,3,5,6,8,9,10-orca.engrad-mp2.def2tzvp.frozencore.pmp2ur
BaseName (.gbw .S,...)              ... 12h2o.su.etal.mol0,2,3,5,6,8,9,10-orca.engrad-mp2.def2tzvp.frozencore

                    ********************************
                    * MULLIKEN POPULATION ANALYSIS *
                    ********************************

-----------------------
MULLIKEN ATOMIC CHARGES
-----------------------
   0 O :   -0.736047
   1 H :    0.375710
   2 H :    0.377363
   3 O :   -0.788507
   4 H :    0.356307
   5 H :    0.410469
   6 O :   -0.739155
   7 H :    0.364796
   8 H :    0.399247
   9 O :   -0.772721
  10 H :    0.363616
  11 H :    0.382850
  12 O :   -0.754834
  13 H :    0.404011
  14 H :    0.367124
  15 O :   -0.759523
  16 H :    0.396637
  17 H :    0.388814
  18 O :   -0.747527
  19 H :    0.387515
  20 H :    0.346320
  21 O :   -0.776390
  22 H :    0.349995
  23 H :    0.403931
Sum of atomic charges:   -0.0000000

--------------------------------
MULLIKEN REDUCED ORBITAL CHARGES
--------------------------------
  0 O s       :     3.802601  s :     3.802601
      pz      :     1.718987  p :     4.878150
      px      :     1.372006
      py      :     1.787157
      dz2     :     0.009462  d :     0.051249
      dxz     :     0.009743
      dyz     :     0.011003
      dx2y2   :     0.008036
      dxy     :     0.013006
      f0      :     0.000456  f :     0.004047
      f+1     :     0.000695
      f-1     :     0.000546
      f+2     :     0.000433
      f-2     :     0.000713
      f+3     :     0.000465
      f-3     :     0.000738
  1 H s       :     0.577878  s :     0.577878
      pz      :     0.017374  p :     0.046412
      px      :     0.013688
      py      :     0.015350
  2 H s       :     0.580572  s :     0.580572
      pz      :     0.011296  p :     0.042065
      px      :     0.017931
      py      :     0.012838
  3 O s       :     3.802912  s :     3.802912
      pz      :     1.714756  p :     4.931734
      px      :     1.779533
      py      :     1.437445
      dz2     :     0.009363  d :     0.049885
      dxz     :     0.010556
      dyz     :     0.010019
      dx2y2   :     0.007857
      dxy     :     0.012091
      f0      :     0.000455  f :     0.003975
      f+1     :     0.000537
      f-1     :     0.000684
      f+2     :     0.000432
      f-2     :     0.000713
      f+3     :     0.000696
      f-3     :     0.000458
  4 H s       :     0.596766  s :     0.596766
      pz      :     0.017404  p :     0.046927
      px      :     0.015351
      py      :     0.014171
  5 H s       :     0.532105  s :     0.532105
      pz      :     0.010577  p :     0.057427
      px      :     0.013685
      py      :     0.033165
  6 O s       :     3.790399  s :     3.790399
      pz      :     1.518200  p :     4.892730
      px      :     1.595946
      py      :     1.778584
      dz2     :     0.017428  d :     0.052039
      dxz     :     0.006706
      dyz     :     0.007869
      dx2y2   :     0.007998
      dxy     :     0.012037
      f0      :     0.000631  f :     0.003987
      f+1     :     0.000756
      f-1     :     0.000531
      f+2     :     0.000415
      f-2     :     0.000424
      f+3     :     0.000424
      f-3     :     0.000806
  7 H s       :     0.590131  s :     0.590131
      pz      :     0.019401  p :     0.045073
      px      :     0.012249
      py      :     0.013423
  8 H s       :     0.550103  s :     0.550103
      pz      :     0.010073  p :     0.050650
      px      :     0.024689
      py      :     0.015888
  9 O s       :     3.801051  s :     3.801051
      pz      :     1.575976  p :     4.917391
      px      :     1.865006
      py      :     1.476410
      dz2     :     0.015334  d :     0.050286
      dxz     :     0.007992
      dyz     :     0.007995
      dx2y2   :     0.008452
      dxy     :     0.010513
      f0      :     0.000569  f :     0.003993
      f+1     :     0.000492
      f-1     :     0.000795
      f+2     :     0.000442
      f-2     :     0.000404
      f+3     :     0.000805
      f-3     :     0.000484
 10 H s       :     0.580980  s :     0.580980
      pz      :     0.010375  p :     0.055404
      px      :     0.016729
      py      :     0.028300
 11 H s       :     0.566213  s :     0.566213
      pz      :     0.024598  p :     0.050938
      px      :     0.014159
      py      :     0.012181
 12 O s       :     3.796974  s :     3.796974
      pz      :     1.600895  p :     4.902479
      px      :     1.460755
      py      :     1.840829
      dz2     :     0.015890  d :     0.051392
      dxz     :     0.007974
      dyz     :     0.007843
      dx2y2   :     0.009071
      dxy     :     0.010614
      f0      :     0.000559  f :     0.003990
      f+1     :     0.000808
      f-1     :     0.000493
      f+2     :     0.000436
      f-2     :     0.000404
      f+3     :     0.000479
      f-3     :     0.000811
 13 H s       :     0.546127  s :     0.546127
      pz      :     0.025109  p :     0.049863
      px      :     0.011459
      py      :     0.013295
 14 H s       :     0.589461  s :     0.589461
      pz      :     0.010100  p :     0.043415
      px      :     0.018598
      py      :     0.014717
 15 O s       :     3.787202  s :     3.787202
      pz      :     1.558758  p :     4.916714
      px      :     1.585469
      py      :     1.772487
      dz2     :     0.017033  d :     0.051655
      dxz     :     0.006749
      dyz     :     0.007870
      dx2y2   :     0.008011
      dxy     :     0.011992
      f0      :     0.000616  f :     0.003951
      f+1     :     0.000749
      f-1     :     0.000527
      f+2     :     0.000415
      f-2     :     0.000423
      f+3     :     0.000422
      f-3     :     0.000799
 16 H s       :     0.554141  s :     0.554141
      pz      :     0.024550  p :     0.049223
      px      :     0.011772
      py      :     0.012901
 17 H s       :     0.560064  s :     0.560064
      pz      :     0.010422  p :     0.051122
      px      :     0.024642
      py      :     0.016058
 18 O s       :     3.799864  s :     3.799864
      pz      :     1.550151  p :     4.892045
      px      :     1.805559
      py      :     1.536336
      dz2     :     0.016415  d :     0.051599
      dxz     :     0.008387
      dyz     :     0.006632
      dx2y2   :     0.007693
      dxy     :     0.012471
      f0      :     0.000628  f :     0.004020
      f+1     :     0.000535
      f-1     :     0.000739
      f+2     :     0.000417
      f-2     :     0.000421
      f+3     :     0.000844
      f-3     :     0.000436
 19 H s       :     0.562334  s :     0.562334
      pz      :     0.024610  p :     0.050151
      px      :     0.013475
      py      :     0.012066
 20 H s       :     0.601226  s :     0.601226
      pz      :     0.011548  p :     0.052454
      px      :     0.017620
      py      :     0.023286
 21 O s       :     3.800850  s :     3.800850
      pz      :     1.722746  p :     4.921445
      px      :     1.770826
      py      :     1.427874
      dz2     :     0.009469  d :     0.050094
      dxz     :     0.010587
      dyz     :     0.010215
      dx2y2   :     0.007907
      dxy     :     0.011916
      f0      :     0.000458  f :     0.004001
      f+1     :     0.000540
      f-1     :     0.000697
      f+2     :     0.000432
      f-2     :     0.000721
      f+3     :     0.000694
      f-3     :     0.000457
 22 H s       :     0.602756  s :     0.602756
      pz      :     0.017606  p :     0.047249
      px      :     0.015531
      py      :     0.014112
 23 H s       :     0.538089  s :     0.538089
      pz      :     0.011185  p :     0.057980
      px      :     0.013833
      py      :     0.032963


                     *******************************
                     * LOEWDIN POPULATION ANALYSIS *
                     *******************************

----------------------
LOEWDIN ATOMIC CHARGES
----------------------
   0 O :   -0.291969
   1 H :    0.168350
   2 H :    0.191090
   3 O :   -0.323132
   4 H :    0.156567
   5 H :    0.154466
   6 O :   -0.289729
   7 H :    0.171487
   8 H :    0.160052
   9 O :   -0.351705
  10 H :    0.142711
  11 H :    0.150686
  12 O :   -0.291543
  13 H :    0.160949
  14 H :    0.177426
  15 O :   -0.295907
  16 H :    0.158031
  17 H :    0.155341
  18 O :   -0.356991
  19 H :    0.155291
  20 H :    0.139163
  21 O :   -0.348308
  22 H :    0.154793
  23 H :    0.152882

-------------------------------
LOEWDIN REDUCED ORBITAL CHARGES
-------------------------------
  0 O s       :     3.458743  s :     3.458743
      pz      :     1.674509  p :     4.768560
      px      :     1.356147
      py      :     1.737904
      dz2     :     0.011065  d :     0.059836
      dxz     :     0.012107
      dyz     :     0.011111
      dx2y2   :     0.009811
      dxy     :     0.015742
      f0      :     0.000471  f :     0.004830
      f+1     :     0.000857
      f-1     :     0.000659
      f+2     :     0.000409
      f-2     :     0.001002
      f+3     :     0.000475
      f-3     :     0.000957
  1 H s       :     0.664580  s :     0.664580
      pz      :     0.067771  p :     0.167070
      px      :     0.045389
      py      :     0.053910
  2 H s       :     0.657036  s :     0.657036
      pz      :     0.034077  p :     0.151875
      px      :     0.073253
      py      :     0.044544
  3 O s       :     3.451267  s :     3.451267
      pz      :     1.672139  p :     4.809603
      px      :     1.737022
      py      :     1.400442
      dz2     :     0.010531  d :     0.057524
      dxz     :     0.011053
      dyz     :     0.012493
      dx2y2   :     0.009342
      dxy     :     0.014105
      f0      :     0.000472  f :     0.004738
      f+1     :     0.000644
      f-1     :     0.000844
      f+2     :     0.000411
      f-2     :     0.001020
      f+3     :     0.000872
      f-3     :     0.000474
  4 H s       :     0.674779  s :     0.674779
      pz      :     0.067437  p :     0.168655
      px      :     0.053964
      py      :     0.047253
  5 H s       :     0.643582  s :     0.643582
      pz      :     0.034016  p :     0.201952
      px      :     0.048467
      py      :     0.119470
  6 O s       :     3.447762  s :     3.447762
      pz      :     1.509298  p :     4.777767
      px      :     1.549732
      py      :     1.718737
      dz2     :     0.021787  d :     0.059329
      dxz     :     0.007452
      dyz     :     0.007336
      dx2y2   :     0.008962
      dxy     :     0.013791
      f0      :     0.000884  f :     0.004871
      f+1     :     0.000992
      f-1     :     0.000728
      f+2     :     0.000389
      f-2     :     0.000427
      f+3     :     0.000408
      f-3     :     0.001043
  7 H s       :     0.666144  s :     0.666144
      pz      :     0.082436  p :     0.162369
      px      :     0.037421
      py      :     0.042512
  8 H s       :     0.661446  s :     0.661446
      pz      :     0.030147  p :     0.178503
      px      :     0.089375
      py      :     0.058981
  9 O s       :     3.453330  s :     3.453330
      pz      :     1.542349  p :     4.835921
      px      :     1.826934
      py      :     1.466638
      dz2     :     0.019642  d :     0.057718
      dxz     :     0.007137
      dyz     :     0.009272
      dx2y2   :     0.009643
      dxy     :     0.012022
      f0      :     0.000777  f :     0.004735
      f+1     :     0.000573
      f-1     :     0.001133
      f+2     :     0.000414
      f-2     :     0.000416
      f+3     :     0.000977
      f-3     :     0.000445
 10 H s       :     0.669937  s :     0.669937
      pz      :     0.031698  p :     0.187352
      px      :     0.053520
      py      :     0.102134
 11 H s       :     0.673242  s :     0.673242
      pz      :     0.094451  p :     0.176072
      px      :     0.043848
      py      :     0.037773
 12 O s       :     3.452737  s :     3.452737
      pz      :     1.551672  p :     4.774287
      px      :     1.445915
      py      :     1.776700
      dz2     :     0.020246  d :     0.059711
      dxz     :     0.009088
      dyz     :     0.006943
      dx2y2   :     0.011035
      dxy     :     0.012399
      f0      :     0.000758  f :     0.004809
      f+1     :     0.001138
      f-1     :     0.000597
      f+2     :     0.000411
      f-2     :     0.000416
      f+3     :     0.000454
      f-3     :     0.001035
 13 H s       :     0.663398  s :     0.663398
      pz      :     0.095906  p :     0.175653
      px      :     0.036473
      py      :     0.043274
 14 H s       :     0.664498  s :     0.664498
      pz      :     0.031314  p :     0.158076
      px      :     0.076511
      py      :     0.050252
 15 O s       :     3.441987  s :     3.441987
      pz      :     1.530530  p :     4.790810
      px      :     1.546005
      py      :     1.714275
      dz2     :     0.020781  d :     0.058307
      dxz     :     0.007334
      dyz     :     0.007278
      dx2y2   :     0.009018
      dxy     :     0.013895
      f0      :     0.000847  f :     0.004802
      f+1     :     0.000965
      f-1     :     0.000719
      f+2     :     0.000389
      f-2     :     0.000426
      f+3     :     0.000407
      f-3     :     0.001048
 16 H s       :     0.667127  s :     0.667127
      pz      :     0.094471  p :     0.174843
      px      :     0.037908
      py      :     0.042463
 17 H s       :     0.665291  s :     0.665291
      pz      :     0.031519  p :     0.179368
      px      :     0.088976
      py      :     0.058873
 18 O s       :     3.456977  s :     3.456977
      pz      :     1.530462  p :     4.836826
      px      :     1.780168
      py      :     1.526195
      dz2     :     0.020465  d :     0.058375
      dxz     :     0.007661
      dyz     :     0.007191
      dx2y2   :     0.007797
      dxy     :     0.015261
      f0      :     0.000851  f :     0.004813
      f+1     :     0.000704
      f-1     :     0.000969
      f+2     :     0.000389
      f-2     :     0.000420
      f+3     :     0.001104
      f-3     :     0.000376
 19 H s       :     0.669760  s :     0.669760
      pz      :     0.095162  p :     0.174948
      px      :     0.042606
      py      :     0.037181
 20 H s       :     0.685683  s :     0.685683
      pz      :     0.032692  p :     0.175154
      px      :     0.058848
      py      :     0.083614
 21 O s       :     3.456382  s :     3.456382
      pz      :     1.700261  p :     4.830131
      px      :     1.733829
      py      :     1.396041
      dz2     :     0.009890  d :     0.057062
      dxz     :     0.011020
      dyz     :     0.012594
      dx2y2   :     0.009417
      dxy     :     0.014140
      f0      :     0.000453  f :     0.004733
      f+1     :     0.000645
      f-1     :     0.000850
      f+2     :     0.000410
      f-2     :     0.001028
      f+3     :     0.000875
      f-3     :     0.000474
 22 H s       :     0.677144  s :     0.677144
      pz      :     0.067072  p :     0.168062
      px      :     0.053926
      py      :     0.047064
 23 H s       :     0.647104  s :     0.647104
      pz      :     0.034076  p :     0.200014
      px      :     0.048462
      py      :     0.117475


                      *****************************
                      * MAYER POPULATION ANALYSIS *
                      *****************************

  NA   - Mulliken gross atomic population
  ZA   - Total nuclear charge
  QA   - Mulliken gross atomic charge
[...]
      f-1     :     0.000718
      f+2     :     0.000417
      f-2     :     0.000420
      f+3     :     0.000822
      f-3     :     0.000436
 19 H s       :     0.576129  s :     0.576129
      pz      :     0.023779  p :     0.050590
      px      :     0.014290
      py      :     0.012522
 20 H s       :     0.614379  s :     0.614379
      pz      :     0.012312  p :     0.053178
      px      :     0.018141
      py      :     0.022725
 21 O s       :     3.801557  s :     3.801557
      pz      :     1.717446  p :     4.895258
      px      :     1.755317
      py      :     1.422496
      dz2     :     0.009278  d :     0.048283
      dxz     :     0.010291
      dyz     :     0.009658
      dx2y2   :     0.007769
      dxy     :     0.011287
      f0      :     0.000456  f :     0.003933
      f+1     :     0.000532
      f-1     :     0.000680
      f+2     :     0.000431
      f-2     :     0.000702
      f+3     :     0.000676
      f-3     :     0.000455
 22 H s       :     0.608491  s :     0.608491
      pz      :     0.017703  p :     0.047990
      px      :     0.016158
      py      :     0.014129
 23 H s       :     0.561771  s :     0.561771
      pz      :     0.011881  p :     0.058145
      px      :     0.014287
      py      :     0.031976


                     *******************************
                     * LOEWDIN POPULATION ANALYSIS *
                     *******************************

----------------------
LOEWDIN ATOMIC CHARGES
----------------------
   0 O :   -0.286419
   1 H :    0.169951
   2 H :    0.192122
   3 O :   -0.315801
   4 H :    0.158425
   5 H :    0.146170
   6 O :   -0.283227
   7 H :    0.173007
   8 H :    0.154486
   9 O :   -0.348688
  10 H :    0.136611
  11 H :    0.146349
  12 O :   -0.283287
  13 H :    0.156740
  14 H :    0.178309
  15 O :   -0.287253
  16 H :    0.154857
  17 H :    0.150177
  18 O :   -0.356969
  19 H :    0.151624
  20 H :    0.135771
  21 O :   -0.344743
  22 H :    0.156779
  23 H :    0.145006

-------------------------------
LOEWDIN REDUCED ORBITAL CHARGES
-------------------------------
  0 O s       :     3.460521  s :     3.460521
      pz      :     1.669220  p :     4.762238
      px      :     1.361353
      py      :     1.731666
      dz2     :     0.011009  d :     0.058811
      dxz     :     0.011753
      dyz     :     0.011103
      dx2y2   :     0.009631
      dxy     :     0.015314
      f0      :     0.000474  f :     0.004849
      f+1     :     0.000863
      f-1     :     0.000660
      f+2     :     0.000409
      f-2     :     0.001002
      f+3     :     0.000478
      f-3     :     0.000962
  1 H s       :     0.663296  s :     0.663296
      pz      :     0.067655  p :     0.166752
      px      :     0.044612
      py      :     0.054486
  2 H s       :     0.656094  s :     0.656094
      pz      :     0.034724  p :     0.151783
      px      :     0.071798
      py      :     0.045262
  3 O s       :     3.452790  s :     3.452790
      pz      :     1.667220  p :     4.801079
      px      :     1.729518
      py      :     1.404341
      dz2     :     0.010637  d :     0.057153
      dxz     :     0.011019
      dyz     :     0.012162
      dx2y2   :     0.009405
      dxy     :     0.013931
      f0      :     0.000476  f :     0.004779
      f+1     :     0.000645
      f-1     :     0.000856
      f+2     :     0.000412
      f-2     :     0.001023
      f+3     :     0.000888
      f-3     :     0.000479
  4 H s       :     0.672975  s :     0.672975
      pz      :     0.067432  p :     0.168600
      px      :     0.054291
      py      :     0.046877
  5 H s       :     0.651708  s :     0.651708
      pz      :     0.034561  p :     0.202122
      px      :     0.048816
      py      :     0.118744
  6 O s       :     3.448443  s :     3.448443
      pz      :     1.511576  p :     4.771331
      px      :     1.551756
      py      :     1.707998
      dz2     :     0.021157  d :     0.058561
      dxz     :     0.007323
      dyz     :     0.007364
      dx2y2   :     0.009058
      dxy     :     0.013659
      f0      :     0.000882  f :     0.004892
      f+1     :     0.001000
      f-1     :     0.000729
      f+2     :     0.000391
      f-2     :     0.000427
      f+3     :     0.000410
      f-3     :     0.001054
  7 H s       :     0.664712  s :     0.664712
      pz      :     0.081518  p :     0.162281
      px      :     0.037709
      py      :     0.043054
  8 H s       :     0.666642  s :     0.666642
      pz      :     0.030503  p :     0.178872
      px      :     0.089040
      py      :     0.059329
  9 O s       :     3.454125  s :     3.454125
      pz      :     1.540381  p :     4.832686
      px      :     1.824021
      py      :     1.468284
      dz2     :     0.019352  d :     0.057106
      dxz     :     0.007205
      dyz     :     0.009093
      dx2y2   :     0.009575
      dxy     :     0.011880
      f0      :     0.000782  f :     0.004771
      f+1     :     0.000574
      f-1     :     0.001146
      f+2     :     0.000417
      f-2     :     0.000415
      f+3     :     0.000991
      f-3     :     0.000447
 10 H s       :     0.675215  s :     0.675215
      pz      :     0.032246  p :     0.188174
      px      :     0.054236
      py      :     0.101692
 11 H s       :     0.677120  s :     0.677120
      pz      :     0.093880  p :     0.176531
      px      :     0.044733
      py      :     0.037917
 12 O s       :     3.453826  s :     3.453826
      pz      :     1.550139  p :     4.765665
      px      :     1.448416
      py      :     1.767110
      dz2     :     0.019939  d :     0.058964
      dxz     :     0.008903
      dyz     :     0.007029
      dx2y2   :     0.010912
      dxy     :     0.012181
      f0      :     0.000761  f :     0.004831
      f+1     :     0.001146
      f-1     :     0.000598
      f+2     :     0.000413
      f-2     :     0.000415
      f+3     :     0.000456
      f-3     :     0.001042
 13 H s       :     0.667419  s :     0.667419
      pz      :     0.095341  p :     0.175841
      px      :     0.036437
      py      :     0.044063
 14 H s       :     0.663558  s :     0.663558
      pz      :     0.031844  p :     0.158133
      px      :     0.075448
      py      :     0.050842
 15 O s       :     3.442185  s :     3.442185
      pz      :     1.532063  p :     4.782498
      px      :     1.547381
      py      :     1.703054
      dz2     :     0.020331  d :     0.057742
      dxz     :     0.007239
      dyz     :     0.007321
      dx2y2   :     0.009104
      dxy     :     0.013749
      f0      :     0.000850  f :     0.004827
      f+1     :     0.000973
      f-1     :     0.000721
      f+2     :     0.000390
      f-2     :     0.000426
      f+3     :     0.000409
      f-3     :     0.001058
 16 H s       :     0.670108  s :     0.670108
      pz      :     0.093668  p :     0.175034
      px      :     0.038375
      py      :     0.042991
 17 H s       :     0.669905  s :     0.669905
      pz      :     0.031970  p :     0.179918
      px      :     0.088778
      py      :     0.059170
 18 O s       :     3.457656  s :     3.457656
      pz      :     1.531636  p :     4.837065
      px      :     1.778148
      py      :     1.527281
      dz2     :     0.019938  d :     0.057411
      dxz     :     0.007681
      dyz     :     0.007077
      dx2y2   :     0.007764
      dxy     :     0.014951
      f0      :     0.000855  f :     0.004837
      f+1     :     0.000703
      f-1     :     0.000977
      f+2     :     0.000390
      f-2     :     0.000420
      f+3     :     0.001115
      f-3     :     0.000376
 19 H s       :     0.673139  s :     0.673139
      pz      :     0.094319  p :     0.175237
      px      :     0.043383
      py      :     0.037535
 20 H s       :     0.688141  s :     0.688141
      pz      :     0.033305  p :     0.176087
      px      :     0.059550
      py      :     0.083232
 21 O s       :     3.457646  s :     3.457646
      pz      :     1.699865  p :     4.825858
      px      :     1.725869
      py      :     1.400124
      dz2     :     0.009867  d :     0.056468
      dxz     :     0.010950
      dyz     :     0.012246
      dx2y2   :     0.009454
      dxy     :     0.013952
      f0      :     0.000455  f :     0.004771
      f+1     :     0.000646
      f-1     :     0.000861
      f+2     :     0.000410
      f-2     :     0.001029
      f+3     :     0.000891
      f-3     :     0.000479
 22 H s       :     0.675189  s :     0.675189
      pz      :     0.067052  p :     0.168032
      px      :     0.054258
      py      :     0.046722
 23 H s       :     0.654742  s :     0.654742
      pz      :     0.034678  p :     0.200251
      px      :     0.048856
      py      :     0.116718


                      *****************************
                      * MAYER POPULATION ANALYSIS *
                      *****************************

  NA   - Mulliken gross atomic population
  ZA   - Total nuclear charge
  QA   - Mulliken gross atomic charge
  VA   - Mayer's total valence
  BVA  - Mayer's bonded valence
  FA   - Mayer's free valence

  ATOM       NA         ZA         QA         VA         BVA        FA
  0 O      8.7139     8.0000    -0.7139     2.1054     1.7198     0.3856
  1 H      0.6314     1.0000     0.3686     0.8843     0.8402     0.0442
  2 H      0.6297     1.0000     0.3703     0.8835     0.8365     0.0470
  3 O      8.7570     8.0000    -0.7570     2.0318     1.6408     0.3909
  4 H      0.6509     1.0000     0.3491     0.8995     0.8530     0.0465
  5 H      0.6158     1.0000     0.3842     0.9066     0.8622     0.0444
  6 O      8.7107     8.0000    -0.7107     2.0861     1.7031     0.3830
  7 H      0.6413     1.0000     0.3587     0.8906     0.8446     0.0460
  8 H      0.6197     1.0000     0.3803     0.9078     0.8648     0.0431
  9 O      8.7445     8.0000    -0.7445     2.0322     1.6424     0.3898
 10 H      0.6578     1.0000     0.3422     0.9353     0.8877     0.0475
 11 H      0.6339     1.0000     0.3661     0.9105     0.8661     0.0444
 12 O      8.7248     8.0000    -0.7248     2.0928     1.7056     0.3872
 13 H      0.6118     1.0000     0.3882     0.8916     0.8493     0.0423
 14 H      0.6406     1.0000     0.3594     0.8948     0.8475     0.0474
 15 O      8.7247     8.0000    -0.7247     2.0792     1.6940     0.3852
 16 H      0.6157     1.0000     0.3843     0.8838     0.8404     0.0434
 17 H      0.6302     1.0000     0.3698     0.9185     0.8745     0.0440
 18 O      8.7259     8.0000    -0.7259     2.0573     1.6724     0.3849
 19 H      0.6267     1.0000     0.3733     0.9019     0.8581     0.0438
 20 H      0.6676     1.0000     0.3324     0.9290     0.8817     0.0473
 21 O      8.7490     8.0000    -0.7490     2.0282     1.6389     0.3892
 22 H      0.6565     1.0000     0.3435     0.9027     0.8561     0.0467
 23 H      0.6199     1.0000     0.3801     0.9086     0.8642     0.0444

  Mayer bond orders larger than 0.100000
B(  0-O ,  1-H ) :   0.8296 B(  0-O ,  2-H ) :   0.8209 B(  3-O ,  4-H ) :   0.8411 
B(  3-O ,  5-H ) :   0.7271 B(  5-H , 15-O ) :   0.1227 B(  6-O ,  7-H ) :   0.8356 
B(  6-O ,  8-H ) :   0.7865 B(  6-O , 23-H ) :   0.1116 B(  9-O , 10-H ) :   0.7972 
B(  9-O , 11-H ) :   0.8141 B( 12-O , 13-H ) :   0.7948 B( 12-O , 14-H ) :   0.8279 
B( 15-O , 16-H ) :   0.8080 B( 15-O , 17-H ) :   0.7904 B( 18-O , 19-H ) :   0.8135 
B( 18-O , 20-H ) :   0.8466 B( 21-O , 22-H ) :   0.8472 B( 21-O , 23-H ) :   0.7467 



----------------------------------
MP2 DERIVATIVE INTEGRAL GENERATION
----------------------------------


Input Wavefunction Amplitudes       ... 12h2o.su.etal.mol0,2,3,5,6,8,9,10-orca.engrad-mp2.def2tzvp.frozencore.mp2tsaa.tmp
Input Correlated Electron Density   ... 12h2o.su.etal.mol0,2,3,5,6,8,9,10-orca.engrad-mp2.def2tzvp.frozencore.pmp2re
Input Energy Weighted Density       ... 12h2o.su.etal.mol0,2,3,5,6,8,9,10-orca.engrad-mp2.def2tzvp.frozencore.wmp2.tmp
Input SCF Electron Density          ... 12h2o.su.etal.mol0,2,3,5,6,8,9,10-orca.engrad-mp2.def2tzvp.frozencore.scfp

One-Electron Terms    ...
                        ... One-Electron Terms done
Prescreening matrices              ... done

Batch handling in the gradient evaluation:
Memory available                      ... 8000.0 MB
Memory per occupied orbital in Q2     ...   28.9 MB
Memory per occupied orbital in Q3     ...    0.1 MB
Total memory requirement per |i>      ...   29.0 MB
Max. Number of orbitals possible      ...    275
Number of orbitals treated per batch  ...     32
Number of batches to be done          ...      1
Batch   0: i=    8 ...    39

---------------------------------------
MP2 TOTAL ENERGY:     -610.592559263 Eh
---------------------------------------

The final MP2 gradient
  0:   0.02479227  -0.01281426   0.00269096
  1:  -0.00016596  -0.00218925  -0.00322513
  2:  -0.02557909   0.01019558  -0.00143682
  3:   0.00257439  -0.00209337   0.00205570
  4:  -0.00086867   0.00010552   0.00118422
  5:  -0.00070368   0.00269190   0.00117838
  6:   0.00320222   0.00077030  -0.00886465
  7:  -0.00159777   0.00125205   0.00710546
  8:  -0.00344755   0.00312190  -0.00098765
  9:  -0.00493845  -0.00552350   0.00168716
 10:   0.00462903   0.01225969   0.00154031
 11:   0.00203283  -0.00219874  -0.00298685
 12:   0.01519274  -0.01214751  -0.00150068
 13:  -0.00004332   0.00099567  -0.00070999
 14:  -0.01461542   0.00577398   0.00269719
 15:  -0.00083066   0.00108058  -0.00261226
 16:  -0.00068557  -0.00032769   0.00223958
 17:   0.00270073  -0.00273856   0.00027427
 18:  -0.00525167  -0.00660118  -0.00176950
 19:   0.00349961  -0.00133475  -0.00078954
 20:   0.00346801   0.01154441   0.00174477
 21:  -0.00293817   0.00637678  -0.00034737
 22:   0.00048892   0.00038443  -0.00000915
 23:  -0.00091478  -0.00858399   0.00084159

-----------------------------------
NORM OF THE MP2 GRADIENT:  0.055067
-----------------------------------

-------------------------   --------------------
FINAL SINGLE POINT ENERGY      -610.592559263437
-------------------------   --------------------


                            ***************************************
                            *     ORCA property calculations      *
                            ***************************************

                                    ---------------------
                                    Active property flags
                                    ---------------------
   (+) Dipole Moment


------------------------------------------------------------------------------
                       ORCA ELECTRIC PROPERTIES CALCULATION
------------------------------------------------------------------------------

Dipole Moment Calculation                       ... on
Quadrupole Moment Calculation                   ... off
Polarizability Calculation                      ... off
GBWName                                         ... 12h2o.su.etal.mol0,2,3,5,6,8,9,10-orca.engrad-mp2.def2tzvp.frozencore.gbw
Electron density file                           ... 12h2o.su.etal.mol0,2,3,5,6,8,9,10-orca.engrad-mp2.def2tzvp.frozencore.scfp
The origin for moment calculation is the CENTER OF MASS  = ( 1.222791, -0.364656 -1.337225)

-------------
DIPOLE MOMENT
-------------
                                X             Y             Z
Electronic contribution:      0.10720       0.03595      -0.01512
Nuclear contribution   :      0.25623       2.04245       0.05351
                        -----------------------------------------
Total Dipole Moment    :      0.36342       2.07841       0.03839
                        -----------------------------------------
Magnitude (a.u.)       :      2.11029
Magnitude (Debye)      :      5.36393



--------------------
Rotational spectrum 
--------------------
 
Rotational constants in cm-1:     0.039385     0.016571     0.014806 
Rotational constants in MHz :  1180.726304   496.794741   443.861697 

 Dipole components along the rotational axes: 
x,y,z [a.u.] :    -0.041436    -2.104089    -0.156277 
x,y,z [Debye]:    -0.105323    -5.348168    -0.397225 

 

                         *** MP2 UNRELAXED DENSITY ***

------------------------------------------------------------------------------
                       ORCA ELECTRIC PROPERTIES CALCULATION
------------------------------------------------------------------------------

Dipole Moment Calculation                       ... on
Quadrupole Moment Calculation                   ... off
Polarizability Calculation                      ... off
GBWName                                         ... 12h2o.su.etal.mol0,2,3,5,6,8,9,10-orca.engrad-mp2.def2tzvp.frozencore.gbw
Electron density file                           ... 12h2o.su.etal.mol0,2,3,5,6,8,9,10-orca.engrad-mp2.def2tzvp.frozencore.pmp2ur
The origin for moment calculation is the CENTER OF MASS  = ( 1.222791, -0.364656 -1.337225)

-------------
DIPOLE MOMENT
-------------
                                X             Y             Z
Electronic contribution:      0.10587       0.01817      -0.01571
Nuclear contribution   :      0.25623       2.04245       0.05351
                        -----------------------------------------
Total Dipole Moment    :      0.36210       2.06063       0.03781
                        -----------------------------------------
Magnitude (a.u.)       :      2.09254
Magnitude (Debye)      :      5.31881



--------------------
Rotational spectrum 
--------------------
 
Rotational constants in cm-1:     0.039385     0.016571     0.014806 
Rotational constants in MHz :  1180.726304   496.794741   443.861697 

 Dipole components along the rotational axes: 
x,y,z [a.u.] :    -0.040805    -2.086525    -0.153211 
x,y,z [Debye]:    -0.103719    -5.303525    -0.389430 

 

                           *** MP2 RELAXED DENSITY ***

------------------------------------------------------------------------------
                       ORCA ELECTRIC PROPERTIES CALCULATION
------------------------------------------------------------------------------

Dipole Moment Calculation                       ... on
Quadrupole Moment Calculation                   ... off
Polarizability Calculation                      ... off
GBWName                                         ... 12h2o.su.etal.mol0,2,3,5,6,8,9,10-orca.engrad-mp2.def2tzvp.frozencore.gbw
Electron density file                           ... 12h2o.su.etal.mol0,2,3,5,6,8,9,10-orca.engrad-mp2.def2tzvp.frozencore.pmp2re
The origin for moment calculation is the CENTER OF MASS  = ( 1.222791, -0.364656 -1.337225)

-------------
DIPOLE MOMENT
-------------
                                X             Y             Z
Electronic contribution:      0.09276       0.01558      -0.01512
Nuclear contribution   :      0.25623       2.04245       0.05351
                        -----------------------------------------
Total Dipole Moment    :      0.34898       2.05804       0.03839
                        -----------------------------------------
Magnitude (a.u.)       :      2.08777
Magnitude (Debye)      :      5.30668



--------------------
Rotational spectrum 
--------------------
 
Rotational constants in cm-1:     0.039385     0.016571     0.014806 
Rotational constants in MHz :  1180.726304   496.794741   443.861697 

 Dipole components along the rotational axes: 
x,y,z [a.u.] :    -0.043810    -2.080782    -0.164920 
x,y,z [Debye]:    -0.111355    -5.288928    -0.419193 

 

Timings for individual modules:

Sum of individual times         ...      184.781 sec (=   3.080 min)
GTO integral calculation        ...        1.038 sec (=   0.017 min)   0.6 %
SCF iterations                  ...       28.341 sec (=   0.472 min)  15.3 %
MP2 module                      ...      155.402 sec (=   2.590 min)  84.1 %
                             ****ORCA TERMINATED NORMALLY****
TOTAL RUN TIME: 0 days 0 hours 3 minutes 5 seconds 763 msec
