
                                 *****************
                                 * O   R   C   A *
                                 *****************

           --- An Ab Initio, DFT and Semiempirical electronic structure package ---

                  #######################################################
                  #                        -***-                        #
                  #          Department of theory and spectroscopy      #
                  #               Directorship: Frank Neese             #
                  #        Max Planck Institute fuer Kohlenforschung    #
                  #                Kaiser Wilhelm Platz 1               #
                  #                 D-45470 Muelheim/Ruhr               #
                  #                      Germany                        #
                  #                                                     #
                  #                  All rights reserved                #
                  #                        -***-                        #
                  #######################################################


                         Program Version 4.2.0 -  RELEASE  -


 With contributions from (in alphabetic order):
   Daniel Aravena         : Magnetic Suceptibility
   Michael Atanasov       : Ab Initio Ligand Field Theory (pilot matlab implementation)
   Alexander A. Auer      : GIAO ZORA, VPT2
   Ute Becker             : Parallelization
   Giovanni Bistoni       : ED, misc. LED, open-shell LED, HFLED
   Martin Brehm           : Molecular dynamics
   Dmytro Bykov           : SCF Hessian
   Vijay G. Chilkuri      : MRCI spin determinant printing, contributions to CSF-ICE
   Dipayan Datta          : RHF DLPNO-CCSD density
   Achintya Kumar Dutta   : EOM-CC, STEOM-CC
   Dmitry Ganyushin       : Spin-Orbit,Spin-Spin,Magnetic field MRCI
   Miquel Garcia          : C-PCM Hessian, Gaussian charge scheme
   Yang Guo               : DLPNO-NEVPT2, CIM, IAO-localization
   Andreas Hansen         : Spin unrestricted coupled pair/coupled cluster methods
   Benjamin Helmich-Paris : CASSCF linear response (MC-RPA)
   Lee Huntington         : MR-EOM, pCC
   Robert Izsak           : Overlap fitted RIJCOSX, COSX-SCS-MP3, EOM
   Christian Kollmar      : KDIIS, OOCD, Brueckner-CCSD(T), CCSD density
   Simone Kossmann        : Meta GGA functionals, TD-DFT gradient, OOMP2, MP2 Hessian
   Martin Krupicka        : AUTO-CI
   Lucas Lang             : DCDCAS
   Dagmar Lenk            : GEPOL surface, SMD
   Dimitrios Liakos       : Extrapolation schemes; Compound Job, initial MDCI parallelization
   Dimitrios Manganas     : Further ROCIS development; embedding schemes
   Dimitrios Pantazis     : SARC Basis sets
   Taras Petrenko         : DFT Hessian,TD-DFT gradient, ASA, ECA, R-Raman, ABS, FL, XAS/XES, NRVS
   Peter Pinski           : DLPNO-MP2, DLPNO-MP2 Gradient
   Christoph Reimann      : Effective Core Potentials
   Marius Retegan         : Local ZFS, SOC
   Christoph Riplinger    : Optimizer, TS searches, QM/MM, DLPNO-CCSD(T), (RO)-DLPNO pert. Triples
   Tobias Risthaus        : Range-separated hybrids, TD-DFT gradient, RPA, STAB
   Michael Roemelt        : Original ROCIS implementation
   Masaaki Saitow         : Open-shell DLPNO-CCSD energy and density
   Barbara Sandhoefer     : DKH picture change effects
   Avijit Sen             : IP-ROCIS
   Kantharuban Sivalingam : CASSCF convergence, NEVPT2, FIC-MRCI
   Bernardo de Souza      : ESD, SOC TD-DFT
   Georgi Stoychev        : AutoAux, RI-MP2 NMR
   Willem Van den Heuvel  : Paramagnetic NMR
   Boris Wezisla          : Elementary symmetry handling
   Frank Wennmohs         : Technical directorship


 We gratefully acknowledge several colleagues who have allowed us to
 interface, adapt or use parts of their codes:
   Stefan Grimme, W. Hujo, H. Kruse,             : VdW corrections, initial TS optimization,
                  C. Bannwarth                     DFT functionals, gCP, sTDA/sTD-DF
   Ed Valeev, F. Pavosevic, A. Kumar             : LibInt (2-el integral package), F12 methods
   Garnet Chan, S. Sharma, J. Yang, R. Olivares  : DMRG
   Ulf Ekstrom                                   : XCFun DFT Library
   Mihaly Kallay                                 : mrcc  (arbitrary order and MRCC methods)
   Andreas Klamt, Michael Diedenhofen            : otool_cosmo (COSMO solvation model)
   Jiri Pittner, Ondrej Demel                    : Mk-CCSD
   Frank Weinhold                                : gennbo (NPA and NBO analysis)
   Christopher J. Cramer and Donald G. Truhlar   : smd solvation model
   Lars Goerigk                                  : TD-DFT with DH, B97 family of functionals
   V. Asgeirsson, H. Jonsson                     : NEB implementation
   FAccTs GmbH                                   : IRC, NEB, NEB-TS, Multilevel, MM, QM/MM, CI optimization
   S Lehtola, MJT Oliveira, MAL Marques          : LibXC Library


 Your calculation uses the libint2 library for the computation of 2-el integrals
 For citations please refer to: http://libint.valeyev.net

 Your ORCA version has been built with support for libXC version: 4.2.3
 For citations please refer to: https://tddft.org/programs/libxc/

 This ORCA versions uses:
   CBLAS   interface :  Fast vector & matrix operations
   LAPACKE interface :  Fast linear algebra routines
   SCALAPACK package :  Parallel linear algebra routines


----- Orbital basis set information -----
Your calculation utilizes the basis: def2-TZVP
   F. Weigend and R. Ahlrichs, Phys. Chem. Chem. Phys. 7, 3297 (2005).

================================================================================
                                        WARNINGS
                       Please study these warnings very carefully!
================================================================================


WARNING: The frozen-core approximation for MP2-gradient calculations is turned on by default.

INFO   : the flag for use of LIBINT has been found!

================================================================================
                                       INPUT FILE
================================================================================
NAME = 12meoh.boyd.etal.mol2,9,10-orca.engrad-mp2.def2tzvp.frozencore.inp
|  1> # 12meoh.boyd.etal.mol2,9,10
|  2> ! MP2 def2-TZVP EnGrad TightSCF
|  3> 
|  4> %pal
|  5>     nprocs 6
|  6> end
|  7> 
|  8> %maxcore 8000
|  9> 
| 10> %scf
| 11>     ConvForced true
| 12> end
| 13> 
| 14> *xyz 0 1
| 15> O  -3.839777402   2.233595098   0.660436763
| 16> H  -2.958345897   1.907036203   0.973588449
| 17> C  -3.600368059   3.168790682  -0.390480452
| 18> H  -4.551709193   3.344148967  -0.901254863
| 19> H  -2.868237594   2.789240199  -1.113617525
| 20> H  -3.243594915   4.128998607   0.009549480
| 21> O   1.390610024   3.194080770  -1.536658882
| 22> H   2.162932299   2.881562730  -0.993525056
| 23> C   1.202977189   4.580367182  -1.302880219
| 24> H   0.374773115   4.915764831  -1.934164643
| 25> H   2.098649340   5.157710875  -1.570472348
| 26> H   0.950320401   4.800436015  -0.254328827
| 27> O  -5.201143618   0.064582726  -0.172223772
| 28> H  -4.686891530   0.869258890   0.107806143
| 29> C  -6.513192168   0.171391798   0.359883449
| 30> H  -7.049381312  -0.749234190   0.111361174
| 31> H  -7.057741163   1.017801101  -0.081819420
| 32> H  -6.514770575   0.292264928   1.453058834
| 33> *
| 34> 
| 35>                          ****END OF INPUT****
================================================================================

                     *******************************
                     * Energy+Gradient Calculation *
                     *******************************

---------------------------------
CARTESIAN COORDINATES (ANGSTROEM)
---------------------------------
  O     -3.839777    2.233595    0.660437
  H     -2.958346    1.907036    0.973588
  C     -3.600368    3.168791   -0.390480
  H     -4.551709    3.344149   -0.901255
  H     -2.868238    2.789240   -1.113618
  H     -3.243595    4.128999    0.009549
  O      1.390610    3.194081   -1.536659
  H      2.162932    2.881563   -0.993525
  C      1.202977    4.580367   -1.302880
  H      0.374773    4.915765   -1.934165
  H      2.098649    5.157711   -1.570472
  H      0.950320    4.800436   -0.254329
  O     -5.201144    0.064583   -0.172224
  H     -4.686892    0.869259    0.107806
  C     -6.513192    0.171392    0.359883
  H     -7.049381   -0.749234    0.111361
  H     -7.057741    1.017801   -0.081819
  H     -6.514771    0.292265    1.453059

----------------------------
CARTESIAN COORDINATES (A.U.)
----------------------------
  NO LB      ZA    FRAG     MASS         X           Y           Z
   0 O     8.0000    0    15.999   -7.256128    4.220883    1.248045
   1 H     1.0000    0     1.008   -5.590464    3.603776    1.839816
   2 C     6.0000    0    12.011   -6.803710    5.988147   -0.737901
   3 H     1.0000    0     1.008   -8.601484    6.319526   -1.703125
   4 H     1.0000    0     1.008   -5.420184    5.270900   -2.104432
   5 H     1.0000    0     1.008   -6.129506    7.802677    0.018046
   6 O     8.0000    0    15.999    2.627872    6.035938   -2.903864
   7 H     1.0000    0     1.008    4.087350    5.445364   -1.877490
   8 C     6.0000    0    12.011    2.273297    8.655640   -2.462087
   9 H     1.0000    0     1.008    0.708219    9.289449   -3.655041
  10 H     1.0000    0     1.008    3.965873    9.746661   -2.967763
  11 H     1.0000    0     1.008    1.795845    9.071509   -0.480612
  12 O     8.0000    0    15.999   -9.828737    0.122044   -0.325456
  13 H     1.0000    0     1.008   -8.856941    1.642661    0.203724
  14 C     6.0000    0    12.011  -12.308149    0.323884    0.680081
  15 H     1.0000    0     1.008  -13.321400   -1.415847    0.210442
  16 H     1.0000    0     1.008  -13.337198    1.923365   -0.154616
  17 H     1.0000    0     1.008  -12.311132    0.552301    2.745883

--------------------------------
INTERNAL COORDINATES (ANGSTROEM)
--------------------------------
 O      0   0   0     0.000000000000     0.00000000     0.00000000
 H      1   0   0     0.990770502364     0.00000000     0.00000000
 C      1   2   0     1.427001964481   107.42874151     0.00000000
 H      3   1   2     1.093933718418   107.63861717   166.29117132
 H      3   1   2     1.096813937399   111.76190604    46.44530864
 H      3   1   2     1.099686447133   111.02456630   284.51887035
 O      5   3   1     4.298911828708   133.91396752   266.29341196
 H      7   5   3     0.994556974101   133.31270161    66.53197214
 C      7   5   3     1.418325971045    86.83374418   313.69561095
 H      9   7   5     1.094044603812   107.73887728   312.90894391
 H      9   7   5     1.098708282224   111.44548874   194.12317098
 H      9   7   5     1.100784159336   112.50562595    72.25410891
 O      1   2   3     2.692815665897   106.38015486   120.85349010
 H     13   1   2     0.995176211641     1.72770964   270.52937889
 C     13   1   2     1.419865370399   106.89941329   134.76602729
 H     15  13   1     1.093990095520   107.72610853   185.39042730
 H     15  13   1     1.099110431505   111.41668057    66.74454963
 H     15  13   1     1.099838727857   112.46269835   304.92404720

---------------------------
INTERNAL COORDINATES (A.U.)
---------------------------
 O      0   0   0     0.000000000000     0.00000000     0.00000000
 H      1   0   0     1.872284911036     0.00000000     0.00000000
 C      1   2   0     2.696642905436   107.42874151     0.00000000
 H      3   1   2     2.067235136471   107.63861717   166.29117132
 H      3   1   2     2.072677961553   111.76190604    46.44530864
 H      3   1   2     2.078106218267   111.02456630   284.51887035
 O      5   3   1     8.123766030132   133.91396752   266.29341196
 H      7   5   3     1.879440305631   133.31270161    66.53197214
 C      7   5   3     2.680247653903    86.83374418   313.69561095
 H      9   7   5     2.067444679499   107.73887728   312.90894391
 H      9   7   5     2.076257754474   111.44548874   194.12317098
 H      9   7   5     2.080180593704   112.50562595    72.25410891
 O      1   2   3     5.088684137679   106.38015486   120.85349010
 H     13   1   2     1.880610494996     1.72770964   270.52937889
 C     13   1   2     2.683156697093   106.89941329   134.76602729
 H     15  13   1     2.067341673755   107.72610853   185.39042730
 H     15  13   1     2.077017706481   111.41668057    66.74454963
 H     15  13   1     2.078393987130   112.46269835   304.92404720

---------------------
BASIS SET INFORMATION
---------------------
There are 3 groups of distinct atoms

 Group   1 Type O   : 11s6p2d1f contracted to 5s3p2d1f pattern {62111/411/11/1}
 Group   2 Type H   : 5s1p contracted to 3s1p pattern {311/1}
 Group   3 Type C   : 11s6p2d1f contracted to 5s3p2d1f pattern {62111/411/11/1}

Atom   0O    basis set group =>   1
Atom   1H    basis set group =>   2
Atom   2C    basis set group =>   3
Atom   3H    basis set group =>   2
Atom   4H    basis set group =>   2
Atom   5H    basis set group =>   2
Atom   6O    basis set group =>   1
Atom   7H    basis set group =>   2
Atom   8C    basis set group =>   3
Atom   9H    basis set group =>   2
Atom  10H    basis set group =>   2
Atom  11H    basis set group =>   2
Atom  12O    basis set group =>   1
Atom  13H    basis set group =>   2
Atom  14C    basis set group =>   3
Atom  15H    basis set group =>   2
Atom  16H    basis set group =>   2
Atom  17H    basis set group =>   2


           ************************************************************
           *        Program running with 6 parallel MPI-processes     *
           *              working on a common directory               *
           ************************************************************
------------------------------------------------------------------------------
                           ORCA GTO INTEGRAL CALCULATION
------------------------------------------------------------------------------

                         BASIS SET STATISTICS AND STARTUP INFO

 # of primitive gaussian shells          ...  192
 # of primitive gaussian functions       ...  372
 # of contracted shells                  ...  114
 # of contracted basis functions         ...  258
 Highest angular momentum                ...    3
 Maximum contraction depth               ...    6
 Integral package used                   ... LIBINT
 Integral threshhold            Thresh   ...  2.500e-11
 Primitive cut-off              TCut     ...  2.500e-12


------------------------------ INTEGRAL EVALUATION ----------------------------


 * One electron integrals 
 Pre-screening matrix                    ... done
 Shell pair data                         ... done (   0.001 sec)



           ************************************************************
           *        Program running with 6 parallel MPI-processes     *
           *              working on a common directory               *
           ************************************************************
-------------------------------------------------------------------------------
                                 ORCA SCF
-------------------------------------------------------------------------------

------------
SCF SETTINGS
------------
Hamiltonian:
 Ab initio Hamiltonian  Method          .... Hartree-Fock(GTOs)


General Settings:
 Integral files         IntName         .... 12meoh.boyd.etal.mol2,9,10-orca.engrad-mp2.def2tzvp.frozencore
 Hartree-Fock type      HFTyp           .... RHF
 Total Charge           Charge          ....    0
 Multiplicity           Mult            ....    1
 Number of Electrons    NEL             ....   54
 Basis Dimension        Dim             ....  258
 Nuclear Repulsion      ENuc            ....    223.2396671707 Eh

Convergence Acceleration:
 DIIS                   CNVDIIS         .... on
   Start iteration      DIISMaxIt       ....    12
   Startup error        DIISStart       ....  0.200000
   # of expansion vecs  DIISMaxEq       ....     5
   Bias factor          DIISBfac        ....   1.050
   Max. coefficient     DIISMaxC        ....  10.000
 Newton-Raphson         CNVNR           .... off
 SOSCF                  CNVSOSCF        .... on
   Start iteration      SOSCFMaxIt      ....   150
   Startup grad/error   SOSCFStart      ....  0.003300
 Level Shifting         CNVShift        .... on
   Level shift para.    LevelShift      ....    0.2500
   Turn off err/grad.   ShiftErr        ....    0.0010
 Zerner damping         CNVZerner       .... off
 Static damping         CNVDamp         .... on
   Fraction old density DampFac         ....    0.7000
   Max. Damping (<1)    DampMax         ....    0.9800
   Min. Damping (>=0)   DampMin         ....    0.0000
   Turn off err/grad.   DampErr         ....    0.1000
 Fernandez-Rico         CNVRico         .... off

SCF Procedure:
 Maximum # iterations   MaxIter         ....   125
 SCF integral mode      SCFMode         .... Direct
   Integral package                     .... LIBINT
 Reset frequency        DirectResetFreq ....    20
 Integral Threshold     Thresh          ....  2.500e-11 Eh
 Primitive CutOff       TCut            ....  2.500e-12 Eh

Convergence Tolerance:
 Convergence Check Mode ConvCheckMode   .... Total+1el-Energy
 Convergence forced     ConvForced      .... 1
 Energy Change          TolE            ....  1.000e-08 Eh
 1-El. energy change                    ....  1.000e-05 Eh
 Orbital Gradient       TolG            ....  1.000e-05
 Orbital Rotation angle TolX            ....  1.000e-05
 DIIS Error             TolErr          ....  5.000e-07


Diagonalization of the overlap matrix:
Smallest eigenvalue                        ... 1.523e-03
Time for diagonalization                   ...    0.010 sec
Threshold for overlap eigenvalues          ... 1.000e-08
Number of eigenvalues below threshold      ... 0
Time for construction of square roots      ...    0.005 sec
Total time needed                          ...    0.015 sec

-------------------
DFT GRID GENERATION
-------------------

General Integration Accuracy     IntAcc      ...  4.340
Radial Grid Type                 RadialGrid  ... Gauss-Chebyshev
Angular Grid (max. acc.)         AngularGrid ... Lebedev-110
Angular grid pruning method      GridPruning ... 3 (G Style)
Weight generation scheme         WeightScheme... Becke
Basis function cutoff            BFCut       ...    1.0000e-11
Integration weight cutoff        WCut        ...    1.0000e-14
Grids for H and He will be reduced by one unit

# of grid points (after initial pruning)     ...  19644 (   0.0 sec)
# of grid points (after weights+screening)   ...  18637 (   0.0 sec)
nearest neighbour list constructed           ...    0.0 sec
Grid point re-assignment to atoms done       ...    0.0 sec
Grid point division into batches done        ...    0.0 sec
Reduced shell lists constructed in    0.0 sec

Total number of grid points                  ...    18637
Total number of batches                      ...      301
Average number of points per batch           ...       61
Average number of grid points per atom       ...     1035
Average number of shells per batch           ...    66.06 (57.95%)
Average number of basis functions per batch  ...   142.25 (55.14%)
Average number of large shells per batch     ...    49.50 (74.93%)
Average number of large basis fcns per batch ...   107.23 (75.38%)
Maximum spatial batch extension              ...  11.97, 16.70, 14.51 au
Average spatial batch extension              ...   0.47,  0.55,  0.53 au

Time for grid setup =    0.055 sec

------------------------------
INITIAL GUESS: MODEL POTENTIAL
------------------------------
Loading Hartree-Fock densities                     ... done
Calculating cut-offs                               ... done
Setting up the integral package                    ... done
Initializing the effective Hamiltonian             ... done
Starting the Coulomb interaction                   ... done (   0.0 sec)
Reading the grid                                   ... done
Mapping shells                                     ... done
Starting the XC term evaluation                    ... done (   0.0 sec)
Transforming the Hamiltonian                       ... done (   0.0 sec)
Diagonalizing the Hamiltonian                      ... done (   0.0 sec)
Back transforming the eigenvectors                 ... done (   0.0 sec)
Now organizing SCF variables                       ... done
                      ------------------
                      INITIAL GUESS DONE (   0.2 sec)
                      ------------------
--------------
SCF ITERATIONS
--------------
ITER       Energy         Delta-E        Max-DP      RMS-DP      [F,P]     Damp
               ***  Starting incremental Fock matrix formation  ***
  0   -344.9265528439   0.000000000000 0.03677353  0.00076806  0.2924184 0.7000
  1   -345.0515198162  -0.124966972328 0.02497454  0.00057432  0.2186757 0.7000
                               ***Turning on DIIS***
  2   -345.1243594194  -0.072839603152 0.01453088  0.00035786  0.1627994 0.7000
  3   -345.9915741562  -0.867214736848 0.00784388  0.00020212  0.1199708 0.7000
  4   -345.8440554690   0.147518687244 0.01687879  0.00048420  0.0845912 0.0000
  5   -345.3016586795   0.542396789459 0.00203336  0.00006531  0.0060330 0.0000
                      *** Initiating the SOSCF procedure ***
                           *** Shutting down DIIS ***
                      *** Re-Reading the Fockian *** 
                      *** Removing any level shift *** 
ITER      Energy       Delta-E        Grad      Rot      Max-DP    RMS-DP
  6   -345.27881303   0.0228456463  0.000653  0.000653  0.001143  0.000034
               *** Restarting incremental Fock matrix formation ***
  7   -345.27339483   0.0054182079  0.000372  0.000294  0.000679  0.000019
  8   -345.27340191  -0.0000070835  0.000181  0.000210  0.000491  0.000013
  9   -345.27340363  -0.0000017208  0.000033  0.000027  0.000074  0.000002
 10   -345.27340369  -0.0000000586  0.000005  0.000009  0.000019  0.000001
                  ***Gradient check signals convergence***
              ***Rediagonalizing the Fockian in SOSCF/NRSCF***

               *****************************************************
               *                     SUCCESS                       *
               *           SCF CONVERGED AFTER  11 CYCLES          *
               *****************************************************


----------------
TOTAL SCF ENERGY
----------------

Total Energy       :         -345.27340369 Eh           -9395.36697 eV

Components:
Nuclear Repulsion  :          223.23966717 Eh            6074.66017 eV
Electronic Energy  :         -568.51307086 Eh          -15470.02714 eV
One Electron Energy:         -915.39313794 Eh          -24909.11364 eV
Two Electron Energy:          346.88006708 Eh            9439.08650 eV

Virial components:
Potential Energy   :         -689.95929063 Eh          -18774.74679 eV
Kinetic Energy     :          344.68588694 Eh            9379.37982 eV
Virial Ratio       :            2.00170450


---------------
SCF CONVERGENCE
---------------

  Last Energy change         ...   -5.0087e-09  Tolerance :   1.0000e-08
  Last MAX-Density change    ...    5.6390e-06  Tolerance :   1.0000e-07
  Last RMS-Density change    ...    1.6384e-07  Tolerance :   5.0000e-09
  Last Orbital Gradient      ...    2.0209e-06  Tolerance :   1.0000e-05
  Last Orbital Rotation      ...    3.9737e-06  Tolerance :   1.0000e-05

             **** THE GBW FILE WAS UPDATED (12meoh.boyd.etal.mol2,9,10-orca.engrad-mp2.def2tzvp.frozencore.gbw) ****
             **** DENSITY FILE WAS UPDATED (12meoh.boyd.etal.mol2,9,10-orca.engrad-mp2.def2tzvp.frozencore.scfp) ****
             **** ENERGY FILE WAS UPDATED (12meoh.boyd.etal.mol2,9,10-orca.engrad-mp2.def2tzvp.frozencore.en.tmp) ****
             **** THE GBW FILE WAS UPDATED (12meoh.boyd.etal.mol2,9,10-orca.engrad-mp2.def2tzvp.frozencore.gbw) ****
             **** DENSITY FILE WAS UPDATED (12meoh.boyd.etal.mol2,9,10-orca.engrad-mp2.def2tzvp.frozencore.scfp) ****
----------------
ORBITAL ENERGIES
----------------

  NO   OCC          E(Eh)            E(eV) 
   0   2.0000     -20.587171      -560.2054 
   1   2.0000     -20.565927      -559.6273 
   2   2.0000     -20.511790      -558.1542 
   3   2.0000     -11.287362      -307.1447 
   4   2.0000     -11.279901      -306.9417 
   5   2.0000     -11.246057      -306.0208 
   6   2.0000      -1.380824       -37.5741 
   7   2.0000      -1.356631       -36.9158 
   8   2.0000      -1.309385       -35.6302 
   9   2.0000      -0.939238       -25.5580 
  10   2.0000      -0.927902       -25.2495 
  11   2.0000      -0.892489       -24.2859 
  12   2.0000      -0.712546       -19.3894 
  13   2.0000      -0.691199       -18.8085 
  14   2.0000      -0.672065       -18.2878 
  15   2.0000      -0.630544       -17.1580 
  16   2.0000      -0.625576       -17.0228 
  17   2.0000      -0.607098       -16.5200 
  18   2.0000      -0.600773       -16.3479 
  19   2.0000      -0.587656       -15.9909 
  20   2.0000      -0.559684       -15.2298 
  21   2.0000      -0.526564       -14.3285 
  22   2.0000      -0.507706       -13.8154 
  23   2.0000      -0.486531       -13.2392 
  24   2.0000      -0.457020       -12.4361 
  25   2.0000      -0.452890       -12.3238 
  26   2.0000      -0.413997       -11.2654 
  27   0.0000       0.111978         3.0471 
  28   0.0000       0.134068         3.6482 
  29   0.0000       0.153480         4.1764 
  30   0.0000       0.168004         4.5716 
  31   0.0000       0.180022         4.8986 
  32   0.0000       0.201172         5.4742 
  33   0.0000       0.215313         5.8590 
  34   0.0000       0.227928         6.2022 
  35   0.0000       0.233925         6.3654 
  36   0.0000       0.241858         6.5813 
  37   0.0000       0.246085         6.6963 
  38   0.0000       0.250705         6.8220 
  39   0.0000       0.252604         6.8737 
  40   0.0000       0.271645         7.3918 
  41   0.0000       0.294127         8.0036 
  42   0.0000       0.321966         8.7611 
  43   0.0000       0.327021         8.8987 
  44   0.0000       0.356609         9.7038 
  45   0.0000       0.359595         9.7851 
  46   0.0000       0.390161        10.6168 
  47   0.0000       0.427202        11.6248 
  48   0.0000       0.445285        12.1168 
  49   0.0000       0.462441        12.5836 
  50   0.0000       0.486882        13.2487 
  51   0.0000       0.509916        13.8755 
  52   0.0000       0.520728        14.1697 
  53   0.0000       0.556991        15.1565 
  54   0.0000       0.566954        15.4276 
  55   0.0000       0.579315        15.7640 
  56   0.0000       0.587705        15.9923 
  57   0.0000       0.596979        16.2446 
  58   0.0000       0.608869        16.5682 
  59   0.0000       0.634249        17.2588 
  60   0.0000       0.634597        17.2683 
  61   0.0000       0.642359        17.4795 
  62   0.0000       0.657567        17.8933 
  63   0.0000       0.663594        18.0573 
  64   0.0000       0.669846        18.2274 
  65   0.0000       0.678231        18.4556 
  66   0.0000       0.686339        18.6762 
  67   0.0000       0.691978        18.8297 
  68   0.0000       0.707776        19.2596 
  69   0.0000       0.719599        19.5813 
  70   0.0000       0.758807        20.6482 
  71   0.0000       0.766356        20.8536 
  72   0.0000       0.784839        21.3566 
  73   0.0000       0.813131        22.1264 
  74   0.0000       0.875271        23.8173 
  75   0.0000       0.880262        23.9532 
  76   0.0000       0.896041        24.3825 
  77   0.0000       0.910982        24.7891 
  78   0.0000       0.919344        25.0166 
  79   0.0000       0.925250        25.1773 
  80   0.0000       0.950504        25.8645 
  81   0.0000       0.994942        27.0737 
  82   0.0000       1.023006        27.8374 
  83   0.0000       1.063937        28.9512 
  84   0.0000       1.081863        29.4390 
  85   0.0000       1.106877        30.1197 
  86   0.0000       1.120312        30.4852 
  87   0.0000       1.132975        30.8298 
  88   0.0000       1.154493        31.4153 
  89   0.0000       1.197056        32.5735 
  90   0.0000       1.240639        33.7595 
  91   0.0000       1.254324        34.1319 
  92   0.0000       1.277305        34.7572 
  93   0.0000       1.534790        41.7638 
  94   0.0000       1.559484        42.4357 
  95   0.0000       1.576282        42.8928 
  96   0.0000       1.653222        44.9865 
  97   0.0000       1.665554        45.3220 
  98   0.0000       1.685824        45.8736 
  99   0.0000       1.698027        46.2057 
 100   0.0000       1.705679        46.4139 
 101   0.0000       1.736659        47.2569 
 102   0.0000       1.770956        48.1902 
 103   0.0000       1.776254        48.3343 
 104   0.0000       1.781309        48.4719 
 105   0.0000       1.785291        48.5802 
 106   0.0000       1.789561        48.6964 
 107   0.0000       1.796291        48.8796 
 108   0.0000       1.810632        49.2698 
 109   0.0000       1.816308        49.4243 
 110   0.0000       1.833379        49.8888 
 111   0.0000       1.843790        50.1721 
 112   0.0000       1.852998        50.4226 
 113   0.0000       1.856847        50.5274 
 114   0.0000       1.862880        50.6916 
 115   0.0000       1.893102        51.5139 
 116   0.0000       1.953118        53.1471 
 117   0.0000       1.966851        53.5207 
 118   0.0000       1.976295        53.7777 
 119   0.0000       2.082287        56.6619 
 120   0.0000       2.131715        58.0069 
 121   0.0000       2.137392        58.1614 
 122   0.0000       2.194896        59.7261 
 123   0.0000       2.199977        59.8644 
 124   0.0000       2.213680        60.2373 
 125   0.0000       2.237303        60.8801 
 126   0.0000       2.251430        61.2645 
 127   0.0000       2.257436        61.4280 
 128   0.0000       2.277568        61.9758 
 129   0.0000       2.282460        62.1089 
 130   0.0000       2.294778        62.4441 
 131   0.0000       2.299270        62.5663 
 132   0.0000       2.311982        62.9122 
 133   0.0000       2.355392        64.0935 
 134   0.0000       2.399930        65.3054 
 135   0.0000       2.436558        66.3021 
 136   0.0000       2.445012        66.5322 
 137   0.0000       2.515270        68.4440 
 138   0.0000       2.524753        68.7020 
 139   0.0000       2.543301        69.2067 
 140   0.0000       2.552102        69.4462 
 141   0.0000       2.567638        69.8690 
 142   0.0000       2.584188        70.3193 
 143   0.0000       2.591977        70.5313 
 144   0.0000       2.599584        70.7383 
 145   0.0000       2.622860        71.3716 
 146   0.0000       2.626912        71.4819 
 147   0.0000       2.637935        71.7819 
 148   0.0000       2.645316        71.9827 
 149   0.0000       2.674670        72.7815 
 150   0.0000       2.688644        73.1617 
 151   0.0000       2.723686        74.1153 
 152   0.0000       2.746366        74.7324 
 153   0.0000       2.772356        75.4396 
 154   0.0000       2.807078        76.3845 
 155   0.0000       2.823386        76.8282 
 156   0.0000       2.838386        77.2364 
 157   0.0000       2.842046        77.3360 
 158   0.0000       2.870916        78.1216 
 159   0.0000       2.879279        78.3492 
 160   0.0000       2.895650        78.7946 
 161   0.0000       2.986429        81.2649 
 162   0.0000       3.045213        82.8645 
 163   0.0000       3.048136        82.9440 
 164   0.0000       3.082055        83.8670 
 165   0.0000       3.107549        84.5607 
 166   0.0000       3.111406        84.6657 
 167   0.0000       3.128488        85.1305 
 168   0.0000       3.142154        85.5024 
 169   0.0000       3.204738        87.2054 
 170   0.0000       3.218988        87.5931 
 171   0.0000       3.240515        88.1789 
 172   0.0000       3.330608        90.6305 
 173   0.0000       3.345155        91.0263 
 174   0.0000       3.348825        91.1261 
 175   0.0000       3.402301        92.5813 
 176   0.0000       3.403579        92.6161 
 177   0.0000       3.417356        92.9910 
 178   0.0000       3.456563        94.0579 
 179   0.0000       3.482956        94.7760 
 180   0.0000       3.530230        96.0624 
 181   0.0000       3.539682        96.3196 
 182   0.0000       3.581381        97.4543 
 183   0.0000       3.626324        98.6773 
 184   0.0000       3.634343        98.8955 
 185   0.0000       3.659219        99.5724 
 186   0.0000       3.664574        99.7181 
 187   0.0000       3.670173        99.8705 
 188   0.0000       3.717244       101.1514 
 189   0.0000       3.726870       101.4133 
 190   0.0000       3.753128       102.1278 
 191   0.0000       3.773399       102.6794 
 192   0.0000       3.848086       104.7118 
 193   0.0000       3.857429       104.9660 
 194   0.0000       3.869653       105.2986 
 195   0.0000       3.884286       105.6968 
 196   0.0000       3.888644       105.8154 
 197   0.0000       3.898257       106.0770 
 198   0.0000       3.907616       106.3316 
 199   0.0000       3.921508       106.7097 
 200   0.0000       3.958381       107.7130 
 201   0.0000       4.229157       115.0812 
 202   0.0000       4.241812       115.4256 
 203   0.0000       4.411723       120.0491 
 204   0.0000       4.490989       122.2060 
 205   0.0000       4.515154       122.8636 
 206   0.0000       4.525527       123.1458 
 207   0.0000       4.527055       123.1874 
 208   0.0000       4.559917       124.0817 
 209   0.0000       4.594309       125.0175 
 210   0.0000       4.696924       127.8098 
 211   0.0000       4.707063       128.0857 
 212   0.0000       4.741314       129.0177 
 213   0.0000       4.860074       132.2493 
 214   0.0000       4.878537       132.7518 
 215   0.0000       4.915956       133.7700 
 216   0.0000       5.678270       154.5136 
 217   0.0000       5.684716       154.6890 
 218   0.0000       5.734476       156.0430 
 219   0.0000       5.758600       156.6995 
 220   0.0000       5.764869       156.8701 
 221   0.0000       5.820834       158.3930 
 222   0.0000       5.859906       159.4562 
 223   0.0000       5.873413       159.8237 
 224   0.0000       5.929928       161.3615 
 225   0.0000       6.133710       166.9067 
 226   0.0000       6.144120       167.1900 
 227   0.0000       6.168868       167.8634 
 228   0.0000       6.172694       167.9675 
 229   0.0000       6.214496       169.1050 
 230   0.0000       6.221381       169.2924 
 231   0.0000       6.298188       171.3824 
 232   0.0000       6.317265       171.9015 
 233   0.0000       6.376218       173.5057 
 234   0.0000       6.633691       180.5119 
 235   0.0000       6.657396       181.1569 
 236   0.0000       6.767473       184.1523 
 237   0.0000       6.940146       188.8510 
 238   0.0000       6.982134       189.9935 
 239   0.0000       7.054063       191.9508 
 240   0.0000       7.140789       194.3107 
 241   0.0000       7.155184       194.7024 
 242   0.0000       7.201129       195.9527 
 243   0.0000       7.211946       196.2470 
 244   0.0000       7.261006       197.5820 
 245   0.0000       7.283348       198.1900 
 246   0.0000       7.451988       202.7789 
 247   0.0000       7.459703       202.9888 
 248   0.0000       7.540208       205.1795 
 249   0.0000       7.584328       206.3801 
 250   0.0000       7.602260       206.8680 
 251   0.0000       7.763881       211.2659 
 252   0.0000      23.358960       635.6296 
 253   0.0000      23.367248       635.8551 
 254   0.0000      23.407658       636.9548 
 255   0.0000      45.144008      1228.4309 
 256   0.0000      45.179103      1229.3859 
 257   0.0000      45.307102      1232.8689 

                    ********************************
                    * MULLIKEN POPULATION ANALYSIS *
                    ********************************

-----------------------
MULLIKEN ATOMIC CHARGES
-----------------------
   0 O :   -0.568495
   1 H :    0.352132
   2 C :   -0.099340
   3 H :    0.121474
   4 H :    0.123359
   5 H :    0.101991
   6 O :   -0.547113
   7 H :    0.332010
   8 C :   -0.076552
   9 H :    0.107859
  10 H :    0.095911
  11 H :    0.088134
  12 O :   -0.593103
  13 H :    0.368319
  14 C :   -0.057108
  15 H :    0.097352
  16 H :    0.072173
  17 H :    0.080996
Sum of atomic charges:   -0.0000000

--------------------------------
MULLIKEN REDUCED ORBITAL CHARGES
--------------------------------
  0 O s       :     3.799199  s :     3.799199
      pz      :     1.605330  p :     4.735670
      px      :     1.499969
      py      :     1.630371
      dz2     :     0.005700  d :     0.031983
      dxz     :     0.005947
      dyz     :     0.006674
      dx2y2   :     0.007841
      dxy     :     0.005822
      f0      :     0.000223  f :     0.001643
      f+1     :     0.000108
      f-1     :     0.000399
      f+2     :     0.000327
      f-2     :     0.000270
      f+3     :     0.000109
      f-3     :     0.000206
  1 H s       :     0.605521  s :     0.605521
      pz      :     0.012358  p :     0.042347
      px      :     0.017136
      py      :     0.012853
  2 C s       :     3.202225  s :     3.202225
      pz      :     0.826917  p :     2.777851
      px      :     1.067462
      py      :     0.883472
      dz2     :     0.022966  d :     0.110339
      dxz     :     0.030519
      dyz     :     0.019713
      dx2y2   :     0.020419
      dxy     :     0.016722
      f0      :     0.001618  f :     0.008925
      f+1     :     0.000459
      f-1     :     0.001863
      f+2     :     0.002072
      f-2     :     0.001798
      f+3     :     0.000706
      f-3     :     0.000409
  3 H s       :     0.857290  s :     0.857290
      pz      :     0.005686  p :     0.021236
      px      :     0.012192
      py      :     0.003359
  4 H s       :     0.856268  s :     0.856268
      pz      :     0.008107  p :     0.020373
      px      :     0.008466
      py      :     0.003800
  5 H s       :     0.877389  s :     0.877389
      pz      :     0.003817  p :     0.020620
      px      :     0.004580
      py      :     0.012224
  6 O s       :     3.804800  s :     3.804800
      pz      :     1.747954  p :     4.708009
      px      :     1.594767
      py      :     1.365287
      dz2     :     0.003172  d :     0.032555
      dxz     :     0.007710
      dyz     :     0.005872
      dx2y2   :     0.011794
      dxy     :     0.004008
      f0      :     0.000243  f :     0.001750
      f+1     :     0.000122
      f-1     :     0.000228
      f+2     :     0.000346
      f-2     :     0.000204
      f+3     :     0.000236
      f-3     :     0.000371
  7 H s       :     0.625239  s :     0.625239
      pz      :     0.014910  p :     0.042751
      px      :     0.017160
      py      :     0.010681
  8 C s       :     3.193018  s :     3.193018
      pz      :     1.028561  p :     2.758788
      px      :     1.051456
      py      :     0.678771
      dz2     :     0.018783  d :     0.115745
      dxz     :     0.010205
      dyz     :     0.030176
      dx2y2   :     0.019609
      dxy     :     0.036972
      f0      :     0.001549  f :     0.009002
      f+1     :     0.000549
      f-1     :     0.001082
      f+2     :     0.001541
      f-2     :     0.000388
      f+3     :     0.001848
      f-3     :     0.002045
  9 H s       :     0.871017  s :     0.871017
      pz      :     0.007358  p :     0.021123
      px      :     0.010233
      py      :     0.003532
 10 H s       :     0.883928  s :     0.883928
      pz      :     0.004124  p :     0.020161
      px      :     0.010494
      py      :     0.005543
 11 H s       :     0.891865  s :     0.891865
      pz      :     0.013356  p :     0.020000
      px      :     0.004067
      py      :     0.002578
 12 O s       :     3.798914  s :     3.798914
      pz      :     1.808781  p :     4.761097
      px      :     1.326137
      py      :     1.626179
      dz2     :     0.003616  d :     0.031415
      dxz     :     0.007581
      dyz     :     0.003671
      dx2y2   :     0.008337
      dxy     :     0.008210
      f0      :     0.000276  f :     0.001676
      f+1     :     0.000238
      f-1     :     0.000098
      f+2     :     0.000288
      f-2     :     0.000187
      f+3     :     0.000455
      f-3     :     0.000134
 13 H s       :     0.574772  s :     0.574772
      pz      :     0.014194  p :     0.056909
      px      :     0.016452
      py      :     0.026263
 14 C s       :     3.179950  s :     3.179950
      pz      :     0.973631  p :     2.748956
      px      :     0.734776
      py      :     1.040549
      dz2     :     0.030206  d :     0.119046
      dxz     :     0.024956
      dyz     :     0.005815
      dx2y2   :     0.015489
      dxy     :     0.042579
      f0      :     0.001627  f :     0.009155
      f+1     :     0.001832
      f-1     :     0.000169
      f+2     :     0.001261
      f-2     :     0.000909
      f+3     :     0.001813
      f-3     :     0.001544
 15 H s       :     0.881811  s :     0.881811
      pz      :     0.003918  p :     0.020837
      px      :     0.005360
      py      :     0.011560
 16 H s       :     0.907827  s :     0.907827
      pz      :     0.004983  p :     0.020000
      px      :     0.005327
      py      :     0.009690
 17 H s       :     0.899046  s :     0.899046
      pz      :     0.014289  p :     0.019958
      px      :     0.002162
      py      :     0.003507


                     *******************************
                     * LOEWDIN POPULATION ANALYSIS *
                     *******************************

----------------------
LOEWDIN ATOMIC CHARGES
----------------------
   0 O :   -0.102947
   1 H :    0.197618
   2 C :   -0.326174
   3 H :    0.105932
   4 H :    0.098221
   5 H :    0.094883
   6 O :   -0.126592
   7 H :    0.190855
   8 C :   -0.341502
   9 H :    0.100996
  10 H :    0.089412
  11 H :    0.086894
  12 O :   -0.146751
  13 H :    0.165751
  14 C :   -0.349946
  15 H :    0.095838
  16 H :    0.082493
  17 H :    0.085019

-------------------------------
LOEWDIN REDUCED ORBITAL CHARGES
-------------------------------
  0 O s       :     3.385762  s :     3.385762
      pz      :     1.577482  p :     4.644499
      px      :     1.481903
      py      :     1.585113
      dz2     :     0.013760  d :     0.068544
      dxz     :     0.014485
      dyz     :     0.014488
      dx2y2   :     0.012328
      dxy     :     0.013483
      f0      :     0.000624  f :     0.004143
      f+1     :     0.000400
      f-1     :     0.000832
      f+2     :     0.000755
      f-2     :     0.000590
      f+3     :     0.000416
      f-3     :     0.000524
  1 H s       :     0.655369  s :     0.655369
      pz      :     0.035772  p :     0.147013
      px      :     0.073399
      py      :     0.037842
  2 C s       :     2.862618  s :     2.862618
      pz      :     0.930819  p :     2.992490
      px      :     1.096089
      py      :     0.965581
      dz2     :     0.086478  d :     0.414038
      dxz     :     0.102421
      dyz     :     0.093165
      dx2y2   :     0.076164
      dxy     :     0.055810
      f0      :     0.012791  f :     0.057027
      f+1     :     0.003492
      f-1     :     0.012780
      f+2     :     0.009002
      f-2     :     0.009770
      f+3     :     0.004978
      f-3     :     0.004213
  3 H s       :     0.834623  s :     0.834623
      pz      :     0.015766  p :     0.059445
      px      :     0.032988
      py      :     0.010690
  4 H s       :     0.841848  s :     0.841848
      pz      :     0.022985  p :     0.059932
      px      :     0.024181
      py      :     0.012765
  5 H s       :     0.846347  s :     0.846347
      pz      :     0.012350  p :     0.058771
      px      :     0.014876
      py      :     0.031544
  6 O s       :     3.391039  s :     3.391039
      pz      :     1.686292  p :     4.662152
      px      :     1.550476
      py      :     1.425384
      dz2     :     0.005724  d :     0.069246
      dxz     :     0.010320
      dyz     :     0.015980
      dx2y2   :     0.021034
      dxy     :     0.016188
      f0      :     0.000399  f :     0.004155
      f+1     :     0.000149
      f-1     :     0.000544
      f+2     :     0.001044
      f-2     :     0.000358
      f+3     :     0.000946
      f-3     :     0.000716
  7 H s       :     0.665065  s :     0.665065
      pz      :     0.052010  p :     0.144081
      px      :     0.063648
      py      :     0.028423
  8 C s       :     2.861292  s :     2.861292
      pz      :     1.080838  p :     2.994165
      px      :     1.085930
      py      :     0.827398
      dz2     :     0.072075  d :     0.427790
      dxz     :     0.034950
      dyz     :     0.106700
      dx2y2   :     0.091847
      dxy     :     0.122219
      f0      :     0.007620  f :     0.058254
      f+1     :     0.001633
      f-1     :     0.007446
      f+2     :     0.011811
      f-2     :     0.004392
      f+3     :     0.011577
      f-3     :     0.013774
  9 H s       :     0.840370  s :     0.840370
      pz      :     0.021159  p :     0.058634
      px      :     0.027553
      py      :     0.009922
 10 H s       :     0.852030  s :     0.852030
      pz      :     0.013741  p :     0.058559
      px      :     0.029089
      py      :     0.015729
 11 H s       :     0.854980  s :     0.854980
      pz      :     0.035656  p :     0.058126
      px      :     0.013774
      py      :     0.008696
 12 O s       :     3.383067  s :     3.383067
      pz      :     1.741556  p :     4.694331
      px      :     1.377409
      py      :     1.575366
      dz2     :     0.008491  d :     0.065391
      dxz     :     0.016530
      dyz     :     0.003715
      dx2y2   :     0.015404
      dxy     :     0.021252
      f0      :     0.000331  f :     0.003961
      f+1     :     0.000716
      f-1     :     0.000098
      f+2     :     0.000713
      f-2     :     0.000544
      f+3     :     0.000917
      f-3     :     0.000641
 13 H s       :     0.647636  s :     0.647636
      pz      :     0.045403  p :     0.186613
      px      :     0.048515
      py      :     0.092694
 14 C s       :     2.860106  s :     2.860106
      pz      :     1.047329  p :     2.996619
      px      :     0.862536
      py      :     1.086754
      dz2     :     0.109676  d :     0.434803
      dxz     :     0.099599
      dyz     :     0.019281
      dx2y2   :     0.069836
      dxy     :     0.136411
      f0      :     0.006195  f :     0.058418
      f+1     :     0.011275
      f-1     :     0.000857
      f+2     :     0.012003
      f-2     :     0.007938
      f+3     :     0.010087
      f-3     :     0.010062
 15 H s       :     0.846146  s :     0.846146
      pz      :     0.012896  p :     0.058016
      px      :     0.014248
      py      :     0.030871
 16 H s       :     0.859801  s :     0.859801
      pz      :     0.015505  p :     0.057706
      px      :     0.015161
      py      :     0.027040
 17 H s       :     0.857108  s :     0.857108
      pz      :     0.037489  p :     0.057873
      px      :     0.008018
      py      :     0.012366


                      *****************************
                      * MAYER POPULATION ANALYSIS *
                      *****************************

  NA   - Mulliken gross atomic population
  ZA   - Total nuclear charge
  QA   - Mulliken gross atomic charge
  VA   - Mayer's total valence
  BVA  - Mayer's bonded valence
  FA   - Mayer's free valence

  ATOM       NA         ZA         QA         VA         BVA        FA
  0 O      8.5685     8.0000    -0.5685     1.7865     1.7865    -0.0000
  1 H      0.6479     1.0000     0.3521     0.8836     0.8836     0.0000
  2 C      6.0993     6.0000    -0.0993     3.8545     3.8545    -0.0000
  3 H      0.8785     1.0000     0.1215     0.9662     0.9662    -0.0000
  4 H      0.8766     1.0000     0.1234     0.9628     0.9628    -0.0000
  5 H      0.8980     1.0000     0.1020     0.9638     0.9638     0.0000
  6 O      8.5471     8.0000    -0.5471     1.7901     1.7901     0.0000
  7 H      0.6680     1.0000     0.3320     0.8970     0.8970     0.0000
  8 C      6.0766     6.0000    -0.0766     3.8986     3.8986     0.0000
  9 H      0.8921     1.0000     0.1079     0.9612     0.9612     0.0000
 10 H      0.9041     1.0000     0.0959     0.9633     0.9633    -0.0000
 11 H      0.9119     1.0000     0.0881     0.9601     0.9601     0.0000
 12 O      8.5931     8.0000    -0.5931     1.7358     1.7358    -0.0000
 13 H      0.6317     1.0000     0.3683     0.9061     0.9061    -0.0000
 14 C      6.0571     6.0000    -0.0571     3.9217     3.9217    -0.0000
 15 H      0.9026     1.0000     0.0974     0.9608     0.9608     0.0000
 16 H      0.9278     1.0000     0.0722     0.9598     0.9598     0.0000
 17 H      0.9190     1.0000     0.0810     0.9628     0.9628    -0.0000

  Mayer bond orders larger than 0.100000
B(  0-O ,  1-H ) :   0.8722 B(  0-O ,  2-C ) :   0.8866 B(  2-C ,  3-H ) :   0.9849 
B(  2-C ,  4-H ) :   0.9876 B(  2-C ,  5-H ) :   0.9819 B(  6-O ,  7-H ) :   0.8854 
B(  6-O ,  8-C ) :   0.9317 B(  8-C ,  9-H ) :   0.9831 B(  8-C , 10-H ) :   0.9892 
B(  8-C , 11-H ) :   0.9864 B( 12-O , 13-H ) :   0.8282 B( 12-O , 14-C ) :   0.9510 
B( 14-C , 15-H ) :   0.9874 B( 14-C , 16-H ) :   0.9874 B( 14-C , 17-H ) :   0.9904 


-------
TIMINGS
-------

Total SCF time: 0 days 0 hours 0 min 13 sec 

Total time                  ....      13.059 sec
Sum of individual times     ....      12.801 sec  ( 98.0%)

Fock matrix formation       ....      12.443 sec  ( 95.3%)
Diagonalization             ....       0.073 sec  (  0.6%)
Density matrix formation    ....       0.008 sec  (  0.1%)
Population analysis         ....       0.024 sec  (  0.2%)
Initial guess               ....       0.140 sec  (  1.1%)
Orbital Transformation      ....       0.000 sec  (  0.0%)
Orbital Orthonormalization  ....       0.000 sec  (  0.0%)
DIIS solution               ....       0.026 sec  (  0.2%)
SOSCF solution              ....       0.031 sec  (  0.2%)


           ************************************************************
           *        Program running with 6 parallel MPI-processes     *
           *              working on a common directory               *
           ************************************************************

------------------------------------------------------------------------------
                                ORCA  MP2 
------------------------------------------------------------------------------

Freezing NCore=12 chemical core electrons
MP2 will be done in the AO integral direct mode
The Q1-step will be done using symmetric double matrices
Dimension of the basis                    ...  258
Memory devoted for MP2                    ... 8000 MB   
Memory needed for all in one shot         ...  264 MB
Number of MOs that can be treated together...  120      
MP2 density construction                  ... relaxed
The MP2 gradient is requested => amplitudes will be stored on disk
Total number of MOs              ...   21
Number of MOs treated per batch  ...    4 
Number of batches necessary      ...    1 
OPERATORS   0/  0 PASS   0
-----------------------------------------------
 MP2 CORRELATION ENERGY   :     -1.256776509 Eh
-----------------------------------------------


---------------------
MP2 DENSITY FORMATION
---------------------

Completing the external part of the density      ... done
Storing the unrelaxed density                    ... done

Calculating G(D)                                 ... done
Completing the Lagrangian                        ... done
Solving the Z-vector equations                   ... 

------------------------------------------------------------------------------
                           ORCA CP-SCF CALCULATION
------------------------------------------------------------------------------

Input orbitals are from        ... 12meoh.boyd.etal.mol2,9,10-orca.engrad-mp2.def2tzvp.frozencore.gbw
Input Perturbation             ... 12meoh.boyd.etal.mol2,9,10-orca.engrad-mp2.def2tzvp.frozencore.pin.tmp
Wavefunction output            ... 12meoh.boyd.etal.mol2,9,10-orca.engrad-mp2.def2tzvp.frozencore.pout.tmp
Perturbation mode              ... Real perturbation (singlet)
Solver                         ... POPLE
Max. number of iterations      ... 128
Convergence tolerance          ... 1.000e-08
Integral handling              ... Direct
Number of perturbations        ... 1
Number of operators            ... 1
Orbital ranges used for CP-SCF:
 Operator 0:  Orbitals   0... 26  to  27...257
Variables per vector in CP-SCF ... 6237
Number of vectors sought       ... 1
     CP-SCF ITERATION   0: 
     CP-SCF ITERATION   1:      0.000358605890
     CP-SCF ITERATION   2:      0.000022723670
     CP-SCF ITERATION   3:      0.000003708870
     CP-SCF ITERATION   4:      0.000000172274
     CP-SCF ITERATION   5:      0.000000006361
                                                 ... done
Finalizing the relaxed density                   ... done
Transforming P to the AO basis                   ... done
Storing the relaxed density                      ... done

------------------------------------
ENERGY WEIGHTED DENSITY FINALIZATION
------------------------------------

Gathering the parts of the W-matrix              ...                                                      done
Forming the Z-density                            ... done
Transforming Z to the AO basis                   ... done
Calculating G(Z)                                 ... done
Finalizing the W-matrix                          ...                                                      done
Transforming W to the AO basis and storing       ... done

                *********************************************
                * UNRELAXED MP2 DENSITY POPULATION ANALYSIS *
                *********************************************

------------------------------------------------------------------------------
                           ORCA POPULATION ANALYSIS
------------------------------------------------------------------------------
Input electron density              ... 12meoh.boyd.etal.mol2,9,10-orca.engrad-mp2.def2tzvp.frozencore.pmp2ur
BaseName (.gbw .S,...)              ... 12meoh.boyd.etal.mol2,9,10-orca.engrad-mp2.def2tzvp.frozencore

                    ********************************
                    * MULLIKEN POPULATION ANALYSIS *
                    ********************************

-----------------------
MULLIKEN ATOMIC CHARGES
-----------------------
   0 O :   -0.556399
   1 H :    0.349412
   2 C :   -0.115069
   3 H :    0.124125
   4 H :    0.125678
   5 H :    0.104469
   6 O :   -0.536157
   7 H :    0.329349
   8 C :   -0.092445
   9 H :    0.110637
  10 H :    0.098327
  11 H :    0.090554
  12 O :   -0.581005
  13 H :    0.363614
  14 C :   -0.073482
  15 H :    0.100195
  16 H :    0.074720
  17 H :    0.083475
Sum of atomic charges:    0.0000000

--------------------------------
MULLIKEN REDUCED ORBITAL CHARGES
--------------------------------
  0 O s       :     3.793754  s :     3.793754
      pz      :     1.592734  p :     4.698296
      px      :     1.488440
      py      :     1.617121
      dz2     :     0.011368  d :     0.060017
      dxz     :     0.011498
      dyz     :     0.012278
      dx2y2   :     0.013357
      dxy     :     0.011516
      f0      :     0.000608  f :     0.004333
      f+1     :     0.000496
      f-1     :     0.000778
      f+2     :     0.000708
      f-2     :     0.000653
      f+3     :     0.000499
      f-3     :     0.000590
  1 H s       :     0.606636  s :     0.606636
      pz      :     0.013080  p :     0.043951
      px      :     0.017293
      py      :     0.013578
  2 C s       :     3.200196  s :     3.200196
      pz      :     0.826749  p :     2.771538
      px      :     1.062362
      py      :     0.882426
      dz2     :     0.027643  d :     0.131086
      dxz     :     0.034420
      dyz     :     0.022675
      dx2y2   :     0.024715
      dxy     :     0.021633
      f0      :     0.002077  f :     0.012249
      f+1     :     0.001006
      f-1     :     0.002283
      f+2     :     0.002480
      f-2     :     0.002274
      f+3     :     0.001201
      f-3     :     0.000927
  3 H s       :     0.851594  s :     0.851594
      pz      :     0.006745  p :     0.024281
      px      :     0.013056
      py      :     0.004480
  4 H s       :     0.850863  s :     0.850863
      pz      :     0.009082  p :     0.023459
      px      :     0.009462
      py      :     0.004914
  5 H s       :     0.871769  s :     0.871769
      pz      :     0.004934  p :     0.023762
      px      :     0.005697
      py      :     0.013131
  6 O s       :     3.799587  s :     3.799587
      pz      :     1.735012  p :     4.672318
      px      :     1.583497
      py      :     1.353809
      dz2     :     0.008800  d :     0.059844
      dxz     :     0.013056
      dyz     :     0.011390
      dx2y2   :     0.017019
      dxy     :     0.009579
      f0      :     0.000614  f :     0.004408
      f+1     :     0.000496
      f-1     :     0.000608
      f+2     :     0.000733
      f-2     :     0.000577
      f+3     :     0.000629
      f-3     :     0.000751
  7 H s       :     0.626202  s :     0.626202
      pz      :     0.015582  p :     0.044450
      px      :     0.017486
      py      :     0.011382
  8 C s       :     3.191130  s :     3.191130
      pz      :     1.024231  p :     2.752635
      px      :     1.046981
      py      :     0.681424
      dz2     :     0.022621  d :     0.136346
      dxz     :     0.015090
      dyz     :     0.034693
      dx2y2   :     0.023090
      dxy     :     0.040852
      f0      :     0.002007  f :     0.012333
      f+1     :     0.001068
      f-1     :     0.001552
      f+2     :     0.002010
      f-2     :     0.000906
      f+3     :     0.002369
      f-3     :     0.002421
  9 H s       :     0.865148  s :     0.865148
      pz      :     0.008368  p :     0.024215
      px      :     0.011183
      py      :     0.004664
 10 H s       :     0.878333  s :     0.878333
      pz      :     0.005253  p :     0.023339
      px      :     0.011455
      py      :     0.006631
 11 H s       :     0.886241  s :     0.886241
      pz      :     0.014250  p :     0.023205
      px      :     0.005205
      py      :     0.003751
 12 O s       :     3.793534  s :     3.793534
      pz      :     1.794729  p :     4.723808
      px      :     1.315211
      py      :     1.613868
      dz2     :     0.009326  d :     0.059300
      dxz     :     0.013116
      dyz     :     0.009320
      dx2y2   :     0.013797
      dxy     :     0.013741
      f0      :     0.000647  f :     0.004363
      f+1     :     0.000625
      f-1     :     0.000473
      f+2     :     0.000672
      f-2     :     0.000573
      f+3     :     0.000838
      f-3     :     0.000534
 13 H s       :     0.577660  s :     0.577660
      pz      :     0.015064  p :     0.058726
      px      :     0.017045
      py      :     0.026617
 14 C s       :     3.178038  s :     3.178038
      pz      :     0.970349  p :     2.743084
      px      :     0.736537
      py      :     1.036197
      dz2     :     0.033850  d :     0.139867
      dxz     :     0.029171
      dyz     :     0.010981
      dx2y2   :     0.019284
      dxy     :     0.046582
      f0      :     0.002040  f :     0.012492
      f+1     :     0.002375
      f-1     :     0.000709
      f+2     :     0.001678
      f-2     :     0.001391
      f+3     :     0.002188
      f-3     :     0.002112
 15 H s       :     0.875812  s :     0.875812
      pz      :     0.005040  p :     0.023992
      px      :     0.006476
      py      :     0.012476
 16 H s       :     0.902005  s :     0.902005
      pz      :     0.006108  p :     0.023276
      px      :     0.006462
      py      :     0.010706
 17 H s       :     0.893332  s :     0.893332
      pz      :     0.015174  p :     0.023193
      px      :     0.003350
      py      :     0.004669


                     *******************************
                     * LOEWDIN POPULATION ANALYSIS *
                     *******************************

----------------------
LOEWDIN ATOMIC CHARGES
----------------------
   0 O :   -0.094026
   1 H :    0.195807
   2 C :   -0.336802
   3 H :    0.107679
   4 H :    0.099781
   5 H :    0.096423
   6 O :   -0.118904
   7 H :    0.189026
   8 C :   -0.352022
   9 H :    0.102749
  10 H :    0.090882
  11 H :    0.088339
  12 O :   -0.138995
  13 H :    0.163057
  14 C :   -0.360867
  15 H :    0.097532
  16 H :    0.083898
  17 H :    0.086444

-------------------------------
LOEWDIN REDUCED ORBITAL CHARGES
-------------------------------
  0 O s       :     3.382257  s :     3.382257
      pz      :     1.564623  p :     4.606776
      px      :     1.470461
      py      :     1.571692
      dz2     :     0.019479  d :     0.097904
      dxz     :     0.020049
      dyz     :     0.020996
      dx2y2   :     0.018218
      dxy     :     0.019162
      f0      :     0.001034  f :     0.007090
      f+1     :     0.000803
      f-1     :     0.001276
      f+2     :     0.001190
      f-2     :     0.001016
      f+3     :     0.000825
      f-3     :     0.000946
  1 H s       :     0.653779  s :     0.653779
      pz      :     0.036652  p :     0.150414
      px      :     0.075031
      py      :     0.038731
  2 C s       :     2.861444  s :     2.861444
      pz      :     0.927574  p :     2.978589
      px      :     1.089280
      py      :     0.961735
      dz2     :     0.090473  d :     0.434889
      dxz     :     0.106414
      dyz     :     0.096933
      dx2y2   :     0.080696
      dxy     :     0.060373
      f0      :     0.013285  f :     0.061880
      f+1     :     0.004180
      f-1     :     0.013518
      f+2     :     0.009919
      f-2     :     0.010489
      f+3     :     0.005643
      f-3     :     0.004846
  3 H s       :     0.827917  s :     0.827917
      pz      :     0.017333  p :     0.064405
      px      :     0.035067
      py      :     0.012004
  4 H s       :     0.835207  s :     0.835207
      pz      :     0.024856  p :     0.065012
      px      :     0.025976
      py      :     0.014180
  5 H s       :     0.839657  s :     0.839657
      pz      :     0.013794  p :     0.063921
      px      :     0.016262
      py      :     0.033865
  6 O s       :     3.387611  s :     3.387611
      pz      :     1.673839  p :     4.626314
      px      :     1.539462
      py      :     1.413013
      dz2     :     0.011490  d :     0.097910
      dxz     :     0.016258
      dyz     :     0.021465
      dx2y2   :     0.027093
      dxy     :     0.021604
      f0      :     0.000803  f :     0.007070
      f+1     :     0.000534
      f-1     :     0.000960
      f+2     :     0.001471
      f-2     :     0.000762
      f+3     :     0.001361
      f-3     :     0.001178
  7 H s       :     0.663354  s :     0.663354
      pz      :     0.053221  p :     0.147620
      px      :     0.065113
      py      :     0.029285
  8 C s       :     2.860157  s :     2.860157
      pz      :     1.074547  p :     2.980276
      px      :     1.079531
      py      :     0.826198
      dz2     :     0.076517  d :     0.448450
      dxz     :     0.040211
      dyz     :     0.110344
      dx2y2   :     0.095932
      dxy     :     0.125446
      f0      :     0.008348  f :     0.063139
      f+1     :     0.002329
      f-1     :     0.008216
      f+2     :     0.012353
      f-2     :     0.005060
      f+3     :     0.012152
      f-3     :     0.014681
  9 H s       :     0.833598  s :     0.833598
      pz      :     0.022765  p :     0.063653
      px      :     0.029485
      py      :     0.011403
 10 H s       :     0.845333  s :     0.845333
      pz      :     0.015049  p :     0.063785
      px      :     0.031187
      py      :     0.017548
 11 H s       :     0.848282  s :     0.848282
      pz      :     0.038119  p :     0.063378
      px      :     0.015092
      py      :     0.010168
 12 O s       :     3.379758  s :     3.379758
      pz      :     1.728108  p :     4.657567
      px      :     1.365739
      py      :     1.563719
      dz2     :     0.014374  d :     0.094761
      dxz     :     0.022475
      dyz     :     0.009554
      dx2y2   :     0.021419
      dxy     :     0.026939
      f0      :     0.000746  f :     0.006909
      f+1     :     0.001122
      f-1     :     0.000485
      f+2     :     0.001149
      f-2     :     0.000956
      f+3     :     0.001392
      f-3     :     0.001059
 13 H s       :     0.647455  s :     0.647455
      pz      :     0.046309  p :     0.189488
      px      :     0.049413
      py      :     0.093766
 14 C s       :     2.859020  s :     2.859020
      pz      :     1.041756  p :     2.982790
      px      :     0.860715
      py      :     1.080319
      dz2     :     0.113650  d :     0.455733
      dxz     :     0.103542
      dyz     :     0.024518
      dx2y2   :     0.074186
      dxy     :     0.139837
      f0      :     0.007152  f :     0.063324
      f+1     :     0.011827
      f-1     :     0.001518
      f+2     :     0.012627
      f-2     :     0.008538
      f+3     :     0.011019
      f-3     :     0.010642
 15 H s       :     0.839309  s :     0.839309
      pz      :     0.014200  p :     0.063159
      px      :     0.015964
      py      :     0.032994
 16 H s       :     0.853016  s :     0.853016
      pz      :     0.016974  p :     0.063086
      px      :     0.016974
      py      :     0.029138
 17 H s       :     0.850360  s :     0.850360
      pz      :     0.040144  p :     0.063197
      px      :     0.009408
      py      :     0.013645


                      *****************************
                      * MAYER POPULATION ANALYSIS *
                      *****************************

  NA   - Mulliken gross atomic population
  ZA   - Total nuclear charge
  QA   - Mulliken gross atomic charge
  VA   - Mayer's total valence
  BVA  - Mayer's bonded valence
  FA   - Mayer's free valence

  ATOM       NA         ZA         QA         VA         BVA        FA
  0 O      8.5564     8.0000    -0.5564     2.0896     1.6818     0.4078
  1 H      0.6506     1.0000     0.3494     0.8898     0.8388     0.0509
  2 C      6.1151     6.0000    -0.1151     3.9629     3.6836     0.2793
  3 H      0.8759     1.0000     0.1241     0.9747     0.9282     0.0465
  4 H      0.8743     1.0000     0.1257     0.9716     0.9243     0.0473
  5 H      0.8955     1.0000     0.1045     0.9732     0.9247     0.0485
  6 O      8.5362     8.0000    -0.5362     2.0888     1.6849     0.4039
  7 H      0.6707     1.0000     0.3293     0.9034     0.8508     0.0526
  8 C      6.0924     6.0000    -0.0924     4.0036     3.7254     0.2782
  9 H      0.8894     1.0000     0.1106     0.9702     0.9232     0.0470
 10 H      0.9017     1.0000     0.0983     0.9730     0.9241     0.0489
 11 H      0.9094     1.0000     0.0906     0.9702     0.9207     0.0495
 12 O      8.5810     8.0000    -0.5810     2.0419     1.6331     0.4088
 13 H      0.6364     1.0000     0.3636     0.9140     0.8639     0.0502
 14 C      6.0735     6.0000    -0.0735     4.0253     3.7445     0.2808
 15 H      0.8998     1.0000     0.1002     0.9702     0.9223     0.0479
 16 H      0.9253     1.0000     0.0747     0.9704     0.9199     0.0505
 17 H      0.9165     1.0000     0.0835     0.9731     0.9231     0.0500

  Mayer bond orders larger than 0.100000
B(  0-O ,  1-H ) :   0.8284 B(  0-O ,  2-C ) :   0.8296 B(  2-C ,  3-H ) :   0.9476 
B(  2-C ,  4-H ) :   0.9501 B(  2-C ,  5-H ) :   0.9439 B(  6-O ,  7-H ) :   0.8402 
B(  6-O ,  8-C ) :   0.8733 B(  8-C ,  9-H ) :   0.9456 B(  8-C , 10-H ) :   0.9510 
B(  8-C , 11-H ) :   0.9480 B( 12-O , 13-H ) :   0.7887 B( 12-O , 14-C ) :   0.8903 
B( 14-C , 15-H ) :   0.9495 B( 14-C , 16-H ) :   0.9484 B( 14-C , 17-H ) :   0.9517 



                *******************************************
                * RELAXED MP2 DENSITY POPULATION ANALYSIS *
                *******************************************

------------------------------------------------------------------------------
                           ORCA POPULATION ANALYSIS
------------------------------------------------------------------------------
Input electron density              ... 12meoh.boyd.etal.mol2,9,10-orca.engrad-mp2.def2tzvp.frozencore.pmp2re
BaseName (.gbw .S,...)              ... 12meoh.boyd.etal.mol2,9,10-orca.engrad-mp2.def2tzvp.frozencore

                    ********************************
                    * MULLIKEN POPULATION ANALYSIS *
                    ********************************

-----------------------
MULLIKEN ATOMIC CHARGES
-----------------------
   0 O :   -0.512544
   1 H :    0.343843
   2 C :   -0.195344
   3 H :    0.142434
   4 H :    0.141665
   5 H :    0.121290
   6 O :   -0.498836
   7 H :    0.323995
   8 C :   -0.174413
   9 H :    0.128860
  10 H :    0.114360
  11 H :    0.106425
  12 O :   -0.534011
  13 H :    0.339011
  14 C :   -0.157067
  15 H :    0.119215
  16 H :    0.091498
  17 H :    0.099619
Sum of atomic charges:    0.0000000

--------------------------------
MULLIKEN REDUCED ORBITAL CHARGES
--------------------------------
  0 O s       :     3.797641  s :     3.797641
      pz      :     1.585739  p :     4.652343
      px      :     1.468787
      py      :     1.597817
      dz2     :     0.011259  d :     0.058282
      dxz     :     0.011434
      dyz     :     0.011481
      dx2y2   :     0.012712
      dxy     :     0.011397
      f0      :     0.000609  f :     0.004278
      f+1     :     0.000492
      f-1     :     0.000763
      f+2     :     0.000693
      f-2     :     0.000649
      f+3     :     0.000494
      f-3     :     0.000578
  1 H s       :     0.611680  s :     0.611680
      pz      :     0.013670  p :     0.044477
      px      :     0.016659
      py      :     0.014147
  2 C s       :     3.222415  s :     3.222415
      pz      :     0.847799  p :     2.840376
      px      :     1.088319
      py      :     0.904258
      dz2     :     0.028478  d :     0.120881
      dxz     :     0.031065
      dyz     :     0.018845
      dx2y2   :     0.021755
      dxy     :     0.020738
      f0      :     0.001937  f :     0.011672
      f+1     :     0.001001
      f-1     :     0.002206
      f+2     :     0.002310
      f-2     :     0.002193
      f+3     :     0.001157
      f-3     :     0.000868
  3 H s       :     0.834443  s :     0.834443
      pz      :     0.006546  p :     0.023123
      px      :     0.011924
      py      :     0.004652
  4 H s       :     0.836042  s :     0.836042
      pz      :     0.008425  p :     0.022293
      px      :     0.008884
      py      :     0.004983
  5 H s       :     0.856049  s :     0.856049
      pz      :     0.004967  p :     0.022661
      px      :     0.005761
      py      :     0.011933
  6 O s       :     3.801011  s :     3.801011
      pz      :     1.719750  p :     4.635745
      px      :     1.569378
      py      :     1.346617
      dz2     :     0.008672  d :     0.057728
      dxz     :     0.012286
      dyz     :     0.011430
      dx2y2   :     0.015466
      dxy     :     0.009875
      f0      :     0.000608  f :     0.004352
      f+1     :     0.000495
      f-1     :     0.000599
      f+2     :     0.000720
      f-2     :     0.000571
      f+3     :     0.000634
      f-3     :     0.000725
  7 H s       :     0.630995  s :     0.630995
      pz      :     0.016089  p :     0.045010
      px      :     0.017246
      py      :     0.011675
  8 C s       :     3.213230  s :     3.213230
      pz      :     1.052091  p :     2.822682
      px      :     1.073713
      py      :     0.696878
      dz2     :     0.017951  d :     0.126728
      dxz     :     0.012770
      dyz     :     0.035957
      dx2y2   :     0.021366
      dxy     :     0.038685
      f0      :     0.001895  f :     0.011773
      f+1     :     0.001024
      f-1     :     0.001489
      f+2     :     0.001948
      f-2     :     0.000853
      f+3     :     0.002284
      f-3     :     0.002280
  9 H s       :     0.848079  s :     0.848079
      pz      :     0.008005  p :     0.023061
      px      :     0.010389
      py      :     0.004667
 10 H s       :     0.863413  s :     0.863413
      pz      :     0.005380  p :     0.022227
      px      :     0.010515
      py      :     0.006333
 11 H s       :     0.871466  s :     0.871466
      pz      :     0.012864  p :     0.022109
      px      :     0.005329
      py      :     0.003916
 12 O s       :     3.789195  s :     3.789195
      pz      :     1.779728  p :     4.682988
      px      :     1.303328
      py      :     1.599932
      dz2     :     0.009440  d :     0.057516
      dxz     :     0.012501
      dyz     :     0.009252
      dx2y2   :     0.012703
      dxy     :     0.013620
      f0      :     0.000634  f :     0.004312
      f+1     :     0.000631
      f-1     :     0.000471
      f+2     :     0.000653
      f-2     :     0.000570
      f+3     :     0.000812
      f-3     :     0.000540
 13 H s       :     0.602142  s :     0.602142
      pz      :     0.015782  p :     0.058847
      px      :     0.017085
      py      :     0.025980
 14 C s       :     3.198496  s :     3.198496
      pz      :     0.998488  p :     2.815060
      px      :     0.751583
      py      :     1.064989
      dz2     :     0.028853  d :     0.131542
      dxz     :     0.030100
      dyz     :     0.010168
      dx2y2   :     0.017251
      dxy     :     0.045169
      f0      :     0.001903  f :     0.011969
      f+1     :     0.002305
      f-1     :     0.000691
      f+2     :     0.001626
      f-2     :     0.001336
      f+3     :     0.002024
      f-3     :     0.002083
 15 H s       :     0.857903  s :     0.857903
      pz      :     0.005186  p :     0.022882
      px      :     0.006252
      py      :     0.011444
 16 H s       :     0.886255  s :     0.886255
      pz      :     0.006066  p :     0.022248
      px      :     0.006271
      py      :     0.009910
 17 H s       :     0.878254  s :     0.878254
      pz      :     0.013623  p :     0.022127
      px      :     0.003612
      py      :     0.004892


                     *******************************
                     * LOEWDIN POPULATION ANALYSIS *
                     *******************************

----------------------
LOEWDIN ATOMIC CHARGES
----------------------
   0 O :   -0.075346
   1 H :    0.198283
   2 C :   -0.371092
   3 H :    0.115009
   4 H :    0.106082
   5 H :    0.102954
   6 O :   -0.106101
   7 H :    0.191630
   8 C :   -0.386816
   9 H :    0.110043
  10 H :    0.096987
  11 H :    0.094375
  12 O :   -0.123989
  13 H :    0.156570
  14 C :   -0.396080
  15 H :    0.105025
  16 H :    0.089984
  17 H :    0.092482

-------------------------------
LOEWDIN REDUCED ORBITAL CHARGES
-------------------------------
  0 O s       :     3.385233  s :     3.385233
      pz      :     1.558100  p :     4.584822
      px      :     1.465633
      py      :     1.561088
      dz2     :     0.019804  d :     0.098088
      dxz     :     0.020098
      dyz     :     0.020763
      dx2y2   :     0.018091
      dxy     :     0.019332
      f0      :     0.001060  f :     0.007204
      f+1     :     0.000803
      f-1     :     0.001302
      f+2     :     0.001217
      f-2     :     0.001038
      f+3     :     0.000828
      f-3     :     0.000957
  1 H s       :     0.650909  s :     0.650909
      pz      :     0.036994  p :     0.150807
      px      :     0.074797
      py      :     0.039017
  2 C s       :     2.867632  s :     2.867632
      pz      :     0.939951  p :     3.018962
      px      :     1.104154
      py      :     0.974857
      dz2     :     0.091468  d :     0.424216
      dxz     :     0.103075
      dyz     :     0.091805
      dx2y2   :     0.078716
      dxy     :     0.059152
      f0      :     0.012948  f :     0.060282
      f+1     :     0.004048
      f-1     :     0.013227
      f+2     :     0.009590
      f-2     :     0.010241
      f+3     :     0.005505
      f-3     :     0.004722
  3 H s       :     0.820185  s :     0.820185
      pz      :     0.017617  p :     0.064806
      px      :     0.034720
      py      :     0.012469
  4 H s       :     0.828261  s :     0.828261
      pz      :     0.025050  p :     0.065658
      px      :     0.026023
      py      :     0.014585
  5 H s       :     0.832406  s :     0.832406
      pz      :     0.014176  p :     0.064639
      px      :     0.016678
      py      :     0.033785
  6 O s       :     3.390494  s :     3.390494
      pz      :     1.665958  p :     4.611022
      px      :     1.536286
      py      :     1.408778
      dz2     :     0.011411  d :     0.097402
      dxz     :     0.015944
      dyz     :     0.021806
      dx2y2   :     0.026277
      dxy     :     0.021964
      f0      :     0.000820  f :     0.007183
      f+1     :     0.000535
      f-1     :     0.000975
      f+2     :     0.001488
      f-2     :     0.000772
      f+3     :     0.001387
      f-3     :     0.001206
  7 H s       :     0.660150  s :     0.660150
      pz      :     0.053896  p :     0.148220
      px      :     0.065060
      py      :     0.029264
  8 C s       :     2.866073  s :     2.866073
      pz      :     1.090311  p :     3.020177
      px      :     1.094910
      py      :     0.834956
      dz2     :     0.072555  d :     0.438990
      dxz     :     0.037721
      dyz     :     0.111822
      dx2y2   :     0.092859
      dxy     :     0.124034
      f0      :     0.008141  f :     0.061576
      f+1     :     0.002253
      f-1     :     0.007952
      f+2     :     0.012112
      f-2     :     0.004945
      f+3     :     0.011690
      f-3     :     0.014483
  9 H s       :     0.825941  s :     0.825941
      pz      :     0.022875  p :     0.064016
      px      :     0.029363
      py      :     0.011778
 10 H s       :     0.838487  s :     0.838487
      pz      :     0.015443  p :     0.064526
      px      :     0.031031
      py      :     0.018052
 11 H s       :     0.841489  s :     0.841489
      pz      :     0.037813  p :     0.064135
      px      :     0.015515
      py      :     0.010807
 12 O s       :     3.382045  s :     3.382045
      pz      :     1.717760  p :     4.640129
      px      :     1.364198
      py      :     1.558172
      dz2     :     0.014536  d :     0.094782
      dxz     :     0.022395
      dyz     :     0.009727
      dx2y2   :     0.020910
      dxy     :     0.027214
      f0      :     0.000760  f :     0.007033
      f+1     :     0.001144
      f-1     :     0.000488
      f+2     :     0.001165
      f-2     :     0.000974
      f+3     :     0.001429
      f-3     :     0.001073
 13 H s       :     0.653204  s :     0.653204
      pz      :     0.047169  p :     0.190226
      px      :     0.049495
      py      :     0.093562
 14 C s       :     2.864953  s :     2.864953
      pz      :     1.057056  p :     3.022444
      px      :     0.869088
      py      :     1.096300
      dz2     :     0.110456  d :     0.446924
      dxz     :     0.103613
      dyz     :     0.022917
      dx2y2   :     0.071118
      dxy     :     0.138821
      f0      :     0.006998  f :     0.061757
      f+1     :     0.011278
      f-1     :     0.001478
      f+2     :     0.012497
      f-2     :     0.008427
      f+3     :     0.010829
      f-3     :     0.010250
 15 H s       :     0.831323  s :     0.831323
      pz      :     0.014627  p :     0.063652
      px      :     0.016266
      py      :     0.032759
 16 H s       :     0.846058  s :     0.846058
      pz      :     0.017273  p :     0.063957
      px      :     0.017525
      py      :     0.029160
 17 H s       :     0.843508  s :     0.843508
      pz      :     0.039864  p :     0.064010
      px      :     0.010032
      py      :     0.014114


                      *****************************
                      * MAYER POPULATION ANALYSIS *
                      *****************************

  NA   - Mulliken gross atomic population
  ZA   - Total nuclear charge
  QA   - Mulliken gross atomic charge
  VA   - Mayer's total valence
  BVA  - Mayer's bonded valence
  FA   - Mayer's free valence

  ATOM       NA         ZA         QA         VA         BVA        FA
  0 O      8.5125     8.0000    -0.5125     2.1636     1.7634     0.4001
  1 H      0.6562     1.0000     0.3438     0.8929     0.8419     0.0510
  2 C      6.1953     6.0000    -0.1953     3.9778     3.7009     0.2769
  3 H      0.8576     1.0000     0.1424     0.9672     0.9214     0.0459
  4 H      0.8583     1.0000     0.1417     0.9653     0.9186     0.0467
  5 H      0.8787     1.0000     0.1213     0.9657     0.9179     0.0478
  6 O      8.4988     8.0000    -0.4988     2.1435     1.7461     0.3974
  7 H      0.6760     1.0000     0.3240     0.9059     0.8532     0.0527
  8 C      6.1744     6.0000    -0.1744     4.0246     3.7487     0.2759
  9 H      0.8711     1.0000     0.1289     0.9617     0.9153     0.0465
 10 H      0.8856     1.0000     0.1144     0.9659     0.9176     0.0483
 11 H      0.8936     1.0000     0.1064     0.9627     0.9138     0.0489
 12 O      8.5340     8.0000    -0.5340     2.1046     1.7026     0.4021
 13 H      0.6610     1.0000     0.3390     0.9470     0.8977     0.0493
 14 C      6.1571     6.0000    -0.1571     4.0455     3.7669     0.2786
 15 H      0.8808     1.0000     0.1192     0.9615     0.9142     0.0473
 16 H      0.9085     1.0000     0.0915     0.9619     0.9121     0.0498
 17 H      0.9004     1.0000     0.0996     0.9663     0.9170     0.0493

  Mayer bond orders larger than 0.100000
B(  0-O ,  1-H ) :   0.8284 B(  0-O ,  2-C ) :   0.8697 B(  0-O , 13-H ) :   0.1027 
B(  2-C ,  3-H ) :   0.9392 B(  2-C ,  4-H ) :   0.9403 B(  2-C ,  5-H ) :   0.9328 
B(  6-O ,  7-H ) :   0.8405 B(  6-O ,  8-C ) :   0.9247 B(  8-C ,  9-H ) :   0.9374 
B(  8-C , 10-H ) :   0.9406 B(  8-C , 11-H ) :   0.9371 B( 12-O , 13-H ) :   0.7892 
B( 12-O , 14-C ) :   0.9428 B( 14-C , 15-H ) :   0.9415 B( 14-C , 16-H ) :   0.9366 
B( 14-C , 17-H ) :   0.9411 


----------------------------------
MP2 DERIVATIVE INTEGRAL GENERATION
----------------------------------


Input Wavefunction Amplitudes       ... 12meoh.boyd.etal.mol2,9,10-orca.engrad-mp2.def2tzvp.frozencore.mp2tsaa.tmp
Input Correlated Electron Density   ... 12meoh.boyd.etal.mol2,9,10-orca.engrad-mp2.def2tzvp.frozencore.pmp2re
Input Energy Weighted Density       ... 12meoh.boyd.etal.mol2,9,10-orca.engrad-mp2.def2tzvp.frozencore.wmp2.tmp
Input SCF Electron Density          ... 12meoh.boyd.etal.mol2,9,10-orca.engrad-mp2.def2tzvp.frozencore.scfp

One-Electron Terms    ...
                        ... One-Electron Terms done
Prescreening matrices              ... done

Batch handling in the gradient evaluation:
Memory available                      ... 8000.0 MB
Memory per occupied orbital in Q2     ...   10.7 MB
Memory per occupied orbital in Q3     ...    0.1 MB
Total memory requirement per |i>      ...   10.8 MB
Max. Number of orbitals possible      ...    743
Number of orbitals treated per batch  ...     21
Number of batches to be done          ...      1
Batch   0: i=    6 ...    26

---------------------------------------
MP2 TOTAL ENERGY:     -346.530180202 Eh
---------------------------------------

The final MP2 gradient
  0:  -0.02376701   0.00507159  -0.00777743
  1:   0.02087024  -0.00846952   0.00607329
  2:  -0.00235775  -0.00735312   0.00357937
  3:  -0.00324551   0.00259105  -0.00255147
  4:   0.00337582  -0.00075847  -0.00182425
  5:   0.00113183   0.00448938   0.00131952
  6:  -0.01765885   0.01098476  -0.01370495
  7:   0.02189761  -0.01117057   0.01487567
  8:  -0.00362904  -0.00511041  -0.00307954
  9:  -0.00308824   0.00318324  -0.00169215
 10:   0.00338923   0.00057746  -0.00048052
 11:  -0.00053019   0.00148973   0.00389022
 12:  -0.00398370  -0.00840997  -0.00401831
 13:   0.01281936   0.01495950   0.00317096
 14:  -0.00326969  -0.00219997   0.00150127
 15:  -0.00186433  -0.00266559  -0.00078552
 16:   0.00014984   0.00205821  -0.00164797
 17:  -0.00023962   0.00073271   0.00315179

-----------------------------------
NORM OF THE MP2 GRADIENT:  0.058517
-----------------------------------

-------------------------   --------------------
FINAL SINGLE POINT ENERGY      -346.530180201853
-------------------------   --------------------


                            ***************************************
                            *     ORCA property calculations      *
                            ***************************************

                                    ---------------------
                                    Active property flags
                                    ---------------------
   (+) Dipole Moment


------------------------------------------------------------------------------
                       ORCA ELECTRIC PROPERTIES CALCULATION
------------------------------------------------------------------------------

Dipole Moment Calculation                       ... on
Quadrupole Moment Calculation                   ... off
Polarizability Calculation                      ... off
GBWName                                         ... 12meoh.boyd.etal.mol2,9,10-orca.engrad-mp2.def2tzvp.frozencore.gbw
Electron density file                           ... 12meoh.boyd.etal.mol2,9,10-orca.engrad-mp2.def2tzvp.frozencore.scfp
The origin for moment calculation is the CENTER OF MASS  = (-5.170927,  4.218989 -0.727728)

-------------
DIPOLE MOMENT
-------------
                                X             Y             Z
Electronic contribution:      1.62848      -2.81531       0.18411
Nuclear contribution   :     -0.46829       4.26389       0.40251
                        -----------------------------------------
Total Dipole Moment    :      1.16019       1.44858       0.58662
                        -----------------------------------------
Magnitude (a.u.)       :      1.94642
Magnitude (Debye)      :      4.94740



--------------------
Rotational spectrum 
--------------------
 
Rotational constants in cm-1:     0.198496     0.014682     0.014063 
Rotational constants in MHz :  5950.771216   440.164298   421.610840 

 Dipole components along the rotational axes: 
x,y,z [a.u.] :    -1.524082    -1.028401    -0.638836 
x,y,z [Debye]:    -3.873909    -2.613987    -1.623793 

 

                         *** MP2 UNRELAXED DENSITY ***

------------------------------------------------------------------------------
                       ORCA ELECTRIC PROPERTIES CALCULATION
------------------------------------------------------------------------------

Dipole Moment Calculation                       ... on
Quadrupole Moment Calculation                   ... off
Polarizability Calculation                      ... off
GBWName                                         ... 12meoh.boyd.etal.mol2,9,10-orca.engrad-mp2.def2tzvp.frozencore.gbw
Electron density file                           ... 12meoh.boyd.etal.mol2,9,10-orca.engrad-mp2.def2tzvp.frozencore.pmp2ur
The origin for moment calculation is the CENTER OF MASS  = (-5.170927,  4.218989 -0.727728)

-------------
DIPOLE MOMENT
-------------
                                X             Y             Z
Electronic contribution:      1.62193      -2.83944       0.17548
Nuclear contribution   :     -0.46829       4.26389       0.40251
                        -----------------------------------------
Total Dipole Moment    :      1.15364       1.42445       0.57798
                        -----------------------------------------
Magnitude (a.u.)       :      1.92198
Magnitude (Debye)      :      4.88529



--------------------
Rotational spectrum 
--------------------
 
Rotational constants in cm-1:     0.198496     0.014682     0.014063 
Rotational constants in MHz :  5950.771216   440.164298   421.610840 

 Dipole components along the rotational axes: 
x,y,z [a.u.] :    -1.509711    -1.006940    -0.633137 
x,y,z [Debye]:    -3.837380    -2.559438    -1.609306 

 

                           *** MP2 RELAXED DENSITY ***

------------------------------------------------------------------------------
                       ORCA ELECTRIC PROPERTIES CALCULATION
------------------------------------------------------------------------------

Dipole Moment Calculation                       ... on
Quadrupole Moment Calculation                   ... off
Polarizability Calculation                      ... off
GBWName                                         ... 12meoh.boyd.etal.mol2,9,10-orca.engrad-mp2.def2tzvp.frozencore.gbw
Electron density file                           ... 12meoh.boyd.etal.mol2,9,10-orca.engrad-mp2.def2tzvp.frozencore.pmp2re
The origin for moment calculation is the CENTER OF MASS  = (-5.170927,  4.218989 -0.727728)

-------------
DIPOLE MOMENT
-------------
                                X             Y             Z
Electronic contribution:      1.62063      -2.86824       0.16700
Nuclear contribution   :     -0.46829       4.26389       0.40251
                        -----------------------------------------
Total Dipole Moment    :      1.15233       1.39566       0.56951
                        -----------------------------------------
Magnitude (a.u.)       :      1.89739
Magnitude (Debye)      :      4.82277



--------------------
Rotational spectrum 
--------------------
 
Rotational constants in cm-1:     0.198496     0.014682     0.014063 
Rotational constants in MHz :  5950.771216   440.164298   421.610840 

 Dipole components along the rotational axes: 
x,y,z [a.u.] :    -1.497916    -0.979481    -0.630030 
x,y,z [Debye]:    -3.807401    -2.489643    -1.601408 

 

Timings for individual modules:

Sum of individual times         ...       63.039 sec (=   1.051 min)
GTO integral calculation        ...        1.339 sec (=   0.022 min)   2.1 %
SCF iterations                  ...       13.774 sec (=   0.230 min)  21.9 %
MP2 module                      ...       47.926 sec (=   0.799 min)  76.0 %
                             ****ORCA TERMINATED NORMALLY****
TOTAL RUN TIME: 0 days 0 hours 1 minutes 3 seconds 997 msec
