
                                 *****************
                                 * O   R   C   A *
                                 *****************

           --- An Ab Initio, DFT and Semiempirical electronic structure package ---

                  #######################################################
                  #                        -***-                        #
                  #  Department of molecular theory and spectroscopy    #
                  #              Directorship: Frank Neese              #
                  # Max Planck Institute for Chemical Energy Conversion #
                  #                  D-45470 Muelheim/Ruhr              #
                  #                       Germany                       #
                  #                                                     #
                  #                  All rights reserved                #
                  #                        -***-                        #
                  #######################################################


                         Program Version 3.0.3 - RELEASE   -


 With contributions from (in alphabetic order):
   Ute Becker             : Parallelization
   Dmytro Bykov           : SCF Hessian
   Dmitry Ganyushin       : Spin-Orbit,Spin-Spin,Magnetic field MRCI
   Andreas Hansen         : Spin unrestricted coupled pair/coupled cluster methods
   Dimitrios Liakos       : Extrapolation schemes; parallel MDCI
   Robert Izsak           : Overlap fitted RIJCOSX, COSX-SCS-MP3
   Christian Kollmar      : KDIIS, OOCD, Brueckner-CCSD(T), CCSD density
   Simone Kossmann        : Meta GGA functionals, TD-DFT gradient, OOMP2, MP2 Hessian
   Taras Petrenko         : DFT Hessian,TD-DFT gradient, ASA and ECA modules, normal mode analysis, Resonance Raman, ABS, FL, XAS/XES, NRVS
   Christoph Reimann      : Effective Core Potentials
   Michael Roemelt        : Restricted open shell CIS
   Christoph Riplinger    : Improved optimizer, TS searches, QM/MM, DLPNO-CCSD
   Barbara Sandhoefer     : DKH picture change effects
   Igor Schapiro          : Molecular dynamics
   Kantharuban Sivalingam : CASSCF convergence, NEVPT2
   Boris Wezisla          : Elementary symmetry handling
   Frank Wennmohs         : Technical directorship


 We gratefully acknowledge several colleagues who have allowed us to
 interface, adapt or use parts of their codes:
   Stefan Grimme, W. Hujo, H. Kruse, T. Risthaus : VdW corrections, initial TS optimization,
                                                   DFT functionals, gCP
   Ed Valeev                                     : LibInt (2-el integral package), F12 methods
   Garnet Chan, S. Sharma, R. Olivares           : DMRG
   Ulf Ekstrom                                   : XCFun DFT Library
   Mihaly Kallay                                 : mrcc  (arbitrary order and MRCC methods)
   Andreas Klamt, Michael Diedenhofen            : otool_cosmo (COSMO solvation model)
   Frank Weinhold                                : gennbo (NPA and NBO analysis)
   Christopher J. Cramer and Donald G. Truhlar   : smd solvation model


 Your calculation uses the libint2 library for the computation of 2-el integrals
 For citations please refer to: http://libint.valeyev.net

 This ORCA versions uses:
   CBLAS   interface :  Fast vector & matrix operations
   LAPACKE interface :  Fast linear algebra routines
   SCALAPACK package :  Parallel linear algebra routines


Your calculation utilizes the basis: Ahlrichs-TZV
Cite in your paper:
H - Kr: A. Schaefer, H. Horn and R. Ahlrichs, J. Chem. Phys. 97, 2571 (1992).

The def2-TZV basis will be loaded
Cite in your paper:
 	F. Weigend, R. Ahlrichs, Phys. Chem. Chem. Phys. 2005, 7, 3297.

Your calculation utilizes the atom-pairwise dispersion correction
with the Becke-Johnson damping scheme (D3BJ)
Cite in your paper:
S.Grimme, S.Ehrlich, L.Goerigk, J Comput Chem, (2011), 32, 1456–1465 
S.Grimme, J.Antony, S.Ehrlich and H.Krieg, J.Chem.Phys., 132, (2010), 154104 
   

================================================================================
                                        WARNINGS
                       Please study these warnings very carefully!
================================================================================
Now building the actual basis set


INFO   : the flag for use of LIBINT has been found!

================================================================================
                                       INPUT FILE
================================================================================
NAME = 2_B3LYP_SMD_onBP86_SMD_12_waters.inp
|  1> ! B3LYP Def2-TZVP def2-TZVP/J RIJCOSX TightSCF Grid4 D3BJ COSMO
|  2> 
|  3> %pal nprocs 12 end
|  4> 
|  5> %scf
|  6>         maxiter 400
|  7> end
|  8> 
|  9> %cosmo
| 10>         SMD true
| 11>         solvent "WATER"
| 12> end
| 13> 
| 14> * xyz  0  1
| 15> O  2.264033	2.275973	-0.300381
| 16> H  2.880956	3.018420	-0.146502
| 17> H  1.405883	2.694270	-0.677358
| 18> O  -0.111497	-1.088162	3.140692
| 19> H  0.471981	-0.412604	2.701754
| 20> H  -1.032224	-0.776807	2.889644
| 21> O  0.205920	1.026943	-3.063739
| 22> H  1.154385	0.726689	-2.810375
| 23> H  0.200188	1.118770	-4.036950
| 24> O  -2.466241	-0.346180	2.042600
| 25> H  -2.545732	-1.121451	1.368453
| 26> H  -3.323078	-0.307986	2.510975
| 27> O  2.533885	0.293625	-2.121666
| 28> H  2.231179	-0.469617	-1.560279
| 29> H  2.601494	1.045033	-1.460442
| 30> O  1.171295	-1.389130	-0.458004
| 31> H  0.284480	-1.119961	-0.871461
| 32> H  0.908637	-2.149509	0.146213
| 33> O  1.177093	0.535381	1.366800
| 34> H  1.722330	1.263323	0.935090
| 35> H  1.245461	-0.221434	0.690724
| 36> O  -1.151888	-0.508956	-1.396847
| 37> H  -0.791094	-0.023842	-2.200997
| 38> H  -1.231626	0.233814	-0.706997
| 39> O  -2.402285	-2.263426	0.281535
| 40> H  -2.081668	-1.746378	-0.505364
| 41> H  -1.561066	-2.683361	0.632158
| 42> O  -0.004395	-2.952331	1.316150
| 43> H  -0.007866	-2.292573	2.106396
| 44> H  0.247768	-3.819081	1.690674
| 45> O  -1.191861	1.358516	0.487055
| 46> H  -0.294091	1.100563	0.883794
| 47> H  -1.838965	0.908390	1.112785
| 48> O  -0.028973	3.063231	-1.295306
| 49> H  -0.624884	2.619277	-0.633180
| 50> H  -0.017530	2.410572	-2.057644
| 51> **                         ****END OF INPUT****
================================================================================

                       ****************************
                       * Single Point Calculation *
                       ****************************

---------------------------------
CARTESIAN COORDINATES (ANGSTROEM)
---------------------------------
  O      2.264033    2.275973   -0.300381
  H      2.880956    3.018420   -0.146502
  H      1.405883    2.694270   -0.677358
  O     -0.111497   -1.088162    3.140692
  H      0.471981   -0.412604    2.701754
  H     -1.032224   -0.776807    2.889644
  O      0.205920    1.026943   -3.063739
  H      1.154385    0.726689   -2.810375
  H      0.200188    1.118770   -4.036950
  O     -2.466241   -0.346180    2.042600
  H     -2.545732   -1.121451    1.368453
  H     -3.323078   -0.307986    2.510975
  O      2.533885    0.293625   -2.121666
  H      2.231179   -0.469617   -1.560279
  H      2.601494    1.045033   -1.460442
  O      1.171295   -1.389130   -0.458004
  H      0.284480   -1.119961   -0.871461
  H      0.908637   -2.149509    0.146213
  O      1.177093    0.535381    1.366800
  H      1.722330    1.263323    0.935090
  H      1.245461   -0.221434    0.690724
  O     -1.151888   -0.508956   -1.396847
  H     -0.791094   -0.023842   -2.200997
  H     -1.231626    0.233814   -0.706997
  O     -2.402285   -2.263426    0.281535
  H     -2.081668   -1.746378   -0.505364
  H     -1.561066   -2.683361    0.632158
  O     -0.004395   -2.952331    1.316150
  H     -0.007866   -2.292573    2.106396
  H      0.247768   -3.819081    1.690674
  O     -1.191861    1.358516    0.487055
  H     -0.294091    1.100563    0.883794
  H     -1.838965    0.908390    1.112785
  O     -0.028973    3.063231   -1.295306
  H     -0.624884    2.619277   -0.633180
  H     -0.017530    2.410572   -2.057644

----------------------------
CARTESIAN COORDINATES (A.U.)
----------------------------
  NO LB      ZA    FRAG    MASS        X           Y           Z
   0 O     8.0000    0    15.999          4.278402328160133          4.300965658199153         -0.567637825833400
   1 H     1.0000    0     1.008          5.444217843877233          5.703987157150584         -0.276848658071731
   2 H     1.0000    0     1.008          2.656733846335611          5.091432430840011         -1.280021114620631
   3 O     8.0000    0    15.999         -0.210698794753818         -2.056328169340017          5.935047750997404
   4 H     1.0000    0     1.008          0.891914830414286         -0.779708561760444          5.105575141226278
   5 H     1.0000    0     1.008         -1.950620668860730         -1.467952488912966          5.460635784528741
   6 O     8.0000    0    15.999          0.389132405497064          1.940641025147492         -5.789627655813762
   7 H     1.0000    0     1.008          2.181471503106684          1.373243194533101         -5.310839083618938
   8 H     1.0000    0     1.008          0.378300495297428          2.114168906847079         -7.628729916333397
   9 O     8.0000    0    15.999         -4.660520070248082         -0.654185393040859          3.859954601147549
  10 H     1.0000    0     1.008         -4.810736290359616         -2.119235262612122          2.586001397142939
  11 H     1.0000    0     1.008         -6.279707341658765         -0.582009193081871          4.745055079122915
  12 O     8.0000    0    15.999          4.788348704851051          0.554870836072628         -4.009367687652166
  13 H     1.0000    0     1.008          4.216317265756285         -0.887447517833696         -2.948500002508517
  14 H     1.0000    0     1.008          4.916111199039333          1.974826170910128         -2.759835414476221
  15 O     8.0000    0    15.999          2.213426772031292         -2.625075264414028         -0.865502128240469
  16 H     1.0000    0     1.008          0.537589290577918         -2.116419570672579         -1.646822626393148
  17 H     1.0000    0     1.008          1.717075085147804         -4.061983332398936          0.276302527219028
  18 O     8.0000    0    15.999          2.224383404155768          1.011723467304894          2.582877679843567
  19 H     1.0000    0     1.008          3.254732012236589          2.387334488683797          1.767064010568423
  20 H     1.0000    0     1.008          2.353580200479696         -0.418449616738718          1.305279194126623
  21 O     8.0000    0    15.999         -2.176752856950283         -0.961787454216025         -2.639658280989499
  22 H     1.0000    0     1.008         -1.494951006188299         -0.045054850484950         -4.159281551582273
  23 H     1.0000    0     1.008         -2.327435839416896          0.441844426276664         -1.336030707503923
  24 O     8.0000    0    15.999         -4.539660745627014         -4.277255264396842          0.532024047113520
  25 H     1.0000    0     1.008         -3.933782421747584         -3.300176146305128         -0.954999557942980
  26 H     1.0000    0     1.008         -2.949987216975913         -5.070817408445064          1.194605493367391
  27 O     8.0000    0    15.999         -0.008305346358584         -5.579097046685863          2.487163051160455
  28 H     1.0000    0     1.008         -0.014864585769425         -4.332335112022245          3.980511569587189
  29 H     1.0000    0     1.008          0.468213664749401         -7.217017173262108          3.194910841741178
  30 O     8.0000    0    15.999         -2.252290879701517          2.567223188550163          0.920400562157015
  31 H     1.0000    0     1.008         -0.555751448451035          2.079762663126774          1.670128618802799
  32 H     1.0000    0     1.008         -3.475140219866494          1.716608322792726          2.102858895935560
  33 O     8.0000    0    15.999         -0.054751035278100          5.788667674937730         -2.447773599625001
  34 H     1.0000    0     1.008         -1.180859625469247          4.949716198878854         -1.196536793476258
  35 H     1.0000    0     1.008         -0.033126899127640          4.555320906098820         -3.888383641106260

--------------------------------
INTERNAL COORDINATES (ANGSTROEM)
--------------------------------
 O      0   0   0   0.000000     0.000     0.000
 H      1   0   0   0.977497     0.000     0.000
 H      1   2   0   1.026404   106.018     0.000
 O      1   2   3   5.366706   130.885   245.487
 H      4   1   2   0.994732    14.467   345.398
 H      4   1   2   1.003845    92.936   117.543
 O      3   1   2   3.148762   112.406   137.660
 H      7   3   1   1.026612    67.403   348.302
 H      7   3   1   0.977550   134.992   257.695
 O      6   4   1   1.720270   164.875    54.022
 H     10   6   4   1.030455   101.426    41.944
 H     10   6   4   0.977243   120.310   158.272
 O      8   7   3   1.601526   168.818    41.534
 H     13   8   7   0.994648   100.840    57.641
 H     13   8   7   1.003196    97.987   312.784
 O     14  13   8   1.784340   157.649   318.696
 H     16  14  13   1.014810    97.510    40.094
 H     16  14  13   1.006103   156.280   187.678
 O      5   4   6   1.782684   157.457   300.484
 H     19   5   4   1.006755   156.901   170.629
 H     19   5   4   1.017114    97.392   320.043
 O     17  16  14   1.646970   172.095   269.860
 H     22  17  16   1.006064    96.956    98.514
 H     22  17  16   1.016837    97.063   354.829
 O     11  10   6   1.583059   170.039   311.866
 H     25  11  10   0.994658   101.385   303.184
 H     25  11  10   1.003460    97.929    48.164
 O     18  16  14   1.687277   156.532   165.605
 H     28  18  16   1.029457   103.247   306.887
 H     28  18  16   0.977297   123.236   187.406
 O     24  22  17   1.640822   172.980   356.231
 H     31  24  22   1.014856    97.568     5.804
 H     31  24  22   1.006427    97.487   262.317
 O      3   1   2   1.605243   169.231   175.610
 H     34   3   1   0.995297   100.169    57.439
 H     34   3   1   1.003620    97.628   312.863

---------------------------
INTERNAL COORDINATES (A.U.)
---------------------------
 O      0   0   0   0.000000     0.000     0.000
 H      1   0   0   1.847202     0.000     0.000
 H      1   2   0   1.939623   106.018     0.000
 O      1   2   3  10.141604   130.885   245.487
 H      4   1   2   1.879771    14.467   345.398
 H      4   1   2   1.896993    92.936   117.543
 O      3   1   2   5.950299   112.406   137.660
 H      7   3   1   1.940015    67.403   348.302
 H      7   3   1   1.847302   134.992   257.695
 O      6   4   1   3.250839   164.875    54.022
 H     10   6   4   1.947278   101.426    41.944
 H     10   6   4   1.846721   120.310   158.272
 O      8   7   3   3.026445   168.818    41.534
 H     13   8   7   1.879612   100.840    57.641
 H     13   8   7   1.895766    97.987   312.784
 O     14  13   8   3.371914   157.649   318.696
 H     16  14  13   1.917713    97.510    40.094
 H     16  14  13   1.901259   156.280   187.678
 O      5   4   6   3.368784   157.457   300.484
 H     19   5   4   1.902492   156.901   170.629
 H     19   5   4   1.922068    97.392   320.043
 O     17  16  14   3.112322   172.095   269.860
 H     22  17  16   1.901186    96.956    98.514
 H     22  17  16   1.921544    97.063   354.829
 O     11  10   6   2.991547   170.039   311.866
 H     25  11  10   1.879631   101.385   303.184
 H     25  11  10   1.896264    97.929    48.164
 O     18  16  14   3.188491   156.532   165.605
 H     28  18  16   1.945392   103.247   306.887
 H     28  18  16   1.846824   123.236   187.406
 O     24  22  17   3.100704   172.980   356.231
 H     31  24  22   1.917800    97.568     5.804
 H     31  24  22   1.901871    97.487   262.317
 O      3   1   2   3.033469   169.231   175.610
 H     34   3   1   1.880839   100.169    57.439
 H     34   3   1   1.896568    97.628   312.863

---------------------
BASIS SET INFORMATION
---------------------
There are 2 groups of distinct atoms

 Group   1 Type O   : 11s6p2d1f contracted to 5s3p2d1f pattern {62111/411/11/1}
 Group   2 Type H   : 5s1p contracted to 3s1p pattern {311/1}

Atom   0O    basis set group =>   1
Atom   1H    basis set group =>   2
Atom   2H    basis set group =>   2
Atom   3O    basis set group =>   1
Atom   4H    basis set group =>   2
Atom   5H    basis set group =>   2
Atom   6O    basis set group =>   1
Atom   7H    basis set group =>   2
Atom   8H    basis set group =>   2
Atom   9O    basis set group =>   1
Atom  10H    basis set group =>   2
Atom  11H    basis set group =>   2
Atom  12O    basis set group =>   1
Atom  13H    basis set group =>   2
Atom  14H    basis set group =>   2
Atom  15O    basis set group =>   1
Atom  16H    basis set group =>   2
Atom  17H    basis set group =>   2
Atom  18O    basis set group =>   1
Atom  19H    basis set group =>   2
Atom  20H    basis set group =>   2
Atom  21O    basis set group =>   1
Atom  22H    basis set group =>   2
Atom  23H    basis set group =>   2
Atom  24O    basis set group =>   1
Atom  25H    basis set group =>   2
Atom  26H    basis set group =>   2
Atom  27O    basis set group =>   1
Atom  28H    basis set group =>   2
Atom  29H    basis set group =>   2
Atom  30O    basis set group =>   1
Atom  31H    basis set group =>   2
Atom  32H    basis set group =>   2
Atom  33O    basis set group =>   1
Atom  34H    basis set group =>   2
Atom  35H    basis set group =>   2
-------------------------------
AUXILIARY BASIS SET INFORMATION
-------------------------------
There are 2 groups of distinct atoms

 Group   1 Type O   : 12s5p4d2f1g contracted to 6s4p3d1f1g pattern {711111/2111/211/2/1}
 Group   2 Type H   : 5s2p1d contracted to 3s1p1d pattern {311/2/1}

Atom   0O    basis set group =>   1
Atom   1H    basis set group =>   2
Atom   2H    basis set group =>   2
Atom   3O    basis set group =>   1
Atom   4H    basis set group =>   2
Atom   5H    basis set group =>   2
Atom   6O    basis set group =>   1
Atom   7H    basis set group =>   2
Atom   8H    basis set group =>   2
Atom   9O    basis set group =>   1
Atom  10H    basis set group =>   2
Atom  11H    basis set group =>   2
Atom  12O    basis set group =>   1
Atom  13H    basis set group =>   2
Atom  14H    basis set group =>   2
Atom  15O    basis set group =>   1
Atom  16H    basis set group =>   2
Atom  17H    basis set group =>   2
Atom  18O    basis set group =>   1
Atom  19H    basis set group =>   2
Atom  20H    basis set group =>   2
Atom  21O    basis set group =>   1
Atom  22H    basis set group =>   2
Atom  23H    basis set group =>   2
Atom  24O    basis set group =>   1
Atom  25H    basis set group =>   2
Atom  26H    basis set group =>   2
Atom  27O    basis set group =>   1
Atom  28H    basis set group =>   2
Atom  29H    basis set group =>   2
Atom  30O    basis set group =>   1
Atom  31H    basis set group =>   2
Atom  32H    basis set group =>   2
Atom  33O    basis set group =>   1
Atom  34H    basis set group =>   2
Atom  35H    basis set group =>   2
smp-n35.crc.pitt.edu.66866hfi_wait_for_device: The /dev/hfi1_0 device failed to appear after 15.0 seconds: Connection timed out
smp-n35.crc.pitt.edu.66864hfi_wait_for_device: The /dev/hfi1_0 device failed to appear after 15.0 seconds: Connection timed out
smp-n35.crc.pitt.edu.66862hfi_wait_for_device: The /dev/hfi1_0 device failed to appear after 15.0 seconds: Connection timed out
smp-n35.crc.pitt.edu.66863hfi_wait_for_device: The /dev/hfi1_0 device failed to appear after 15.0 seconds: Connection timed out
smp-n35.crc.pitt.edu.66865hfi_wait_for_device: The /dev/hfi1_0 device failed to appear after 15.0 seconds: Connection timed out
smp-n35.crc.pitt.edu.66868hfi_wait_for_device: The /dev/hfi1_0 device failed to appear after 15.0 seconds: Connection timed out
smp-n35.crc.pitt.edu.66874hfi_wait_for_device: The /dev/hfi1_0 device failed to appear after 15.0 seconds: Connection timed out
smp-n35.crc.pitt.edu.66877hfi_wait_for_device: The /dev/hfi1_0 device failed to appear after 15.0 seconds: Connection timed out
smp-n35.crc.pitt.edu.66867hfi_wait_for_device: The /dev/hfi1_0 device failed to appear after 15.0 seconds: Connection timed out
smp-n35.crc.pitt.edu.66873hfi_wait_for_device: The /dev/hfi1_0 device failed to appear after 15.0 seconds: Connection timed out
smp-n35.crc.pitt.edu.66870hfi_wait_for_device: The /dev/hfi1_0 device failed to appear after 15.0 seconds: Connection timed out
smp-n35.crc.pitt.edu.66878hfi_wait_for_device: The /dev/hfi1_0 device failed to appear after 15.0 seconds: Connection timed out


           ************************************************************
           *        Program running with 12 parallel MPI-processes    *
           *              working on a common directory               *
           ************************************************************
------------------------------------------------------------------------------
                           ORCA GTO INTEGRAL CALCULATION
                           -- RI-GTO INTEGRALS CHOSEN --
------------------------------------------------------------------------------

                         BASIS SET STATISTICS AND STARTUP INFO

Gaussian basis set:
 # of primitive gaussian shells          ...  384
 # of primitive gaussian functions       ...  744
 # of contracted shells                  ...  228
 # of contracted basis functions         ...  516
 Highest angular momentum                ...    3
 Maximum contraction depth               ...    6
Auxiliary gaussian basis set:
 # of primitive gaussian shells          ...  480
 # of primitive gaussian functions       ... 1224
 # of contracted shells                  ...  300
 # of contracted aux-basis functions     ...  852
 Highest angular momentum                ...    4
 Maximum contraction depth               ...    7
Ratio of auxiliary to basis functions    ...  1.65
Integral package used                  ... LIBINT
 One Electron integrals                  ... done
 Ordering auxiliary basis shells         ... done
 Integral threshhold             Thresh  ...  2.500e-11
 Primitive cut-off               TCut    ...  2.500e-12
 Pre-screening matrix                    ... done
 Shell pair data                         ... 
 Ordering of the shell pairs             ... done (   0.003 sec) 19907 of 26106 pairs
 Determination of significant pairs      ... done (   0.000 sec)
 Creation of shell pair data             ... done (   0.002 sec)
 Storage of shell pair data              ... done (   0.003 sec)
 Shell pair data done in (   0.008 sec)
 Computing two index integrals           ... done
 Cholesky decomposition of the V-matrix  ... done


Timings:
 Total evaluation time                   ...   0.367 sec (  0.006 min)
 One electron matrix time                ...   0.110 sec (  0.002 min) = 29.9%
 Schwartz matrix evaluation time         ...   0.200 sec (  0.003 min) = 54.5%
 Two index repulsion integral time       ...   0.020 sec (  0.000 min) =  5.6%
 Cholesky decomposition of V             ...   0.015 sec (  0.000 min) =  4.2%
 Three index repulsion integral time     ...   0.000 sec (  0.000 min) =  0.0%

           ************************************************************
           *              Shut down parallel processing               *
           ************************************************************
smp-n35.crc.pitt.edu.66888hfi_wait_for_device: The /dev/hfi1_0 device failed to appear after 15.0 seconds: Connection timed out
smp-n35.crc.pitt.edu.66892hfi_wait_for_device: The /dev/hfi1_0 device failed to appear after 15.0 seconds: Connection timed out
smp-n35.crc.pitt.edu.66893hfi_wait_for_device: The /dev/hfi1_0 device failed to appear after 15.0 seconds: Connection timed out
smp-n35.crc.pitt.edu.66899hfi_wait_for_device: The /dev/hfi1_0 device failed to appear after 15.0 seconds: Connection timed out
smp-n35.crc.pitt.edu.66889hfi_wait_for_device: The /dev/hfi1_0 device failed to appear after 15.0 seconds: Connection timed out
smp-n35.crc.pitt.edu.66891hfi_wait_for_device: The /dev/hfi1_0 device failed to appear after 15.0 seconds: Connection timed out
smp-n35.crc.pitt.edu.66890hfi_wait_for_device: The /dev/hfi1_0 device failed to appear after 15.0 seconds: Connection timed out
smp-n35.crc.pitt.edu.66894hfi_wait_for_device: The /dev/hfi1_0 device failed to appear after 15.0 seconds: Connection timed out
smp-n35.crc.pitt.edu.66896hfi_wait_for_device: The /dev/hfi1_0 device failed to appear after 15.0 seconds: Connection timed out
smp-n35.crc.pitt.edu.66903hfi_wait_for_device: The /dev/hfi1_0 device failed to appear after 15.0 seconds: Connection timed out
smp-n35.crc.pitt.edu.66901hfi_wait_for_device: The /dev/hfi1_0 device failed to appear after 15.0 seconds: Connection timed out
smp-n35.crc.pitt.edu.66905hfi_wait_for_device: The /dev/hfi1_0 device failed to appear after 15.0 seconds: Connection timed out


           ************************************************************
           *        Program running with 12 parallel MPI-processes    *
           *              working on a common directory               *
           ************************************************************
-------------------------------------------------------------------------------
                                 ORCA SCF
-------------------------------------------------------------------------------

------------
SCF SETTINGS
------------
Hamiltonian:
 Density Functional     Method          .... DFT(GTOs)
 Exchange Functional    Exchange        .... B88
   X-Alpha parameter    XAlpha          ....  0.666667
   Becke's b parameter  XBeta           ....  0.004200
 Correlation Functional Correlation     .... LYP
 LDA part of GGA corr.  LDAOpt          .... VWN-5
 Gradients option       PostSCFGGA      .... off
 Hybrid DFT is turned on
   Fraction HF Exchange ScalHFX         ....  0.200000
   Scaling of DF-GGA-X  ScalDFX         ....  0.720000
   Scaling of DF-GGA-C  ScalDFC         ....  0.810000
   Scaling of DF-LDA-C  ScalLDAC        ....  1.000000
   Perturbative correction              ....  0.000000
   NL short-range parameter             ....  4.800000
 RI-approximation to the Coulomb term is turned on
   Number of auxiliary basis functions  .... 852
   RIJ-COSX (HFX calculated with COS-X)).... on


General Settings:
 Integral files         IntName         .... 2_B3LYP_SMD_onBP86_SMD_12_waters
 Hartree-Fock type      HFTyp           .... RHF
 Total Charge           Charge          ....    0
 Multiplicity           Mult            ....    1
 Number of Electrons    NEL             ....  120
 Basis Dimension        Dim             ....  516
 Nuclear Repulsion      ENuc            ....   1055.8858484595 Eh

Convergence Acceleration:
 DIIS                   CNVDIIS         .... on
   Start iteration      DIISMaxIt       ....    12
   Startup error        DIISStart       ....  0.200000
   # of expansion vecs  DIISMaxEq       ....     5
   Bias factor          DIISBfac        ....   1.050
   Max. coefficient     DIISMaxC        ....  10.000
 Newton-Raphson         CNVNR           .... off
 SOSCF                  CNVSOSCF        .... on
   Start iteration      SOSCFMaxIt      ....   150
   Startup grad/error   SOSCFStart      ....  0.003300
 Level Shifting         CNVShift        .... on
   Level shift para.    LevelShift      ....    0.2500
   Turn off err/grad.   ShiftErr        ....    0.0010
 Zerner damping         CNVZerner       .... off
 Static damping         CNVDamp         .... on
   Fraction old density DampFac         ....    0.7000
   Max. Damping (<1)    DampMax         ....    0.9800
   Min. Damping (>=0)   DampMin         ....    0.0000
   Turn off err/grad.   DampErr         ....    0.1000
 Fernandez-Rico         CNVRico         .... off

SCF Procedure:
 Maximum # iterations   MaxIter         ....   400
 SCF integral mode      SCFMode         .... Direct
   Integral package                     .... LIBINT
 Reset frequeny         DirectResetFreq ....    20
 Integral Threshold     Thresh          ....  2.500e-11 Eh
 Primitive CutOff       TCut            ....  2.500e-12 Eh

Convergence Tolerance:
 Convergence Check Mode ConvCheckMode   .... Total+1el-Energy
 Energy Change          TolE            ....  1.000e-08 Eh
 1-El. energy change                    ....  1.000e-05 Eh
 Orbital Gradient       TolG            ....  1.000e-05
 Orbital Rotation angle TolX            ....  1.000e-05
 DIIS Error             TolErr          ....  5.000e-07


Diagonalization of the overlap matrix:
Smallest eigenvalue                        ... 1.924e-03
Time for diagonalization                   ...    0.051 sec
Threshold for overlap eigenvalues          ... 1.000e-08
Number of eigenvalues below threshold      ... 0
Time for construction of square roots      ...    0.027 sec
Total time needed                          ...    0.078 sec

-------------------
DFT GRID GENERATION
-------------------

General Integration Accuracy     IntAcc      ...  4.670
Radial Grid Type                 RadialGrid  ... Gauss-Chebyshev
Angular Grid (max. acc.)         AngularGrid ... Lebedev-302
Angular grid pruning method      GridPruning ... 3 (G Style)
Weight generation scheme         WeightScheme... Becke
Basis function cutoff            BFCut       ...    1.0000e-11
Integration weight cutoff        WCut        ...    1.0000e-14
Grids for H and He will be reduced by one unit

# of grid points (after initial pruning)     ... 156000 (   0.0 sec)
# of grid points (after weights+screening)   ... 137334 (   0.1 sec)
nearest neighbour list constructed           ...    0.0 sec
Grid point re-assignment to atoms done       ...    0.0 sec
Grid point division into batches done        ...    0.3 sec
Reduced shell lists constructed in    0.5 sec

Total number of grid points                  ...   137334
Total number of batches                      ...     2166
Average number of points per batch           ...       63
Average number of grid points per atom       ...     3815
Average number of shells per batch           ...    90.77 (39.81%)
Average number of basis functions per batch  ...   175.96 (34.10%)
Average number of large shells per batch     ...    57.57 (63.42%)
Average number of large basis fcns per batch ...   109.10 (62.00%)
Maximum spatial batch extension              ...  14.22, 15.29, 14.00 au
Average spatial batch extension              ...   0.18,  0.19,  0.20 au

Time for grid setup =    0.648 sec

------------------------------
INITIAL GUESS: MODEL POTENTIAL
------------------------------
Loading Hartree-Fock densities                     ... done
Calculating cut-offs                               ... done
Setting up the integral package                    ... done
Initializing the effective Hamiltonian             ... done
Starting the Coulomb interaction                   ... done (   0.1 sec)
Reading the grid                                   ... done
Mapping shells                                     ... done
Starting the XC term evaluation                    ... done (   0.3 sec)
  promolecular density results
     # of electrons  =    119.984554810
     EX              =   -105.504274487
     EC              =     -4.173216345
     EX+EC           =   -109.677490832
Transforming the Hamiltonian                       ... done (   0.0 sec)
Diagonalizing the Hamiltonian                      ... done (   0.1 sec)
Back transforming the eigenvectors                 ... done (   0.0 sec)
Now organizing SCF variables                       ... done
                      ------------------
                      INITIAL GUESS DONE (   1.2 sec)
                      ------------------
--------------------
COSX GRID GENERATION
--------------------

General Integration Accuracy     IntAcc      ...  3.340
Radial Grid Type                 RadialGrid  ... Gauss-Chebyshev
Angular Grid (max. acc.)         AngularGrid ... Lebedev-50
Angular grid pruning method      GridPruning ... 3 (G Style)
Weight generation scheme         WeightScheme... Becke
Basis function cutoff            BFCut       ...    1.0000e-11
Integration weight cutoff        WCut        ...    1.0000e-14
Grids for H and He will be reduced by one unit

# of grid points (after initial pruning)     ...  14640 (   0.0 sec)
# of grid points (after weights+screening)   ...  13076 (   0.0 sec)
nearest neighbour list constructed           ...    0.0 sec
Grid point re-assignment to atoms done       ...    0.0 sec
Grid point division into batches done        ...    0.0 sec
Reduced shell lists constructed in    0.0 sec

Total number of grid points                  ...    13076
Total number of batches                      ...      221
Average number of points per batch           ...       59
Average number of grid points per atom       ...      363
Average number of shells per batch           ...   102.45 (44.93%)
Average number of basis functions per batch  ...   204.95 (39.72%)
Average number of large shells per batch     ...    67.10 (65.50%)
Average number of large basis fcns per batch ...   129.60 (63.23%)
Maximum spatial batch extension              ...  11.15, 14.11, 18.12 au
Average spatial batch extension              ...   0.40,  0.46,  0.48 au

Overlap Fitting                  UseSFitting ... on
Constructing numerical overlap ... done (      0.0 sec)
Inverting numerical overlap    ... done (      0.0 sec)
Obtaining analytic overlap     ... done (      0.0 sec)
Final contraction and storage  ... done (      0.0 sec)


General Integration Accuracy     IntAcc      ...  3.670
Radial Grid Type                 RadialGrid  ... Gauss-Chebyshev
Angular Grid (max. acc.)         AngularGrid ... Lebedev-50
Angular grid pruning method      GridPruning ... 3 (G Style)
Weight generation scheme         WeightScheme... Becke
Basis function cutoff            BFCut       ...    1.0000e-11
Integration weight cutoff        WCut        ...    1.0000e-14
Grids for H and He will be reduced by one unit

# of grid points (after initial pruning)     ...  19224 (   0.0 sec)
# of grid points (after weights+screening)   ...  17141 (   0.0 sec)
nearest neighbour list constructed           ...    0.0 sec
Grid point re-assignment to atoms done       ...    0.0 sec
Grid point division into batches done        ...    0.0 sec
Reduced shell lists constructed in    0.0 sec

Total number of grid points                  ...    17141
Total number of batches                      ...      286
Average number of points per batch           ...       59
Average number of grid points per atom       ...      476
Average number of shells per batch           ...   102.00 (44.74%)
Average number of basis functions per batch  ...   203.36 (39.41%)
Average number of large shells per batch     ...    66.80 (65.49%)
Average number of large basis fcns per batch ...   129.04 (63.45%)
Maximum spatial batch extension              ...  12.02, 14.36, 18.05 au
Average spatial batch extension              ...   0.33,  0.34,  0.39 au

Overlap Fitting                  UseSFitting ... on
Constructing numerical overlap ... done (      0.0 sec)
Inverting numerical overlap    ... done (      0.0 sec)
Obtaining analytic overlap     ... done (      0.0 sec)
Final contraction and storage  ... done (      0.0 sec)


General Integration Accuracy     IntAcc      ...  4.010
Radial Grid Type                 RadialGrid  ... Gauss-Chebyshev
Angular Grid (max. acc.)         AngularGrid ... Lebedev-110
Angular grid pruning method      GridPruning ... 3 (G Style)
Weight generation scheme         WeightScheme... Becke
Basis function cutoff            BFCut       ...    1.0000e-11
Integration weight cutoff        WCut        ...    1.0000e-14
Grids for H and He will be reduced by one unit

# of grid points (after initial pruning)     ...  33096 (   0.0 sec)
# of grid points (after weights+screening)   ...  29717 (   0.0 sec)
nearest neighbour list constructed           ...    0.0 sec
Grid point re-assignment to atoms done       ...    0.0 sec
Grid point division into batches done        ...    0.0 sec
Reduced shell lists constructed in    0.0 sec

Total number of grid points                  ...    29717
Total number of batches                      ...      482
Average number of points per batch           ...       61
Average number of grid points per atom       ...      825
Average number of shells per batch           ...    98.05 (43.00%)
Average number of basis functions per batch  ...   193.52 (37.50%)
Average number of large shells per batch     ...    62.74 (63.99%)
Average number of large basis fcns per batch ...   119.98 (62.00%)
Maximum spatial batch extension              ...  13.23, 15.28, 18.88 au
Average spatial batch extension              ...   0.31,  0.34,  0.36 au

Overlap Fitting                  UseSFitting ... on
Constructing numerical overlap ... done (      0.0 sec)
Inverting numerical overlap    ... done (      0.0 sec)
Obtaining analytic overlap     ... done (      0.0 sec)
Final contraction and storage  ... done (      0.0 sec)

Time for X-Grid setup             =    0.367 sec

--------------------
COSMO INITIALIZATION
--------------------

Epsilon                                      ...   78.3550
Refractive Index                             ...    1.3300
Potential Evaluation                         ...  ANALYTIC
Technical COSMO parameters:
  rsolv                                      ...    1.3000
  routf                                      ...    0.8500
  disex                                      ...   10.0000
  nppa                                       ... 1082   
  nspa                                       ...   92   
Solvent:                                     ... WATER
Solvent:                                     ... WATER
SMD-CDS solvent descriptors:
  Soln                                       ...    1.3328
  Soln25                                     ...    1.3323
  Sola                                       ...    0.0000
  Solb                                       ...    0.0000
  Solg                                       ...    0.0000
  Solc                                       ...    0.0000
  Solh                                       ...    0.0000
Radii:
 Radius for O  used is    2.8724 Bohr (=   1.5200 Ang.)
 Radius for H  used is    2.2677 Bohr (=   1.2000 Ang.)
Initializing COSMO package            ... done
Setting COSMO radii                   ... done
Setting atoms and making cavity       ...  USING 1082 GRID
done
Cholesky decomposition of A           ... done
--------------
SCF ITERATIONS
--------------
ITER       Energy         Delta-E        Max-DP      RMS-DP      [F,P]     Damp
               ***  Starting incremental Fock matrix formation  ***
  0   -916.4608311721   0.000000000000 0.05509039  0.00100631  0.3084154 0.7000
  1   -916.8919460574  -0.431114885279 0.03494622  0.00061981  0.1308771 0.7000
                               ***Turning on DIIS***
  2   -917.0364251668  -0.144479109412 0.03891236  0.00075991  0.0334042 0.0000
  3   -917.2833016748  -0.246876508053 0.02173328  0.00038966  0.0741235 0.0000
  4   -917.3325731737  -0.049271498887 0.00482736  0.00011854  0.0152509 0.0000
  5   -917.3346506656  -0.002077491908 0.00183207  0.00004081  0.0034808 0.0000
                      *** Initiating the SOSCF procedure ***
                           *** Shutting down DIIS ***
                      *** Re-Reading the Fockian *** 
                      *** Removing any level shift *** 
ITER      Energy       Delta-E        Grad      Rot      Max-DP    RMS-DP
  6   -917.33474201  -0.0000913396  0.000254  0.000254  0.000609  0.000015
               *** Restarting incremental Fock matrix formation ***
  7   -917.33476981  -0.0000278083  0.000089  0.000204  0.000383  0.000008
  8   -917.33477048  -0.0000006676  0.000072  0.000082  0.000148  0.000003
  9   -917.33477089  -0.0000004072  0.000023  0.000055  0.000088  0.000002
 10   -917.33477103  -0.0000001438  0.000007  0.000010  0.000027  0.000000
 11   -917.33477109  -0.0000000553  0.000009  0.000009  0.000017  0.000000
                  ***Gradient check signals convergence***
              ***Rediagonalizing the Fockian in SOSCF/NRSCF***

               *****************************************************
               *                     SUCCESS                       *
               *           SCF CONVERGED AFTER  12 CYCLES          *
               *****************************************************

Setting up the final grid:

General Integration Accuracy     IntAcc      ...  5.010
Radial Grid Type                 RadialGrid  ... Gauss-Chebyshev
Angular Grid (max. acc.)         AngularGrid ... Lebedev-434
Angular grid pruning method      GridPruning ... 3 (G Style)
Weight generation scheme         WeightScheme... Becke
Basis function cutoff            BFCut       ...    1.0000e-11
Integration weight cutoff        WCut        ...    1.0000e-14
Grids for H and He will be reduced by one unit

# of grid points (after initial pruning)     ... 290712 (   0.0 sec)
# of grid points (after weights+screening)   ... 255087 (   0.2 sec)
nearest neighbour list constructed           ...    0.0 sec
Grid point re-assignment to atoms done       ...    0.0 sec
Grid point division into batches done        ...    1.2 sec
Reduced shell lists constructed in    1.4 sec

Total number of grid points                  ...   255087
Total number of batches                      ...     4001
Average number of points per batch           ...       63
Average number of grid points per atom       ...     7086
Average number of shells per batch           ...    87.76 (38.49%)
Average number of basis functions per batch  ...   168.90 (32.73%)
Average number of large shells per batch     ...    55.40 (63.13%)
Average number of large basis fcns per batch ...   104.64 (61.95%)
Maximum spatial batch extension              ...  14.86, 13.84, 13.65 au
Average spatial batch extension              ...   0.15,  0.15,  0.16 au

Final grid set up in    1.7 sec
Final integration                            ... done (   0.6 sec)
Change in XC energy                          ...    -0.000160032
Integrated number of electrons               ...   120.000489326
Previous integrated no of electrons          ...   119.998697773
Old exchange energy                            =    -21.415041570 Eh
New exchange energy                            =    -21.414014351 Eh
Exchange energy change after final integration =      0.001027219 Eh
Total energy after final integration           =   -917.333903881 Eh
Final COS-X integration done in                =     3.677 sec
   3.42967801811345        1.91808537763703       0.607137398182227     
  1.174938572562266E-003  0.134165169442770       8.757403858558501E-003
Total Energy after outlying charge correction =   -917.338390205 Eh

SMD CDS free energy correction energy :                 6.66200     Kcal/mol
Total Energy after SMD CDS correction =              -917.323287310 Eh

----------------
TOTAL SCF ENERGY
----------------

Total Energy       :         -917.32328731 Eh          -24961.63567 eV
Total Energy       :         -917.32328731 Eh          -24961.63567 eV
COSMO(ediel)       :           -0.05463152 Eh              -1.48660 eV
SMD CDS (Gcds)     :            0.01061657 Eh               0.28889 eV

Components:
Nuclear Repulsion  :         1055.88584846 Eh           28732.11465 eV
Electronic Energy  :        -1973.20913577 Eh          -53693.75032 eV

One Electron Energy:        -3367.69593742 Eh          -91639.66533 eV
Two Electron Energy:         1394.48680165 Eh           37945.91501 eV

Virial components:
Potential Energy   :        -1830.74264195 Eh          -49817.03994 eV
Kinetic Energy     :          913.41935464 Eh           24855.40426 eV
Virial Ratio       :            2.00427398


DFT components:
N(Alpha)           :       60.000244663115 electrons
N(Beta)            :       60.000244663115 electrons
N(Total)           :      120.000489326230 electrons
E(X)               :      -85.370071223632 Eh       
E(C)               :       -4.927243712102 Eh       
E(XC)              :      -90.297314935734 Eh       

---------------
SCF CONVERGENCE
---------------

  Last Energy change         ...    1.9257e-08  Tolerance :   1.0000e-08
  Last MAX-Density change    ...    2.9875e-14  Tolerance :   1.0000e-07
  Last RMS-Density change    ...    1.5157e-16  Tolerance :   5.0000e-09
  Last Orbital Gradient      ...    9.8391e-07  Tolerance :   1.0000e-05
  Last Orbital Rotation      ...    1.7057e-06  Tolerance :   1.0000e-05

             **** THE GBW FILE WAS UPDATED (2_B3LYP_SMD_onBP86_SMD_12_waters.gbw) ****
             **** DENSITY FILE WAS UPDATED (2_B3LYP_SMD_onBP86_SMD_12_waters.scfp.tmp) ****
             **** ENERGY FILE WAS UPDATED (2_B3LYP_SMD_onBP86_SMD_12_waters.en.tmp) ****
----------------
ORBITAL ENERGIES
----------------

  NO   OCC          E(Eh)            E(eV) 
   0   2.0000     -19.133143      -520.6393 
   1   2.0000     -19.132855      -520.6315 
   2   2.0000     -19.132398      -520.6190 
   3   2.0000     -19.132117      -520.6114 
   4   2.0000     -19.123879      -520.3872 
   5   2.0000     -19.123366      -520.3732 
   6   2.0000     -19.123185      -520.3683 
   7   2.0000     -19.122952      -520.3620 
   8   2.0000     -19.122385      -520.3465 
   9   2.0000     -19.122201      -520.3415 
  10   2.0000     -19.121864      -520.3324 
  11   2.0000     -19.121801      -520.3307 
  12   2.0000      -1.034138       -28.1403 
  13   2.0000      -1.024011       -27.8648 
  14   2.0000      -1.014948       -27.6181 
  15   2.0000      -1.014865       -27.6159 
  16   2.0000      -1.010282       -27.4912 
  17   2.0000      -1.004094       -27.3228 
  18   2.0000      -1.003256       -27.3000 
  19   2.0000      -0.993272       -27.0283 
  20   2.0000      -0.990034       -26.9402 
  21   2.0000      -0.989886       -26.9362 
  22   2.0000      -0.985732       -26.8231 
  23   2.0000      -0.970576       -26.4107 
  24   2.0000      -0.541688       -14.7401 
  25   2.0000      -0.540069       -14.6960 
  26   2.0000      -0.538310       -14.6481 
  27   2.0000      -0.537986       -14.6393 
  28   2.0000      -0.535214       -14.5639 
  29   2.0000      -0.526772       -14.3342 
  30   2.0000      -0.524978       -14.2854 
  31   2.0000      -0.524346       -14.2682 
  32   2.0000      -0.512649       -13.9499 
  33   2.0000      -0.510139       -13.8816 
  34   2.0000      -0.508855       -13.8467 
  35   2.0000      -0.508485       -13.8366 
  36   2.0000      -0.477233       -12.9862 
  37   2.0000      -0.443780       -12.0759 
  38   2.0000      -0.437936       -11.9168 
  39   2.0000      -0.436533       -11.8787 
  40   2.0000      -0.413218       -11.2442 
  41   2.0000      -0.407758       -11.0957 
  42   2.0000      -0.407072       -11.0770 
  43   2.0000      -0.399653       -10.8751 
  44   2.0000      -0.379237       -10.3196 
  45   2.0000      -0.378553       -10.3009 
  46   2.0000      -0.378266       -10.2931 
  47   2.0000      -0.353285        -9.6134 
  48   2.0000      -0.327901        -8.9226 
  49   2.0000      -0.327605        -8.9146 
  50   2.0000      -0.325976        -8.8703 
  51   2.0000      -0.325413        -8.8549 
  52   2.0000      -0.321754        -8.7554 
  53   2.0000      -0.321536        -8.7494 
  54   2.0000      -0.318547        -8.6681 
  55   2.0000      -0.318108        -8.6562 
  56   2.0000      -0.317836        -8.6488 
  57   2.0000      -0.316739        -8.6189 
  58   2.0000      -0.316347        -8.6082 
  59   2.0000      -0.314185        -8.5494 
  60   0.0000       0.015732         0.4281 
  61   0.0000       0.041233         1.1220 
  62   0.0000       0.058842         1.6012 
  63   0.0000       0.059132         1.6091 
  64   0.0000       0.094745         2.5781 
  65   0.0000       0.099965         2.7202 
  66   0.0000       0.100136         2.7248 
  67   0.0000       0.117398         3.1946 
  68   0.0000       0.147343         4.0094 
  69   0.0000       0.156291         4.2529 
  70   0.0000       0.156898         4.2694 
  71   0.0000       0.168046         4.5728 
  72   0.0000       0.192855         5.2478 
  73   0.0000       0.207287         5.6406 
  74   0.0000       0.207464         5.6454 
  75   0.0000       0.208798         5.6817 
  76   0.0000       0.212579         5.7846 
  77   0.0000       0.213298         5.8041 
  78   0.0000       0.220433         5.9983 
  79   0.0000       0.225264         6.1297 
  80   0.0000       0.232875         6.3369 
  81   0.0000       0.233711         6.3596 
  82   0.0000       0.243749         6.6327 
  83   0.0000       0.245276         6.6743 
  84   0.0000       0.256668         6.9843 
  85   0.0000       0.277647         7.5552 
  86   0.0000       0.294760         8.0208 
  87   0.0000       0.295260         8.0344 
  88   0.0000       0.301132         8.1942 
  89   0.0000       0.313551         8.5322 
  90   0.0000       0.321173         8.7396 
  91   0.0000       0.326918         8.8959 
  92   0.0000       0.331209         9.0127 
  93   0.0000       0.332117         9.0374 
  94   0.0000       0.343161         9.3379 
  95   0.0000       0.347325         9.4512 
  96   0.0000       0.347852         9.4655 
  97   0.0000       0.366358         9.9691 
  98   0.0000       0.369876        10.0648 
  99   0.0000       0.370085        10.0705 
 100   0.0000       0.386013        10.5039 
 101   0.0000       0.387249        10.5376 
 102   0.0000       0.388282        10.5657 
 103   0.0000       0.417480        11.3602 
 104   0.0000       0.418162        11.3788 
 105   0.0000       0.427781        11.6405 
 106   0.0000       0.428688        11.6652 
 107   0.0000       0.473043        12.8722 
 108   0.0000       0.486313        13.2333 
 109   0.0000       0.486626        13.2418 
 110   0.0000       0.488487        13.2924 
 111   0.0000       0.494433        13.4542 
 112   0.0000       0.511378        13.9153 
 113   0.0000       0.512015        13.9326 
 114   0.0000       0.512717        13.9517 
 115   0.0000       0.532032        14.4773 
 116   0.0000       0.554534        15.0896 
 117   0.0000       0.560497        15.2519 
 118   0.0000       0.561327        15.2745 
 119   0.0000       0.567841        15.4518 
 120   0.0000       0.593836        16.1591 
 121   0.0000       0.617008        16.7896 
 122   0.0000       0.618574        16.8322 
 123   0.0000       0.620591        16.8871 
 124   0.0000       0.628076        17.0908 
 125   0.0000       0.638563        17.3762 
 126   0.0000       0.640209        17.4210 
 127   0.0000       0.646728        17.5984 
 128   0.0000       0.660390        17.9701 
 129   0.0000       0.662094        18.0165 
 130   0.0000       0.665326        18.1044 
 131   0.0000       0.674862        18.3639 
 132   0.0000       0.683846        18.6084 
 133   0.0000       0.685827        18.6623 
 134   0.0000       0.687873        18.7180 
 135   0.0000       0.707547        19.2533 
 136   0.0000       0.711771        19.3683 
 137   0.0000       0.752338        20.4721 
 138   0.0000       0.753954        20.5161 
 139   0.0000       0.762201        20.7406 
 140   0.0000       0.791828        21.5467 
 141   0.0000       0.832569        22.6554 
 142   0.0000       0.832981        22.6666 
 143   0.0000       0.858951        23.3732 
 144   0.0000       0.876533        23.8517 
 145   0.0000       0.883644        24.0452 
 146   0.0000       0.884984        24.0816 
 147   0.0000       0.906006        24.6537 
 148   0.0000       0.907291        24.6886 
 149   0.0000       0.908878        24.7318 
 150   0.0000       0.912697        24.8357 
 151   0.0000       0.987088        26.8600 
 152   0.0000       0.990718        26.9588 
 153   0.0000       0.999597        27.2004 
 154   0.0000       1.017157        27.6783 
 155   0.0000       1.079208        29.3667 
 156   0.0000       1.122430        30.5429 
 157   0.0000       1.137894        30.9637 
 158   0.0000       1.140718        31.0405 
 159   0.0000       1.142599        31.0917 
 160   0.0000       1.144588        31.1458 
 161   0.0000       1.160550        31.5802 
 162   0.0000       1.169173        31.8148 
 163   0.0000       1.169268        31.8174 
 164   0.0000       1.176832        32.0232 
 165   0.0000       1.187935        32.3253 
 166   0.0000       1.188918        32.3521 
 167   0.0000       1.199603        32.6429 
 168   0.0000       1.202705        32.7273 
 169   0.0000       1.203070        32.7372 
 170   0.0000       1.225438        33.3459 
 171   0.0000       1.270062        34.5601 
 172   0.0000       1.277690        34.7677 
 173   0.0000       1.279361        34.8132 
 174   0.0000       1.290249        35.1095 
 175   0.0000       1.319198        35.8972 
 176   0.0000       1.326302        36.0905 
 177   0.0000       1.328071        36.1387 
 178   0.0000       1.330826        36.2136 
 179   0.0000       1.351521        36.7768 
 180   0.0000       1.352289        36.7977 
 181   0.0000       1.354297        36.8523 
 182   0.0000       1.364380        37.1267 
 183   0.0000       1.377626        37.4871 
 184   0.0000       1.378279        37.5049 
 185   0.0000       1.378762        37.5180 
 186   0.0000       1.383605        37.6498 
 187   0.0000       1.396066        37.9889 
 188   0.0000       1.397082        38.0165 
 189   0.0000       1.398847        38.0646 
 190   0.0000       1.405804        38.2539 
 191   0.0000       1.437451        39.1150 
 192   0.0000       1.547260        42.1031 
 193   0.0000       1.549642        42.1679 
 194   0.0000       1.641893        44.6782 
 195   0.0000       1.643087        44.7107 
 196   0.0000       1.649506        44.8853 
 197   0.0000       1.660318        45.1795 
 198   0.0000       1.663346        45.2620 
 199   0.0000       1.678119        45.6639 
 200   0.0000       1.684518        45.8381 
 201   0.0000       1.687961        45.9318 
 202   0.0000       1.689821        45.9824 
 203   0.0000       1.701256        46.2935 
 204   0.0000       1.702593        46.3299 
 205   0.0000       1.702876        46.3376 
 206   0.0000       1.718210        46.7549 
 207   0.0000       1.729853        47.0717 
 208   0.0000       1.737519        47.2803 
 209   0.0000       1.753137        47.7053 
 210   0.0000       1.754935        47.7542 
 211   0.0000       1.761917        47.9442 
 212   0.0000       1.762900        47.9709 
 213   0.0000       1.802850        49.0581 
 214   0.0000       1.803598        49.0784 
 215   0.0000       1.806199        49.1492 
 216   0.0000       1.827376        49.7254 
 217   0.0000       1.839729        50.0616 
 218   0.0000       1.883262        51.2462 
 219   0.0000       1.902684        51.7747 
 220   0.0000       1.904149        51.8145 
 221   0.0000       1.924469        52.3675 
 222   0.0000       1.940774        52.8111 
 223   0.0000       1.942680        52.8630 
 224   0.0000       1.949468        53.0477 
 225   0.0000       1.964082        53.4454 
 226   0.0000       1.966517        53.5116 
 227   0.0000       1.985424        54.0261 
 228   0.0000       1.995669        54.3049 
 229   0.0000       1.997912        54.3660 
 230   0.0000       2.004743        54.5518 
 231   0.0000       2.018414        54.9238 
 232   0.0000       2.037520        55.4437 
 233   0.0000       2.039925        55.5092 
 234   0.0000       2.041524        55.5527 
 235   0.0000       2.060324        56.0643 
 236   0.0000       2.087042        56.7913 
 237   0.0000       2.100884        57.1680 
 238   0.0000       2.101513        57.1851 
 239   0.0000       2.103080        57.2277 
 240   0.0000       2.118266        57.6409 
 241   0.0000       2.126456        57.8638 
 242   0.0000       2.129240        57.9396 
 243   0.0000       2.131519        58.0016 
 244   0.0000       2.147849        58.4459 
 245   0.0000       2.170881        59.0727 
 246   0.0000       2.176790        59.2335 
 247   0.0000       2.179322        59.3024 
 248   0.0000       2.181636        59.3653 
 249   0.0000       2.222957        60.4897 
 250   0.0000       2.226808        60.5945 
 251   0.0000       2.234128        60.7937 
 252   0.0000       2.245693        61.1084 
 253   0.0000       2.246342        61.1261 
 254   0.0000       2.248228        61.1774 
 255   0.0000       2.288071        62.2616 
 256   0.0000       2.296434        62.4891 
 257   0.0000       2.298026        62.5325 
 258   0.0000       2.299909        62.5837 
 259   0.0000       2.319819        63.1255 
 260   0.0000       2.321568        63.1731 
 261   0.0000       2.324868        63.2629 
 262   0.0000       2.328595        63.3643 
 263   0.0000       2.328898        63.3725 
 264   0.0000       2.350749        63.9671 
 265   0.0000       2.354989        64.0825 
 266   0.0000       2.370965        64.5172 
 267   0.0000       2.380675        64.7815 
 268   0.0000       2.384044        64.8731 
 269   0.0000       2.384392        64.8826 
 270   0.0000       2.393470        65.1296 
 271   0.0000       2.400056        65.3088 
 272   0.0000       2.405191        65.4486 
 273   0.0000       2.405730        65.4632 
 274   0.0000       2.406887        65.4947 
 275   0.0000       2.417591        65.7860 
 276   0.0000       2.425607        66.0041 
 277   0.0000       2.430317        66.1323 
 278   0.0000       2.431580        66.1666 
 279   0.0000       2.446655        66.5769 
 280   0.0000       2.451145        66.6990 
 281   0.0000       2.495480        67.9055 
 282   0.0000       2.496815        67.9418 
 283   0.0000       2.510308        68.3090 
 284   0.0000       2.520865        68.5962 
 285   0.0000       2.523115        68.6574 
 286   0.0000       2.526042        68.7371 
 287   0.0000       2.526731        68.7558 
 288   0.0000       2.556469        69.5651 
 289   0.0000       2.599185        70.7274 
 290   0.0000       2.605672        70.9039 
 291   0.0000       2.610416        71.0330 
 292   0.0000       2.614733        71.1505 
 293   0.0000       2.637426        71.7680 
 294   0.0000       2.656365        72.2834 
 295   0.0000       2.658285        72.3356 
 296   0.0000       2.666076        72.5476 
 297   0.0000       2.669500        72.6408 
 298   0.0000       2.670082        72.6566 
 299   0.0000       2.671380        72.6920 
 300   0.0000       2.697134        73.3927 
 301   0.0000       2.701939        73.5235 
 302   0.0000       2.721651        74.0599 
 303   0.0000       2.726233        74.1846 
 304   0.0000       2.736479        74.4634 
 305   0.0000       2.780750        75.6681 
 306   0.0000       2.785694        75.8026 
 307   0.0000       2.786803        75.8328 
 308   0.0000       2.793383        76.0118 
 309   0.0000       2.880169        78.3734 
 310   0.0000       2.883437        78.4623 
 311   0.0000       2.896853        78.8274 
 312   0.0000       2.951027        80.3015 
 313   0.0000       2.951697        80.3198 
 314   0.0000       2.954674        80.4008 
 315   0.0000       2.991590        81.4053 
 316   0.0000       2.992265        81.4237 
 317   0.0000       2.996209        81.5310 
 318   0.0000       3.022400        82.2437 
 319   0.0000       3.028537        82.4107 
 320   0.0000       3.031486        82.4909 
 321   0.0000       3.035438        82.5985 
 322   0.0000       3.066366        83.4401 
 323   0.0000       3.067983        83.4841 
 324   0.0000       3.086215        83.9802 
 325   0.0000       3.087952        84.0274 
 326   0.0000       3.100425        84.3669 
 327   0.0000       3.127304        85.0983 
 328   0.0000       3.151901        85.7676 
 329   0.0000       3.153998        85.8247 
 330   0.0000       3.161618        86.0320 
 331   0.0000       3.180901        86.5567 
 332   0.0000       3.192785        86.8801 
 333   0.0000       3.234722        88.0213 
 334   0.0000       3.244163        88.2782 
 335   0.0000       3.252768        88.5123 
 336   0.0000       3.744903       101.9040 
 337   0.0000       3.757652       102.2509 
 338   0.0000       3.758632       102.2776 
 339   0.0000       3.766932       102.5034 
 340   0.0000       3.767838       102.5281 
 341   0.0000       3.776174       102.7549 
 342   0.0000       3.778075       102.8066 
 343   0.0000       3.783748       102.9610 
 344   0.0000       3.840527       104.5061 
 345   0.0000       3.891251       105.8863 
 346   0.0000       3.892989       105.9336 
 347   0.0000       3.895400       105.9992 
 348   0.0000       3.899512       106.1111 
 349   0.0000       3.916808       106.5818 
 350   0.0000       3.954271       107.6012 
 351   0.0000       3.959026       107.7306 
 352   0.0000       3.959762       107.7506 
 353   0.0000       3.975930       108.1906 
 354   0.0000       3.982063       108.3574 
 355   0.0000       3.986921       108.4896 
 356   0.0000       4.015513       109.2677 
 357   0.0000       4.041181       109.9661 
 358   0.0000       4.045811       110.0921 
 359   0.0000       4.062957       110.5587 
 360   0.0000       5.089301       138.4869 
 361   0.0000       5.089658       138.4966 
 362   0.0000       5.090142       138.5098 
 363   0.0000       5.090521       138.5201 
 364   0.0000       5.093572       138.6031 
 365   0.0000       5.093681       138.6061 
 366   0.0000       5.094544       138.6296 
 367   0.0000       5.099728       138.7706 
 368   0.0000       5.113456       139.1442 
 369   0.0000       5.115165       139.1907 
 370   0.0000       5.116852       139.2366 
 371   0.0000       5.117495       139.2541 
 372   0.0000       5.199685       141.4906 
 373   0.0000       5.207007       141.6899 
 374   0.0000       5.208568       141.7323 
 375   0.0000       5.211123       141.8019 
 376   0.0000       5.212452       141.8380 
 377   0.0000       5.222694       142.1167 
 378   0.0000       5.223507       142.1388 
 379   0.0000       5.225679       142.1980 
 380   0.0000       5.236471       142.4916 
 381   0.0000       5.253386       142.9519 
 382   0.0000       5.255347       143.0053 
 383   0.0000       5.256601       143.0394 
 384   0.0000       5.313758       144.5947 
 385   0.0000       5.315091       144.6310 
 386   0.0000       5.316130       144.6592 
 387   0.0000       5.319627       144.7544 
 388   0.0000       5.333825       145.1408 
 389   0.0000       5.341438       145.3479 
 390   0.0000       5.341737       145.3561 
 391   0.0000       5.343676       145.4088 
 392   0.0000       5.351801       145.6299 
 393   0.0000       5.355517       145.7310 
 394   0.0000       5.357241       145.7779 
 395   0.0000       5.371795       146.1740 
 396   0.0000       5.372261       146.1867 
 397   0.0000       5.373176       146.2116 
 398   0.0000       5.383485       146.4921 
 399   0.0000       5.397423       146.8714 
 400   0.0000       5.397704       146.8790 
 401   0.0000       5.398396       146.8978 
 402   0.0000       5.404342       147.0596 
 403   0.0000       5.411760       147.2615 
 404   0.0000       5.416656       147.3947 
 405   0.0000       5.417273       147.4115 
 406   0.0000       5.418115       147.4344 
 407   0.0000       5.420708       147.5050 
 408   0.0000       5.432139       147.8160 
 409   0.0000       5.432348       147.8217 
 410   0.0000       5.436397       147.9319 
 411   0.0000       5.440595       148.0461 
 412   0.0000       5.444604       148.1552 
 413   0.0000       5.445691       148.1848 
 414   0.0000       5.446705       148.2124 
 415   0.0000       5.447692       148.2392 
 416   0.0000       5.467930       148.7899 
 417   0.0000       5.471932       148.8988 
 418   0.0000       5.473850       148.9510 
 419   0.0000       5.485581       149.2702 
 420   0.0000       5.888853       160.2438 
 421   0.0000       5.898611       160.5094 
 422   0.0000       5.899225       160.5261 
 423   0.0000       5.924831       161.2228 
 424   0.0000       5.932316       161.4265 
 425   0.0000       5.934901       161.4969 
 426   0.0000       5.938033       161.5821 
 427   0.0000       5.940333       161.6447 
 428   0.0000       5.968131       162.4011 
 429   0.0000       5.971828       162.5017 
 430   0.0000       5.990247       163.0029 
 431   0.0000       5.992358       163.0604 
 432   0.0000       6.070823       165.1955 
 433   0.0000       6.133178       166.8923 
 434   0.0000       6.159579       167.6107 
 435   0.0000       6.166913       167.8102 
 436   0.0000       6.167536       167.8272 
 437   0.0000       6.212901       169.0616 
 438   0.0000       6.214655       169.1094 
 439   0.0000       6.216619       169.1628 
 440   0.0000       6.281567       170.9301 
 441   0.0000       6.286116       171.0539 
 442   0.0000       6.288102       171.1079 
 443   0.0000       6.291816       171.2090 
 444   0.0000       6.295112       171.2987 
 445   0.0000       6.316296       171.8751 
 446   0.0000       6.349825       172.7875 
 447   0.0000       6.351602       172.8359 
 448   0.0000       6.352820       172.8690 
 449   0.0000       6.364498       173.1868 
 450   0.0000       6.365731       173.2203 
 451   0.0000       6.367406       173.2659 
 452   0.0000       6.386198       173.7773 
 453   0.0000       6.389926       173.8787 
 454   0.0000       6.392883       173.9592 
 455   0.0000       6.399197       174.1310 
 456   0.0000       6.400619       174.1697 
 457   0.0000       6.404663       174.2797 
 458   0.0000       6.409004       174.3979 
 459   0.0000       6.423132       174.7823 
 460   0.0000       6.425885       174.8572 
 461   0.0000       6.447159       175.4361 
 462   0.0000       6.447865       175.4553 
 463   0.0000       6.469411       176.0416 
 464   0.0000       6.476457       176.2334 
 465   0.0000       6.481481       176.3701 
 466   0.0000       6.496910       176.7899 
 467   0.0000       6.500137       176.8777 
 468   0.0000       6.518994       177.3908 
 469   0.0000       6.522666       177.4908 
 470   0.0000       6.530694       177.7092 
 471   0.0000       6.553148       178.3202 
 472   0.0000       6.603606       179.6933 
 473   0.0000       6.605401       179.7421 
 474   0.0000       6.630292       180.4194 
 475   0.0000       6.671909       181.5519 
 476   0.0000       6.744740       183.5337 
 477   0.0000       6.775676       184.3755 
 478   0.0000       6.779523       184.4802 
 479   0.0000       6.783961       184.6010 
 480   0.0000       6.870757       186.9628 
 481   0.0000       6.888954       187.4580 
 482   0.0000       6.938848       188.8157 
 483   0.0000       6.939936       188.8453 
 484   0.0000       6.941585       188.8901 
 485   0.0000       6.979817       189.9305 
 486   0.0000       6.987499       190.1395 
 487   0.0000       7.005013       190.6161 
 488   0.0000       7.010254       190.7587 
 489   0.0000       7.047017       191.7591 
 490   0.0000       7.048547       191.8007 
 491   0.0000       7.077094       192.5775 
 492   0.0000       7.081346       192.6932 
 493   0.0000       7.086030       192.8207 
 494   0.0000       7.089471       192.9143 
 495   0.0000       7.113894       193.5789 
 496   0.0000       7.114851       193.6049 
 497   0.0000       7.121380       193.7826 
 498   0.0000       7.125058       193.8827 
 499   0.0000       7.150015       194.5618 
 500   0.0000       7.198269       195.8748 
 501   0.0000       7.225504       196.6160 
 502   0.0000       7.240913       197.0352 
 503   0.0000       7.242776       197.0860 
 504   0.0000      43.418426      1181.4754 
 505   0.0000      43.420084      1181.5205 
 506   0.0000      43.471484      1182.9192 
 507   0.0000      43.473169      1182.9651 
 508   0.0000      43.511451      1184.0068 
 509   0.0000      43.513698      1184.0679 
 510   0.0000      43.578297      1185.8257 
 511   0.0000      43.586947      1186.0611 
 512   0.0000      43.671883      1188.3724 
 513   0.0000      43.693553      1188.9620 
 514   0.0000      43.697173      1189.0605 
 515   0.0000      43.936001      1195.5594 

                    ********************************
                    * MULLIKEN POPULATION ANALYSIS *
                    ********************************

-----------------------
MULLIKEN ATOMIC CHARGES
-----------------------
   0 O :   -0.752981
   1 H :    0.388617
   2 H :    0.376346
   3 O :   -0.745906
   4 H :    0.389437
   5 H :    0.375460
   6 O :   -0.753874
   7 H :    0.378189
   8 H :    0.388348
   9 O :   -0.754782
  10 H :    0.376122
  11 H :    0.387515
  12 O :   -0.748916
  13 H :    0.389360
  14 H :    0.376114
  15 O :   -0.780000
  16 H :    0.366856
  17 H :    0.385867
  18 O :   -0.782788
  19 H :    0.386137
  20 H :    0.366867
  21 O :   -0.783382
  22 H :    0.386147
  23 H :    0.367596
  24 O :   -0.743898
  25 H :    0.389139
  26 H :    0.376098
  27 O :   -0.754151
  28 H :    0.375681
  29 H :    0.387529
  30 O :   -0.780178
  31 H :    0.364800
  32 H :    0.386624
  33 O :   -0.749150
  34 H :    0.389407
  35 H :    0.375750
Sum of atomic charges:   -0.0000000

--------------------------------
MULLIKEN REDUCED ORBITAL CHARGES
--------------------------------
  0 O s       :     3.802387  s :     3.802387
      pz      :     1.847685  p :     4.932811
      px      :     1.479846
      py      :     1.605280
      dz2     :     0.002507  d :     0.016739
      dxz     :     0.001871
      dyz     :     0.002372
      dx2y2   :     0.002033
      dxy     :     0.007956
      f0      :     0.000196  f :     0.001044
      f+1     :     0.000146
      f-1     :     0.000143
      f+2     :     0.000087
      f-2     :     0.000158
      f+3     :     0.000177
      f-3     :     0.000137
  1 H s       :     0.567909  s :     0.567909
      pz      :     0.013120  p :     0.043474
      px      :     0.014322
      py      :     0.016033
  2 H s       :     0.566273  s :     0.566273
      pz      :     0.014932  p :     0.057381
      px      :     0.030802
      py      :     0.011648
  3 O s       :     3.795335  s :     3.795335
      pz      :     1.860991  p :     4.929980
      px      :     1.409908
      py      :     1.659081
      dz2     :     0.002050  d :     0.019640
      dxz     :     0.004026
      dyz     :     0.005463
      dx2y2   :     0.002720
      dxy     :     0.005381
      f0      :     0.000210  f :     0.000951
      f+1     :     0.000115
      f-1     :     0.000040
      f+2     :     0.000054
      f-2     :     0.000233
      f+3     :     0.000143
      f-3     :     0.000157
  4 H s       :     0.559953  s :     0.559953
      pz      :     0.016579  p :     0.050610
      px      :     0.015282
      py      :     0.018750
  5 H s       :     0.570768  s :     0.570768
      pz      :     0.013373  p :     0.053772
      px      :     0.028242
      py      :     0.012157
  6 O s       :     3.802679  s :     3.802679
      pz      :     1.468388  p :     4.933442
      px      :     1.592548
      py      :     1.872506
      dz2     :     0.008216  d :     0.016708
      dxz     :     0.001158
      dyz     :     0.001151
      dx2y2   :     0.003921
      dxy     :     0.002263
      f0      :     0.000534  f :     0.001045
      f+1     :     0.000006
      f-1     :     0.000085
      f+2     :     0.000064
      f-2     :     0.000052
      f+3     :     0.000121
      f-3     :     0.000182
  7 H s       :     0.564235  s :     0.564235
      pz      :     0.011169  p :     0.057576
      px      :     0.033045
      py      :     0.013363
  8 H s       :     0.568200  s :     0.568200
      pz      :     0.019789  p :     0.043452
      px      :     0.010478
      py      :     0.013185
  9 O s       :     3.802926  s :     3.802926
      pz      :     1.652048  p :     4.934043
      px      :     1.582710
      py      :     1.699286
      dz2     :     0.000746  d :     0.016778
      dxz     :     0.003708
      dyz     :     0.005168
      dx2y2   :     0.005908
      dxy     :     0.001246
      f0      :     0.000174  f :     0.001035
      f+1     :     0.000031
      f-1     :     0.000153
      f+2     :     0.000484
      f-2     :     0.000050
      f+3     :     0.000133
      f-3     :     0.000011
 10 H s       :     0.565379  s :     0.565379
      pz      :     0.023582  p :     0.058498
      px      :     0.008446
      py      :     0.026471
 11 H s       :     0.568919  s :     0.568919
      pz      :     0.013907  p :     0.043566
      px      :     0.018133
      py      :     0.011526
 12 O s       :     3.796391  s :     3.796391
      pz      :     1.636373  p :     4.932088
      px      :     1.878794
      py      :     1.416922
      dz2     :     0.002117  d :     0.019476
      dxz     :     0.002692
      dyz     :     0.010876
      dx2y2   :     0.002232
      dxy     :     0.001559
      f0      :     0.000048  f :     0.000960
      f+1     :     0.000014
      f-1     :     0.000072
      f+2     :     0.000382
      f-2     :     0.000126
      f+3     :     0.000163
      f-3     :     0.000155
 13 H s       :     0.560047  s :     0.560047
      pz      :     0.016370  p :     0.050593
      px      :     0.014751
      py      :     0.019471
 14 H s       :     0.570409  s :     0.570409
      pz      :     0.019503  p :     0.053476
      px      :     0.011703
      py      :     0.022271
 15 O s       :     3.806297  s :     3.806297
      pz      :     1.697416  p :     4.954762
      px      :     1.610933
      py      :     1.646412
      dz2     :     0.001335  d :     0.018011
      dxz     :     0.003883
      dyz     :     0.004396
      dx2y2   :     0.005087
      dxy     :     0.003309
      f0      :     0.000185  f :     0.000931
      f+1     :     0.000007
      f-1     :     0.000129
      f+2     :     0.000289
      f-2     :     0.000194
      f+3     :     0.000071
      f-3     :     0.000056
 16 H s       :     0.576728  s :     0.576728
      pz      :     0.014351  p :     0.056416
      px      :     0.029449
      py      :     0.012616
 17 H s       :     0.559304  s :     0.559304
      pz      :     0.020880  p :     0.054830
      px      :     0.012448
      py      :     0.021502
 18 O s       :     3.807593  s :     3.807593
      pz      :     1.712207  p :     4.956235
      px      :     1.768249
      py      :     1.475779
      dz2     :     0.001715  d :     0.018032
      dxz     :     0.003248
      dyz     :     0.008960
      dx2y2   :     0.001361
      dxy     :     0.002748
      f0      :     0.000096  f :     0.000928
      f+1     :     0.000026
      f-1     :     0.000081
      f+2     :     0.000214
      f-2     :     0.000200
      f+3     :     0.000204
      f-3     :     0.000106
 19 H s       :     0.558993  s :     0.558993
      pz      :     0.016635  p :     0.054870
      px      :     0.016668
      py      :     0.021567
 20 H s       :     0.576555  s :     0.576555
      pz      :     0.021827  p :     0.056578
      px      :     0.010880
      py      :     0.023872
 21 O s       :     3.807631  s :     3.807631
      pz      :     1.475074  p :     4.956827
      px      :     1.857674
      py      :     1.624078
      dz2     :     0.000448  d :     0.017995
      dxz     :     0.002076
      dyz     :     0.009654
      dx2y2   :     0.003655
      dxy     :     0.002161
      f0      :     0.000032  f :     0.000930
      f+1     :     0.000183
      f-1     :     0.000255
      f+2     :     0.000194
      f-2     :     0.000154
      f+3     :     0.000041
      f-3     :     0.000071
 22 H s       :     0.558895  s :     0.558895
      pz      :     0.022202  p :     0.054958
      px      :     0.016367
      py      :     0.016389
 23 H s       :     0.575903  s :     0.575903
      pz      :     0.022385  p :     0.056501
      px      :     0.011399
      py      :     0.022717
 24 O s       :     3.794260  s :     3.794260
      pz      :     1.566401  p :     4.929131
      px      :     1.644346
      py      :     1.718383
      dz2     :     0.002184  d :     0.019552
      dxz     :     0.004797
      dyz     :     0.004237
      dx2y2   :     0.004109
      dxy     :     0.004225
      f0      :     0.000079  f :     0.000956
      f+1     :     0.000057
      f-1     :     0.000309
      f+2     :     0.000079
      f-2     :     0.000242
      f+3     :     0.000012
      f-3     :     0.000177
 25 H s       :     0.560329  s :     0.560329
      pz      :     0.020696  p :     0.050532
      px      :     0.012409
      py      :     0.017427
 26 H s       :     0.570247  s :     0.570247
      pz      :     0.013358  p :     0.053655
      px      :     0.026520
      py      :     0.013777
 27 O s       :     3.802933  s :     3.802933
      pz      :     1.629855  p :     4.933411
      px      :     1.879860
      py      :     1.423696
      dz2     :     0.002738  d :     0.016770
      dxz     :     0.001519
      dyz     :     0.008672
      dx2y2   :     0.002518
      dxy     :     0.001324
      f0      :     0.000050  f :     0.001037
      f+1     :     0.000013
      f-1     :     0.000142
      f+2     :     0.000330
      f-2     :     0.000072
      f+3     :     0.000204
      f-3     :     0.000225
 28 H s       :     0.566258  s :     0.566258
      pz      :     0.024324  p :     0.058061
      px      :     0.010881
      py      :     0.022856
 29 H s       :     0.568857  s :     0.568857
      pz      :     0.011944  p :     0.043614
      px      :     0.013797
      py      :     0.017873
 30 O s       :     3.806612  s :     3.806612
      pz      :     1.686054  p :     4.954577
      px      :     1.430319
      py      :     1.838204
      dz2     :     0.001291  d :     0.018061
      dxz     :     0.006084
      dyz     :     0.004436
      dx2y2   :     0.002270
      dxy     :     0.003980
      f0      :     0.000121  f :     0.000928
      f+1     :     0.000039
      f-1     :     0.000075
      f+2     :     0.000144
      f-2     :     0.000273
      f+3     :     0.000123
      f-3     :     0.000154
 31 H s       :     0.578826  s :     0.578826
      pz      :     0.013237  p :     0.056374
      px      :     0.030181
      py      :     0.012955
 32 H s       :     0.558406  s :     0.558406
      pz      :     0.019242  p :     0.054969
      px      :     0.017338
      py      :     0.018389
 33 O s       :     3.796524  s :     3.796524
      pz      :     1.471030  p :     4.932147
      px      :     1.720532
      py      :     1.740586
      dz2     :     0.000259  d :     0.019524
      dxz     :     0.002950
      dyz     :     0.009195
      dx2y2   :     0.003165
      dxy     :     0.003954
      f0      :     0.000030  f :     0.000956
      f+1     :     0.000156
      f-1     :     0.000271
      f+2     :     0.000194
      f-2     :     0.000206
      f+3     :     0.000028
      f-3     :     0.000072
 34 H s       :     0.559867  s :     0.559867
      pz      :     0.018523  p :     0.050726
      px      :     0.016913
      py      :     0.015290
 35 H s       :     0.570740  s :     0.570740
      pz      :     0.021513  p :     0.053510
      px      :     0.011097
      py      :     0.020900


                     *******************************
                     * LOEWDIN POPULATION ANALYSIS *
                     *******************************

----------------------
LOEWDIN ATOMIC CHARGES
----------------------
   0 O :   -0.285905
   1 H :    0.188632
   2 H :    0.151082
   3 O :   -0.317522
   4 H :    0.153695
   5 H :    0.148386
   6 O :   -0.286399
   7 H :    0.150912
   8 H :    0.188396
[...]
      f+1     :     0.000137
      f-1     :     0.000054
      f+2     :     0.000204
      f-2     :     0.000564
      f+3     :     0.000309
      f-3     :     0.000373
  4 H s       :     0.668947  s :     0.668947
      pz      :     0.057325  p :     0.177357
      px      :     0.050479
      py      :     0.069554
  5 H s       :     0.665529  s :     0.665529
      pz      :     0.044525  p :     0.186085
      px      :     0.101777
      py      :     0.039783
  6 O s       :     3.462808  s :     3.462808
      pz      :     1.434599  p :     4.793802
      px      :     1.561539
      py      :     1.797663
      dz2     :     0.013581  d :     0.027752
      dxz     :     0.002292
      dyz     :     0.002759
      dx2y2   :     0.005591
      dxy     :     0.003529
      f0      :     0.001129  f :     0.002037
      f+1     :     0.000120
      f-1     :     0.000081
      f+2     :     0.000130
      f-2     :     0.000099
      f+3     :     0.000180
      f-3     :     0.000298
  7 H s       :     0.645688  s :     0.645688
      pz      :     0.034511  p :     0.203400
      px      :     0.125437
      py      :     0.043453
  8 H s       :     0.654492  s :     0.654492
      pz      :     0.085024  p :     0.157112
      px      :     0.031333
      py      :     0.040755
  9 O s       :     3.464570  s :     3.464570
      pz      :     1.596592  p :     4.793756
      px      :     1.548352
      py      :     1.648812
      dz2     :     0.000864  d :     0.027903
      dxz     :     0.007198
      dyz     :     0.008885
      dx2y2   :     0.009567
      dxy     :     0.001388
      f0      :     0.000342  f :     0.002039
      f+1     :     0.000011
      f-1     :     0.000226
      f+2     :     0.000938
      f-2     :     0.000069
      f+3     :     0.000367
      f-3     :     0.000087
 10 H s       :     0.644103  s :     0.644103
      pz      :     0.083271  p :     0.206334
      px      :     0.025806
      py      :     0.097257
 11 H s       :     0.655096  s :     0.655096
      pz      :     0.046260  p :     0.157405
      px      :     0.076264
      py      :     0.034881
 12 O s       :     3.470456  s :     3.470456
      pz      :     1.623513  p :     4.819174
      px      :     1.799967
      py      :     1.395694
      dz2     :     0.001115  d :     0.027924
      dxz     :     0.003265
      dyz     :     0.016829
      dx2y2   :     0.004257
      dxy     :     0.002458
      f0      :     0.000197  f :     0.001912
      f+1     :     0.000016
      f-1     :     0.000381
      f+2     :     0.000690
      f-2     :     0.000272
      f+3     :     0.000184
      f-3     :     0.000172
 13 H s       :     0.669128  s :     0.669128
      pz      :     0.058784  p :     0.177327
      px      :     0.048672
      py      :     0.069871
 14 H s       :     0.666070  s :     0.666070
      pz      :     0.071038  p :     0.185413
      px      :     0.037963
      py      :     0.076412
 15 O s       :     3.473667  s :     3.473667
      pz      :     1.633970  p :     4.815845
      px      :     1.592111
      py      :     1.589764
      dz2     :     0.001380  d :     0.028782
      dxz     :     0.006153
      dyz     :     0.009155
      dx2y2   :     0.007515
      dxy     :     0.004580
      f0      :     0.000330  f :     0.001838
      f+1     :     0.000029
      f-1     :     0.000155
      f+2     :     0.000558
      f-2     :     0.000290
      f+3     :     0.000262
      f-3     :     0.000214
 16 H s       :     0.661718  s :     0.661718
      pz      :     0.047711  p :     0.199813
      px      :     0.112872
      py      :     0.039230
 17 H s       :     0.661406  s :     0.661406
      pz      :     0.070208  p :     0.189822
      px      :     0.039874
      py      :     0.079740
 18 O s       :     3.475774  s :     3.475774
      pz      :     1.669017  p :     4.818461
      px      :     1.711736
      py      :     1.437708
      dz2     :     0.001802  d :     0.028730
      dxz     :     0.003644
      dyz     :     0.014153
      dx2y2   :     0.003444
      dxy     :     0.005686
      f0      :     0.000233  f :     0.001819
      f+1     :     0.000025
      f-1     :     0.000274
      f+2     :     0.000436
      f-2     :     0.000425
      f+3     :     0.000273
      f-3     :     0.000154
 19 H s       :     0.661724  s :     0.661724
      pz      :     0.056545  p :     0.189872
      px      :     0.059347
      py      :     0.073981
 20 H s       :     0.661145  s :     0.661145
      pz      :     0.081293  p :     0.200388
      px      :     0.033677
      py      :     0.085419
 21 O s       :     3.475032  s :     3.475032
      pz      :     1.432032  p :     4.818423
      px      :     1.780876
      py      :     1.605515
      dz2     :     0.001909  d :     0.028670
      dxz     :     0.003908
      dyz     :     0.015639
      dx2y2   :     0.003997
      dxy     :     0.003218
      f0      :     0.000070  f :     0.001823
      f+1     :     0.000224
      f-1     :     0.000583
      f+2     :     0.000472
      f-2     :     0.000292
      f+3     :     0.000049
      f-3     :     0.000133
 22 H s       :     0.661878  s :     0.661878
      pz      :     0.080411  p :     0.190043
      px      :     0.053375
      py      :     0.056257
 23 H s       :     0.661091  s :     0.661091
      pz      :     0.077836  p :     0.200219
      px      :     0.035767
      py      :     0.086616
 24 O s       :     3.469411  s :     3.469411
      pz      :     1.530234  p :     4.814815
      px      :     1.625858
      py      :     1.658723
      dz2     :     0.003581  d :     0.028183
      dxz     :     0.006409
      dyz     :     0.007937
      dx2y2   :     0.004563
      dxy     :     0.005693
      f0      :     0.000160  f :     0.001926
      f+1     :     0.000231
      f-1     :     0.000497
      f+2     :     0.000200
      f-2     :     0.000390
      f+3     :     0.000053
      f-3     :     0.000397
 25 H s       :     0.668851  s :     0.668851
      pz      :     0.077600  p :     0.176998
      px      :     0.041469
      py      :     0.057930
 26 H s       :     0.665483  s :     0.665483
      pz      :     0.040772  p :     0.185804
      px      :     0.098235
      py      :     0.046796
 27 O s       :     3.464382  s :     3.464382
      pz      :     1.604236  p :     4.793995
      px      :     1.803710
      py      :     1.386049
      dz2     :     0.003223  d :     0.027842
      dxz     :     0.002479
      dyz     :     0.014390
      dx2y2   :     0.005350
      dxy     :     0.002399
      f0      :     0.000200  f :     0.002037
      f+1     :     0.000020
      f-1     :     0.000476
      f+2     :     0.000593
      f-2     :     0.000183
      f+3     :     0.000287
      f-3     :     0.000278
 28 H s       :     0.644867  s :     0.644867
      pz      :     0.092588  p :     0.204886
      px      :     0.033310
      py      :     0.078988
 29 H s       :     0.654949  s :     0.654949
      pz      :     0.041863  p :     0.157337
      px      :     0.044452
      py      :     0.071023
 30 O s       :     3.474034  s :     3.474034
      pz      :     1.648798  p :     4.815329
      px      :     1.402829
      py      :     1.763702
      dz2     :     0.001467  d :     0.028847
      dxz     :     0.010090
      dyz     :     0.006978
      dx2y2   :     0.004422
      dxy     :     0.005890
      f0      :     0.000225  f :     0.001839
      f+1     :     0.000125
      f-1     :     0.000126
      f+2     :     0.000346
      f-2     :     0.000596
      f+3     :     0.000154
      f-3     :     0.000267
 31 H s       :     0.662037  s :     0.662037
      pz      :     0.046290  p :     0.199581
      px      :     0.110295
      py      :     0.042996
 32 H s       :     0.661060  s :     0.661060
      pz      :     0.069325  p :     0.190281
      px      :     0.058817
      py      :     0.062138
 33 O s       :     3.471572  s :     3.471572
      pz      :     1.443528  p :     4.820167
      px      :     1.671253
      py      :     1.705385
      dz2     :     0.001114  d :     0.027911
      dxz     :     0.005775
      dyz     :     0.013312
      dx2y2   :     0.004005
      dxy     :     0.003705
      f0      :     0.000094  f :     0.001903
      f+1     :     0.000193
      f-1     :     0.000539
      f+2     :     0.000405
      f-2     :     0.000448
      f+3     :     0.000044
      f-3     :     0.000179
 34 H s       :     0.669077  s :     0.669077
      pz      :     0.062322  p :     0.177710
      px      :     0.061860
      py      :     0.053528
 35 H s       :     0.666126  s :     0.666126
      pz      :     0.076568  p :     0.185442
      px      :     0.033497
      py      :     0.075377


                      *****************************
                      * MAYER POPULATION ANALYSIS *
                      *****************************

  NA   - Mulliken gross atomic population
  ZA   - Total nuclear charge
  QA   - Mulliken gross atomic charge
  VA   - Mayer's total valence
  BVA  - Mayer's bonded valence
  FA   - Mayer's free valence

  ATOM       NA         ZA         QA         VA         BVA        FA
  0 O      8.7530     8.0000    -0.7530     1.7933     1.7933    -0.0000
  1 H      0.6114     1.0000     0.3886     0.8677     0.8677    -0.0000
  2 H      0.6237     1.0000     0.3763     0.9169     0.9169    -0.0000
  3 O      8.7459     8.0000    -0.7459     1.7766     1.7766     0.0000
  4 H      0.6106     1.0000     0.3894     0.8923     0.8923     0.0000
  5 H      0.6245     1.0000     0.3755     0.9182     0.9182     0.0000
  6 O      8.7539     8.0000    -0.7539     1.7931     1.7931    -0.0000
  7 H      0.6218     1.0000     0.3782     0.9147     0.9147    -0.0000
  8 H      0.6117     1.0000     0.3883     0.8679     0.8679    -0.0000
  9 O      8.7548     8.0000    -0.7548     1.7898     1.7898     0.0000
 10 H      0.6239     1.0000     0.3761     0.9178     0.9178     0.0000
 11 H      0.6125     1.0000     0.3875     0.8686     0.8686     0.0000
 12 O      8.7489     8.0000    -0.7489     1.7728     1.7728    -0.0000
 13 H      0.6106     1.0000     0.3894     0.8924     0.8924    -0.0000
 14 H      0.6239     1.0000     0.3761     0.9171     0.9171    -0.0000
 15 O      8.7800     8.0000    -0.7800     1.7382     1.7382    -0.0000
 16 H      0.6331     1.0000     0.3669     0.9256     0.9256    -0.0000
 17 H      0.6141     1.0000     0.3859     0.9177     0.9177    -0.0000
 18 O      8.7828     8.0000    -0.7828     1.7340     1.7340     0.0000
 19 H      0.6139     1.0000     0.3861     0.9173     0.9173     0.0000
 20 H      0.6331     1.0000     0.3669     0.9260     0.9260     0.0000
 21 O      8.7834     8.0000    -0.7834     1.7338     1.7338    -0.0000
 22 H      0.6139     1.0000     0.3861     0.9175     0.9175    -0.0000
 23 H      0.6324     1.0000     0.3676     0.9251     0.9251    -0.0000
 24 O      8.7439     8.0000    -0.7439     1.7784     1.7784    -0.0000
 25 H      0.6109     1.0000     0.3891     0.8925     0.8925    -0.0000
 26 H      0.6239     1.0000     0.3761     0.9174     0.9174    -0.0000
 27 O      8.7542     8.0000    -0.7542     1.7904     1.7904     0.0000
 28 H      0.6243     1.0000     0.3757     0.9180     0.9180    -0.0000
 29 H      0.6125     1.0000     0.3875     0.8686     0.8686     0.0000
 30 O      8.7802     8.0000    -0.7802     1.7371     1.7371     0.0000
 31 H      0.6352     1.0000     0.3648     0.9280     0.9280     0.0000
 32 H      0.6134     1.0000     0.3866     0.9171     0.9171     0.0000
 33 O      8.7492     8.0000    -0.7492     1.7726     1.7726     0.0000
 34 H      0.6106     1.0000     0.3894     0.8925     0.8925     0.0000
 35 H      0.6242     1.0000     0.3758     0.9174     0.9174     0.0000

  Mayer bond orders larger than 0.1
B(  0-O ,  1-H ) :   0.8480 B(  0-O ,  2-H ) :   0.7301 B(  0-O , 14-H ) :   0.1181 
B(  0-O , 19-H ) :   0.1267 B(  2-H , 33-O ) :   0.1735 B(  3-O ,  4-H ) :   0.8109 
B(  3-O ,  5-H ) :   0.7893 B(  3-O , 28-H ) :   0.1789 B(  5-H ,  9-O ) :   0.1206 
B(  6-O ,  7-H ) :   0.7295 B(  6-O ,  8-H ) :   0.8481 B(  6-O , 22-H ) :   0.1262 
B(  6-O , 35-H ) :   0.1189 B(  7-H , 12-O ) :   0.1722 B(  9-O , 10-H ) :   0.7241 
B(  9-O , 11-H ) :   0.8488 B(  9-O , 32-H ) :   0.1277 B( 10-H , 24-O ) :   0.1805 
B( 12-O , 13-H ) :   0.8108 B( 12-O , 14-H ) :   0.7905 B( 15-O , 16-H ) :   0.7499 
B( 15-O , 17-H ) :   0.7736 B( 15-O , 20-H ) :   0.1616 B( 16-H , 21-O ) :   0.1589 
B( 17-H , 27-O ) :   0.1268 B( 18-O , 19-H ) :   0.7736 B( 18-O , 20-H ) :   0.7473 
B( 18-O , 31-H ) :   0.1603 B( 21-O , 22-H ) :   0.7741 B( 21-O , 23-H ) :   0.7474 
B( 23-H , 30-O ) :   0.1606 B( 24-O , 25-H ) :   0.8111 B( 24-O , 26-H ) :   0.7894 
B( 26-H , 27-O ) :   0.1194 B( 27-O , 28-H ) :   0.7261 B( 27-O , 29-H ) :   0.8488 
B( 30-O , 31-H ) :   0.7505 B( 30-O , 32-H ) :   0.7724 B( 33-O , 34-H ) :   0.8104 
B( 33-O , 35-H ) :   0.7903 

-------
TIMINGS
-------

Total SCF time: 0 days 0 hours 0 min 41 sec 

Total time                  ....      41.569 sec
Sum of individual times     ....      43.625 sec  (104.9%)

Fock matrix formation       ....      31.800 sec  ( 76.5%)
  Coulomb formation         ....      27.994 sec  ( 88.0% of F)
  Split-RI-J                ....       3.128 sec  (  9.8% of F)
  Chain of spheres X        ....      24.103 sec  ( 75.8% of F)
  COS-X 1 center corr.      ....       0.000 sec  (  0.0% of F)
  XC integration            ....       3.726 sec  ( 11.7% of F)
    Basis function eval.    ....       1.014 sec  ( 27.2% of XC)
    Density eval.           ....       0.843 sec  ( 22.6% of XC)
    XC-Functional eval.     ....       0.116 sec  (  3.1% of XC)
    XC-Potential eval.      ....       1.382 sec  ( 37.1% of XC)
Diagonalization             ....       0.608 sec  (  1.5%)
Density matrix formation    ....       0.053 sec  (  0.1%)
Population analysis         ....       0.397 sec  (  1.0%)
Initial guess               ....       1.165 sec  (  2.8%)
Orbital Transformation      ....       0.000 sec  (  0.0%)
Orbital Orthonormalization  ....       0.000 sec  (  0.0%)
DIIS solution               ....       0.212 sec  (  0.5%)
SOSCF solution              ....       0.728 sec  (  1.8%)
Grid generation             ....       2.743 sec  (  6.6%)
COSMO(total)                ....       5.920 sec  ( 14.2%)
   Initialization           ....       1.640 sec  ( 27.7% of COSMO)
   Potential evaluation     ....       2.236 sec  ( 37.8% of COSMO)
   Charge calculation       ....       0.357 sec  (  6.0% of COSMO)
   Fock-Matrix contrib.     ....       1.764 sec  ( 29.8% of COSMO)
   Outer-lying charge       ....       0.183 sec  (  3.1% of COSMO)
           ************************************************************
           *              Shut down parallel processing               *
           ************************************************************

Entering the calculation of the dispersion correction...

Checking the input atom types...

Done


-------------------------------------------------------------------------------
                          DFT DISPERSION CORRECTION                            
                                                                               
                                DFTD3 V2.1  Rev 6                               
                          USING Becke-Johnson damping                          
-------------------------------------------------------------------------------
The B3LYP functional is recognized
Active option DFTDOPT                   ...         4   

molecular C6(AA) [au] = 6406.528214 


            DFT-D V3
 parameters
 s6 scaling factor         :     1.0000 
 a1 scaling factor         :     0.3981 
 s8 scaling factor         :     1.9889 
 a2 scaling factor         :     4.4211 
 ad hoc parameters k1-k3   :    16.0000     1.3333    -4.0000 

 Edisp/kcal,au: -28.051662957431  -0.044703165649 
 E6   /kcal   : -15.446095555 
 E8   /kcal   : -12.605567402 
 % E8         :  44.936970124 

-------------------------   ----------------
Dispersion correction           -0.044703166
-------------------------   ----------------


-------------------------   --------------------
FINAL SINGLE POINT ENERGY      -917.367990475275
-------------------------   --------------------


                            ***************************************
                            *     ORCA property calculations      *
                            ***************************************

                                    ---------------------
                                    Active property flags
                                    ---------------------
   (+) Dipole Moment


------------------------------------------------------------------------------
                       ORCA ELECTRIC PROPERTIES CALCULATION
------------------------------------------------------------------------------

Dipole Moment Calculation                       ... on
Quadrupole Moment Calculation                   ... off
Polarizability Calculation                      ... off
GBWName                                         ... 2_B3LYP_SMD_onBP86_SMD_12_waters.gbw
Electron density file                           ... 2_B3LYP_SMD_onBP86_SMD_12_waters.scfp.tmp

-------------
DIPOLE MOMENT
-------------
                                X             Y             Z
Electronic contribution:     -0.00323      -0.01119      -0.00313
Nuclear contribution   :      0.01227      -0.01369       0.00277
                        -----------------------------------------
Total Dipole Moment    :      0.00905      -0.02489      -0.00036
                        -----------------------------------------
Magnitude (a.u.)       :      0.02648
Magnitude (Debye)      :      0.06731

smp-n35.crc.pitt.edu.66995hfi_wait_for_device: The /dev/hfi1_0 device failed to appear after 15.0 seconds: Connection timed out
smp-n35.crc.pitt.edu.66993hfi_wait_for_device: The /dev/hfi1_0 device failed to appear after 15.0 seconds: Connection timed out
smp-n35.crc.pitt.edu.66994hfi_wait_for_device: The /dev/hfi1_0 device failed to appear after 15.0 seconds: Connection timed out
smp-n35.crc.pitt.edu.67004hfi_wait_for_device: The /dev/hfi1_0 device failed to appear after 15.0 seconds: Connection timed out
smp-n35.crc.pitt.edu.67005hfi_wait_for_device: The /dev/hfi1_0 device failed to appear after 15.0 seconds: Connection timed out
smp-n35.crc.pitt.edu.66996hfi_wait_for_device: The /dev/hfi1_0 device failed to appear after 15.0 seconds: Connection timed out
smp-n35.crc.pitt.edu.66999hfi_wait_for_device: The /dev/hfi1_0 device failed to appear after 15.0 seconds: Connection timed out
smp-n35.crc.pitt.edu.67001hfi_wait_for_device: The /dev/hfi1_0 device failed to appear after 15.0 seconds: Connection timed out
smp-n35.crc.pitt.edu.67009hfi_wait_for_device: The /dev/hfi1_0 device failed to appear after 15.0 seconds: Connection timed out
smp-n35.crc.pitt.edu.67008hfi_wait_for_device: The /dev/hfi1_0 device failed to appear after 15.0 seconds: Connection timed out
smp-n35.crc.pitt.edu.66997hfi_wait_for_device: The /dev/hfi1_0 device failed to appear after 15.0 seconds: Connection timed out
smp-n35.crc.pitt.edu.66998hfi_wait_for_device: The /dev/hfi1_0 device failed to appear after 15.0 seconds: Connection timed out

Timings for individual modules:

Sum of individual times         ...       74.294 sec (=   1.238 min)
GTO integral calculation        ...       15.725 sec (=   0.262 min)  21.2 %
SCF iterations                  ...       58.569 sec (=   0.976 min)  78.8 %
                             ****ORCA TERMINATED NORMALLY****
TOTAL RUN TIME: 0 days 0 hours 1 minutes 29 seconds 810 msec
cp: cannot stat ‘/scratch/slurm-1328760/*.{prop}’: No such file or directory
