24
Energy:   -112.63225114
O   -1.53022810   1.18103789  -0.53735805
H   -0.67943501   1.44612774  -0.18791515
H   -1.43878327   0.24325283  -0.70596667
O    0.97717898   1.53691259   0.61409115
H    0.73663066   1.04570356   1.39963684
H    1.80661183   1.95834908   0.83917842
C   -2.77093827  -0.42445294   2.24042422
H   -2.91344281  -1.36794358   1.75625686
H   -3.13444570   0.35904675   1.60884709
H   -3.30725436  -0.41405933   3.16625148
C   -1.27076236  -0.20914420   2.51376356
N   -0.15381320  -0.04883706   2.71727712
C    0.77397306   1.03278571  -2.98539423
H    0.55974265   1.87072345  -2.35542133
H   -0.06813949   0.37283143  -2.99974350
H    0.97537945   1.37565833  -3.97875868
C    2.00444480   0.28314096  -2.44172886
N    2.92058695  -0.27500362  -2.03694528
C    1.60990228  -2.22231501   0.40330170
H    2.10154142  -2.94647276  -0.21215480
H    1.45769947  -2.62957329   1.38098983
H    2.21608536  -1.34338352   0.47344866
C    0.24891482  -1.85892538  -0.21900138
N   -0.76440220  -1.58836529  -0.68233430
