24
Energy:   -120.79328455
O   -1.90586134  -0.63612876   1.84525435
H   -1.01231641  -0.97320767   1.78054631
H   -2.30457856  -1.14683450   2.54983655
O    0.60062997  -1.63750134   1.51174988
H    1.37865233  -1.08284154   1.45460468
H    0.45391599  -1.93825669   0.61494830
C   -0.15669621   2.19003726   1.52203866
H    0.48931564   1.43203244   1.91318768
H   -1.15291629   2.02771897   1.87714065
H    0.18487769   3.15125647   1.84496898
C   -0.14426922   2.13117736  -0.01678591
N   -0.13501677   2.08735348  -1.16251076
C   -2.33299622  -0.46008227  -1.69106511
H   -3.04912874  -1.08056830  -2.18810784
H   -2.11804424   0.39383456  -2.29894733
H   -2.73120800  -0.13798650  -0.75160740
C   -1.03854129  -1.25962666  -1.45291556
N   -0.07476076  -1.85492380  -1.27560239
C    2.70647878   0.20461805  -2.09148303
H    2.14398264   1.04911181  -2.43108364
H    2.26933224  -0.69310904  -2.47604521
H    3.71590344   0.28615785  -2.43689902
C    2.69239999   0.16387783  -0.55208638
N    2.68191770   0.13354488   0.59406439
