24
Energy:   -111.80095650
O    0.18274443  -0.05746270  -1.84782445
H    0.04763835   0.64248451  -1.20903489
H    0.10211079  -0.86476579  -1.33989554
O   -0.00365210  -2.17104818  -0.09791599
H    0.83078278  -2.01832241   0.34550831
H   -0.65213151  -2.17623780   0.60612902
C   -0.13252160   0.89676716   2.78068656
H   -1.06452720   0.44155334   3.04345285
H    0.07852891   1.69552275   3.46064707
H    0.64835409   0.16719201   2.83409403
C   -0.21876261   1.45236765   1.34699532
N   -0.28297296   1.86603746   0.27954702
C   -3.22014194   0.23676633  -1.41744342
H   -2.25543287   0.52184260  -1.78209135
H   -3.87534464   1.08230982  -1.44322575
H   -3.61849619  -0.54204874  -2.03360903
C   -3.09226718  -0.26957030   0.03130475
N   -2.99705861  -0.64656095   1.10996361
C    3.44823790   0.62735330  -0.87271382
H    3.10617546   1.63597843  -0.76990903
H    3.18133443   0.25710633  -1.84048384
H    4.51195334   0.59830322  -0.76062169
C    2.79373737  -0.24962519   0.21086256
N    2.30643197  -0.90257553   1.01763444
