24
Energy:   -115.12509543
O   -0.21217727  -0.27362605  -1.88710646
H   -0.36746559   0.47017006  -1.30496839
H    0.08177144  -0.97554051  -1.30646707
O    0.69997854  -1.86142734   0.15172765
H    1.47961341  -1.36995898   0.41030097
H    0.14101752  -1.85091644   0.92869865
C   -0.26216349   1.82399131   2.78462303
H   -1.01492218   2.45476384   3.20933535
H    0.70475892   2.23047063   2.99612883
H   -0.33749801   0.84412369   3.20780533
C   -0.46197413   1.74140075   1.25987567
N   -0.61074223   1.67990833   0.12463196
C   -3.33375640  -1.28363402  -0.19583563
H   -2.81557866  -0.93264258  -1.06370488
H   -4.14181029  -0.61959424   0.02999432
H   -3.71941146  -2.26403671  -0.38286459
C   -2.36149469  -1.33347329   0.99740501
N   -1.63760166  -1.37058090   1.88582690
C    2.95791284   0.98428606  -2.23328629
H    3.71717879   1.73006365  -2.34388098
H    2.01053339   1.39560801  -2.51290302
H    3.18393052   0.14910137  -2.86279533
C    2.90335905   0.52096850  -0.76564849
N    2.86274128   0.17600751   0.32707457
