24
Energy:   -113.59501956
O    0.41878792   1.64793844  -0.84484103
H    1.29321948   1.42612359  -0.52484185
H    0.52428044   1.73235709  -1.79245734
O   -1.18894253   1.07670520   1.33587357
H   -1.15649032   0.12733756   1.21806105
H   -0.68542206   1.42707073   0.60106544
C    1.30877941  -2.14069744  -1.22549553
H    2.15471840  -2.59405592  -0.75246962
H    1.60668761  -1.22053248  -1.68314850
H    0.92121336  -2.80150021  -1.97251049
C    0.22029801  -1.86148733  -0.17247609
N   -0.59012588  -1.65360271   0.61154475
C    1.51629675   0.18979409   3.19813948
H    0.95330088  -0.72009268   3.20461322
H    0.87273678   1.00916314   3.44178681
H    2.30329939   0.12740226   3.92038126
C    2.12014078   0.40986992   1.79866136
N    2.56973012   0.57372637   0.75668629
C   -2.82740769   0.18334755  -1.56699619
H   -2.85263963  -0.60878161  -0.84811168
H   -3.75227368   0.20673238  -2.10456027
H   -2.68339718   1.11682544  -1.06422478
C   -1.66724232  -0.05374608  -2.55157880
N   -0.80344647  -0.23027305  -3.28464531
