24
Energy:   -115.31321758
O   -0.71493924  -0.53861726  -1.64199469
H   -1.13641942   0.29901154  -1.44973367
H    0.14783466  -0.30079333  -1.98154265
O    0.34021983  -1.63493466   0.67104767
H   -0.06154792  -1.32643509  -0.14113614
H   -0.17833735  -1.22784872   1.36502991
C    0.85742713   2.50227342   0.76083577
H    0.79684208   3.43163439   1.28763539
H    1.69709360   2.52214058   0.09791451
H    0.97500326   1.70215192   1.46146444
C   -0.43309176   2.28767098  -0.05163378
N   -1.39394174   2.12788970  -0.65655429
C   -3.76707066  -0.14810571   0.70545693
H   -3.60150278  -0.80682544  -0.12132948
H   -3.97967839   0.83520464   0.34104261
H   -4.59584424  -0.50150644   1.28264093
C   -2.50655179  -0.10664061   1.58918359
N   -1.56803819  -0.07576796   2.24715826
C    3.55093489  -1.53809102  -0.53710294
H    2.92886619  -2.35101008  -0.22550493
H    3.99735171  -1.08120558   0.32130652
H    4.31877846  -1.90485357  -1.18579438
C    2.69862001  -0.49780300  -1.28740967
N    2.06403285   0.27673872  -1.84604714
