24
Energy:   -112.66392938
O   -0.25404602  -0.62157044  -1.92166032
H   -0.09785555   0.27485527  -1.62457896
H   -0.13342499  -1.15841798  -1.13841251
O   -0.00469403  -1.79634078   0.58776608
H   -0.83532011  -1.48466223   0.94713867
H    0.33594353  -2.39350833   1.25379073
C    0.36409664   1.59730929   2.22688481
H    1.27699105   2.05002938   2.55333312
H    0.36238721   0.56224196   2.49805226
H   -0.46434007   2.08929202   2.69222846
C    0.24500076   1.72736689   0.69701514
N    0.15632846   1.82420069  -0.44204236
C   -3.30584539   0.74002465  -1.13467835
H   -4.36335439   0.89201716  -1.07574474
H   -3.08242693   0.10656001  -1.96756840
H   -2.81655415   1.68298733  -1.26240682
C   -2.80959128   0.07582208   0.16307617
N   -2.44010754  -0.41870693   1.12931340
C    2.99852718  -0.62511807  -1.04048360
H    2.52446253   0.22366948  -1.48738693
H    2.43004982  -1.50565243  -1.25587123
H    3.98626461  -0.73222594  -1.43772630
C    3.07740494  -0.42527079   0.48445553
N    3.13613302  -0.27647541   1.61984203
