24
Energy:   -113.83778735
O    0.17022982  -1.75407209  -2.13176469
H    0.18611793  -2.61629271  -2.54716213
H   -0.06689342  -1.93062837  -1.22136242
O   -0.26725746  -2.31063683   0.48924475
H    0.50904207  -1.88202146   0.84963310
H   -1.00387302  -1.83035375   0.86734199
C   -0.43191294   1.30408907   3.38104232
H   -0.62367460   2.33931076   3.19014001
H    0.60974370   1.10276238   3.24205275
H   -0.70929801   1.06965922   4.38752097
C   -1.25590070   0.44130583   2.40726142
N   -1.86939705  -0.20107551   1.68223727
C   -2.06075838   0.77361611  -1.58346138
H   -1.97668296  -0.08424489  -0.94950080
H   -1.85437831   0.49138510  -2.59472396
H   -3.05294741   1.16895378  -1.51890005
C   -1.05078488   1.84550755  -1.13334778
N   -0.29881369   2.64357946  -0.79821774
C    2.72283852   0.77774748  -1.20465774
H    2.08199020   0.50585133  -2.01723764
H    3.70015707   0.37518818  -1.37107152
H    2.78273556   1.84405178  -1.13903320
C    2.15236493   0.21377706   0.10991339
N    1.72762141  -0.20612455   1.08867135
