24
Energy:    -71.26484320
C    0.80091868  -2.39543487   1.69547690
H    0.98640082  -2.97485657   2.57568543
H    1.53652494  -1.62250710   1.61569485
H    0.85360266  -3.02822086   0.83425371
C   -0.60058811  -1.76319906   1.78297888
N   -1.64407362  -1.29247077   1.84812807
C   -1.09965126   2.25099828   1.37860352
H   -1.00374405   3.19531638   0.88467506
H   -1.57777054   2.39074123   2.32558448
H   -1.68818922   1.59133725   0.77580215
C    0.29750561   1.64017843   1.59413030
N    1.33775240   1.18539528   1.75459979
C   -2.20463632  -0.66243584  -1.84773343
H   -2.21996091  -0.97491161  -0.82449141
H   -1.61056792  -1.34402066  -2.41994315
H   -3.20320043  -0.65030302  -2.23194899
C   -1.60040784   0.75080865  -1.94389975
N   -1.15053228   1.80303341  -2.01549995
C    2.59988666   0.74683343  -1.26627821
H    1.97750141   1.61435679  -1.19599307
H    3.21176500   0.81678983  -2.14126969
H    3.22349213   0.68405229  -0.39905630
C    1.71748148  -0.51208096  -1.35625405
N    1.06049071  -1.44939994  -1.42324516
