24
Energy:    -71.01230982
C   -2.69089688   1.14625985   1.26899260
H   -2.50970347   2.19594957   1.37008962
H   -2.20503372   0.62212901   2.06531097
H   -3.74385391   0.96050582   1.30993171
C   -2.13548768   0.65719397  -0.08153885
N   -1.72196028   0.29306220  -1.08707090
C    2.05224828   0.42823957   1.65083768
H    3.09582625   0.62429673   1.51890289
H    1.77699422  -0.43558976   1.08256558
H    1.85050321   0.25274835   2.68688829
C    1.23679683   1.64191064   1.16747294
N    0.62965616   2.54554391   0.80758592
C   -0.30175028  -2.89497053  -0.17757002
H    0.71641042  -3.22311483  -0.15368901
H   -0.43488242  -2.20368594  -0.98336189
H   -0.94491432  -3.73799467  -0.32092060
C   -0.64985497  -2.20429527   1.15411719
N   -0.90903474  -1.69005614   2.14561884
C    0.90897087   1.23507531  -2.81785855
H    1.64314638   1.85653419  -3.28655394
H    0.35294726   1.81242421  -2.10905316
H    0.24435694   0.84592946  -3.56065928
C    1.60911380   0.06976531  -2.09435839
N    2.13040204  -0.79786096  -1.55567964
