24
Energy:    -70.78343155
C   -2.40564356  -1.21792961   1.13859462
H   -1.51326425  -1.22884354   1.72888288
H   -3.06432970  -1.99177653   1.47354628
H   -2.88924579  -0.26893034   1.24071388
C   -2.04596068  -1.45431061  -0.34003727
N   -1.77816042  -1.63030700  -1.44094592
C   -0.61604473   1.61621588  -2.00245901
H   -0.76444714   2.67204485  -2.09247072
H   -1.17268979   1.24781467  -1.16620192
H   -0.95130911   1.13150314  -2.89551580
C    0.88122933   1.32445729  -1.79115992
N    1.99601793   1.10722976  -1.63383815
C    1.32981777   1.91816421   2.35062063
H    1.45534428   2.75883648   3.00055403
H    2.02772485   1.98490805   1.54230753
H    1.50319741   1.01520842   2.89789518
C   -0.10485068   1.91174468   1.79090176
N   -1.17302656   1.90696505   1.37416561
C    1.65053177  -2.36742880  -1.32261486
H    0.73109541  -2.60244937  -1.81688432
H    2.20282545  -3.26745430  -1.14991605
H    2.22700618  -1.70747766  -1.93665136
C    1.34925000  -1.68364604   0.02396244
N    1.12493203  -1.17453869   1.02655045
