24
Energy:    -71.66197387
C    3.00907985  -0.07420575   0.36003608
H    3.45326662  -0.31307536   1.30372014
H    2.36947866   0.77625486   0.47195642
H    3.77799716   0.14875495  -0.34986094
C    2.18366292  -1.27533849  -0.13752500
N    1.56910249  -2.16963641  -0.50798184
C   -1.01543367   2.83421262   0.42117851
H   -1.93152089   2.29062709   0.32018758
H   -1.21452833   3.88360664   0.35767582
H   -0.57155643   2.61211854   1.36909534
C   -0.04925510   2.42587521  -0.70636729
N    0.67010877   2.12184944  -1.54587638
C   -1.24559435  -1.92202467   1.81767770
H   -0.74202517  -2.43587037   1.02566706
H   -2.22939873  -1.64943985   1.49716944
H   -1.31350764  -2.56267140   2.67199535
C   -0.45666887  -0.65273469   2.18929517
N    0.13072201   0.29230939   2.46598127
C   -0.70132189  -0.84327766  -2.53022405
H   -0.69287630  -1.90187415  -2.68579501
H    0.26038334  -0.52584656  -2.18488417
H   -0.93048179  -0.34924085  -3.45126285
C   -1.76779681  -0.48759662  -1.47774020
N   -2.56183586  -0.22277592  -0.69411814
