24
Energy:    -71.15059163
C    0.81625742   0.92702606   2.80947400
H    1.39549251   1.21440336   3.66200036
H    0.19128530   0.09730805   3.06613910
H    0.20691456   1.74976123   2.49849618
C    1.75908444   0.52346692   1.66064102
N    2.46106202   0.22299879   0.80528264
C    1.11851311   2.12244940  -1.61294448
H    0.99044347   2.42116768  -2.63238831
H    1.36583630   1.08213607  -1.57449318
H    1.90795876   2.69332971  -1.17048508
C   -0.18933679   2.36815144  -0.83785794
N   -1.16309049   2.55108778  -0.26077078
C   -3.20686804  -0.42565972  -0.44454599
H   -3.18343977   0.64365180  -0.41414577
H   -4.17854891  -0.76943602  -0.15722520
H   -2.98986631  -0.75907197  -1.43784636
C   -2.15441155  -0.99002469   0.52778498
N   -1.37080985  -1.41022005   1.25172959
C    1.31162503  -2.68369241  -0.62860892
H    1.07086612  -3.70960207  -0.81420171
H    1.06365671  -2.43641200   0.38246141
H    2.35837602  -2.52864475  -0.78726476
C    0.50848653  -1.78619945  -1.58833541
N   -0.08948660  -1.11797514  -2.30289540
