25
Energy:   -808.16837125
O    0.87035997   0.46610687  -1.24083626
H    1.36701081  -0.04074222  -1.88323317
H    0.10432334   0.77875215  -1.72216011
O    2.08110509   0.46789288   1.08657180
H    2.00820827   0.26624098   2.01944607
H    2.93513889   0.89110614   0.99854531
O   -1.16217738   0.71167183  -3.09078307
H   -1.48379934   1.33054638  -3.74636332
H   -0.51813307   0.17987680  -3.55836496
O   -1.20906422  -0.28557422   3.61240181
H   -1.71204104   0.40131395   4.04992987
H   -1.62777772  -1.10141533   3.88683601
O   -2.45985684  -0.30815981  -0.86022253
H   -3.37181154  -0.57595162  -0.97361573
H   -2.19247623   0.00499448  -1.72432545
O    1.10885635  -0.76997251  -3.86294839
H    1.01499264  -1.70499561  -4.04502877
H    1.70971991  -0.45327198  -4.53740788
O    1.57369052  -0.10649701   3.65765660
H    0.63748305  -0.19703735   3.83527939
H    1.99488507  -0.26854258   4.50179417
O   -0.49623228   0.05913628   0.94803256
H   -0.79736575  -0.06245825   1.84845760
H   -1.27170649  -0.10491362   0.41141424
H    0.82254779   0.33139304   0.28479882
