25
Energy:   -809.08165584
O   -2.11065073  -1.23300370  -1.01864976
H   -2.93643717  -1.56783325  -0.66908178
H   -2.15153395  -0.28864514  -0.86782763
O    0.57275781   0.89353621   2.98765227
H    1.31809977   0.96453460   3.58402166
H   -0.18847626   0.81729692   3.56292795
O    0.38012576   2.40125546   0.65866064
H    0.50940005   3.32893351   0.85597623
H    0.43484194   1.96514439   1.50898124
O    1.84814732   0.71135865  -0.96444347
H    1.40217705   1.42356666  -0.50607450
H    2.70197224   1.07468623  -1.19940712
O    0.95442450  -1.03850643   0.99024697
H    0.80734381  -0.50352176   1.77024090
H    1.48527264  -0.48577691   0.41672960
O    0.18836786  -1.05224966  -2.25066706
H    0.17634311  -0.91521205  -3.19793045
H    0.81584861  -0.40797970  -1.92292329
O   -1.91453608   1.40791402  -0.54643863
H   -1.16082219   1.81887720  -0.12305170
H   -2.48900341   2.13850028  -0.77548634
O   -0.21912710  -2.96174001  -0.49102865
H    0.28886041  -2.58211345   0.22595406
H    0.10434990  -3.85956452  -0.56522850
H   -0.73733585  -1.77504011  -1.25952152
