25
Energy:   -808.57769964
O    0.51006105   1.58324533   2.20513115
H    0.44175246   2.23192420   2.90568915
H    0.68769501   0.75882709   2.65791430
O    2.38711627   0.51462171   0.44890179
H    1.92847602   1.13578922   1.01461540
H    3.26846159   0.87715861   0.35929557
O   -1.09956016  -1.86524369   1.59416605
H   -0.24690881  -1.76843090   2.01824719
H   -1.49517639  -2.62500176   2.02135141
O   -2.19644001   0.20234754  -1.94062440
H   -1.84865042   0.04386931  -2.81821138
H   -3.14649002   0.21156279  -2.05703698
O   -1.44946383   0.57132980   0.55076566
H   -0.89124737   1.09662815   1.12407873
H   -1.50902998  -0.27866017   0.98688579
O    1.36925743  -1.06464559   2.58685323
H    1.91808924  -0.83691525   1.83641711
H    1.95748136  -1.52918853   3.18218870
O   -0.49811367  -0.18359105  -4.09905421
H   -0.40742695   0.45150746  -4.80944681
H   -0.38669780  -1.03479682  -4.52245365
O    0.32957893   0.42179539  -1.35544492
H    0.58642015   0.22289477  -2.25583538
H    1.14889012   0.39702039  -0.86113003
H   -1.13304814   0.41481260  -0.86651859
