25
Energy:   -808.61243967
O   -0.03084905  -1.73914127   2.01204357
H   -0.08280676  -2.59191505   2.44367896
H   -0.50364467  -1.85791272   1.18827813
O    0.16488747   1.73759409  -2.32023260
H    0.38417544   0.83092544  -2.53493376
H    0.29383892   2.21607165  -3.13917252
O    0.82653990  -0.97190883  -2.04150235
H    1.03146370  -1.66133033  -2.67311623
H    0.05439367  -1.29417404  -1.57656453
O    1.31356118   0.56967242   2.39320126
H    1.43056492   0.92817234   3.27298520
H    0.90282036  -0.28332971   2.53430824
O   -2.55024251   0.73386787   0.40132057
H   -3.04131976   1.25534738  -0.23360786
H   -3.10322749   0.72381647   1.18256216
O   -1.34224109  -1.63123641  -0.43335523
H   -1.84968191  -0.85029690  -0.21229157
H   -1.99776355  -2.27604561  -0.69933127
O    0.06374580   1.64283017   0.36376441
H    0.11454799   1.84225581  -0.57105130
H   -0.85771402   1.43202902   0.51445124
O    2.24041777   0.26501583  -0.04146489
H    3.17648095   0.06579603  -0.02332553
H    1.91038535  -0.20247741  -0.80877221
H    1.21505835   0.88558159   0.92481941
