7
Energy:    -91.75037899
C    0.66626600  -0.84103953  -0.49653350
H    0.45432198  -0.76348929  -1.54246174
H    0.40602897  -1.81987939  -0.15149974
H    1.70932931  -0.66988285  -0.33033056
C   -0.15537917   0.20980799   0.27302397
N   -0.76713134   0.99221174   0.84599449
Na  -2.31343574   2.89227133   1.40180709
