7
Energy:    -90.91714504
C   -0.57375512  -0.91674491  -0.33356892
H   -0.21651745  -1.08115457  -1.32868242
H   -1.64298930  -0.87687780  -0.34049388
H   -0.25078734  -1.71765191   0.29820548
C   -0.01384354   0.41521300   0.19933552
N    0.40303609   1.40691622   0.59610709
Na   2.29485666   2.77029997   0.90909713
