
                                 *****************
                                 * O   R   C   A *
                                 *****************

           --- An Ab Initio, DFT and Semiempirical electronic structure package ---

                  #######################################################
                  #                        -***-                        #
                  #          Department of theory and spectroscopy      #
                  #               Directorship: Frank Neese             #
                  #        Max Planck Institute fuer Kohlenforschung    #
                  #                Kaiser Wilhelm Platz 1               #
                  #                 D-45470 Muelheim/Ruhr               #
                  #                      Germany                        #
                  #                                                     #
                  #                  All rights reserved                #
                  #                        -***-                        #
                  #######################################################


                         Program Version 4.2.0 -  RELEASE  -


 With contributions from (in alphabetic order):
   Daniel Aravena         : Magnetic Suceptibility
   Michael Atanasov       : Ab Initio Ligand Field Theory (pilot matlab implementation)
   Alexander A. Auer      : GIAO ZORA, VPT2
   Ute Becker             : Parallelization
   Giovanni Bistoni       : ED, misc. LED, open-shell LED, HFLED
   Martin Brehm           : Molecular dynamics
   Dmytro Bykov           : SCF Hessian
   Vijay G. Chilkuri      : MRCI spin determinant printing, contributions to CSF-ICE
   Dipayan Datta          : RHF DLPNO-CCSD density
   Achintya Kumar Dutta   : EOM-CC, STEOM-CC
   Dmitry Ganyushin       : Spin-Orbit,Spin-Spin,Magnetic field MRCI
   Miquel Garcia          : C-PCM Hessian, Gaussian charge scheme
   Yang Guo               : DLPNO-NEVPT2, CIM, IAO-localization
   Andreas Hansen         : Spin unrestricted coupled pair/coupled cluster methods
   Benjamin Helmich-Paris : CASSCF linear response (MC-RPA)
   Lee Huntington         : MR-EOM, pCC
   Robert Izsak           : Overlap fitted RIJCOSX, COSX-SCS-MP3, EOM
   Christian Kollmar      : KDIIS, OOCD, Brueckner-CCSD(T), CCSD density
   Simone Kossmann        : Meta GGA functionals, TD-DFT gradient, OOMP2, MP2 Hessian
   Martin Krupicka        : AUTO-CI
   Lucas Lang             : DCDCAS
   Dagmar Lenk            : GEPOL surface, SMD
   Dimitrios Liakos       : Extrapolation schemes; Compound Job, initial MDCI parallelization
   Dimitrios Manganas     : Further ROCIS development; embedding schemes
   Dimitrios Pantazis     : SARC Basis sets
   Taras Petrenko         : DFT Hessian,TD-DFT gradient, ASA, ECA, R-Raman, ABS, FL, XAS/XES, NRVS
   Peter Pinski           : DLPNO-MP2, DLPNO-MP2 Gradient
   Christoph Reimann      : Effective Core Potentials
   Marius Retegan         : Local ZFS, SOC
   Christoph Riplinger    : Optimizer, TS searches, QM/MM, DLPNO-CCSD(T), (RO)-DLPNO pert. Triples
   Tobias Risthaus        : Range-separated hybrids, TD-DFT gradient, RPA, STAB
   Michael Roemelt        : Original ROCIS implementation
   Masaaki Saitow         : Open-shell DLPNO-CCSD energy and density
   Barbara Sandhoefer     : DKH picture change effects
   Avijit Sen             : IP-ROCIS
   Kantharuban Sivalingam : CASSCF convergence, NEVPT2, FIC-MRCI
   Bernardo de Souza      : ESD, SOC TD-DFT
   Georgi Stoychev        : AutoAux, RI-MP2 NMR
   Willem Van den Heuvel  : Paramagnetic NMR
   Boris Wezisla          : Elementary symmetry handling
   Frank Wennmohs         : Technical directorship


 We gratefully acknowledge several colleagues who have allowed us to
 interface, adapt or use parts of their codes:
   Stefan Grimme, W. Hujo, H. Kruse,             : VdW corrections, initial TS optimization,
                  C. Bannwarth                     DFT functionals, gCP, sTDA/sTD-DF
   Ed Valeev, F. Pavosevic, A. Kumar             : LibInt (2-el integral package), F12 methods
   Garnet Chan, S. Sharma, J. Yang, R. Olivares  : DMRG
   Ulf Ekstrom                                   : XCFun DFT Library
   Mihaly Kallay                                 : mrcc  (arbitrary order and MRCC methods)
   Andreas Klamt, Michael Diedenhofen            : otool_cosmo (COSMO solvation model)
   Jiri Pittner, Ondrej Demel                    : Mk-CCSD
   Frank Weinhold                                : gennbo (NPA and NBO analysis)
   Christopher J. Cramer and Donald G. Truhlar   : smd solvation model
   Lars Goerigk                                  : TD-DFT with DH, B97 family of functionals
   V. Asgeirsson, H. Jonsson                     : NEB implementation
   FAccTs GmbH                                   : IRC, NEB, NEB-TS, Multilevel, MM, QM/MM, CI optimization
   S Lehtola, MJT Oliveira, MAL Marques          : LibXC Library


 Your calculation uses the libint2 library for the computation of 2-el integrals
 For citations please refer to: http://libint.valeyev.net

 Your ORCA version has been built with support for libXC version: 4.2.3
 For citations please refer to: https://tddft.org/programs/libxc/

 This ORCA versions uses:
   CBLAS   interface :  Fast vector & matrix operations
   LAPACKE interface :  Fast linear algebra routines
   SCALAPACK package :  Parallel linear algebra routines


----- Orbital basis set information -----
Your calculation utilizes the basis: def2-TZVP
   F. Weigend and R. Ahlrichs, Phys. Chem. Chem. Phys. 7, 3297 (2005).

================================================================================
                                        WARNINGS
                       Please study these warnings very carefully!
================================================================================


WARNING: The frozen-core approximation for MP2-gradient calculations is turned on by default.

INFO   : the flag for use of LIBINT has been found!

================================================================================
                                       INPUT FILE
================================================================================
NAME = 12meoh.boyd.etal.mol4,6-orca.engrad-mp2.def2tzvp.frozencore.inp
|  1> # 12meoh.boyd.etal.mol4,6
|  2> ! MP2 def2-TZVP EnGrad TightSCF
|  3> 
|  4> %pal
|  5>     nprocs 6
|  6> end
|  7> 
|  8> %maxcore 8000
|  9> 
| 10> %scf
| 11>     ConvForced true
| 12> end
| 13> 
| 14> *xyz 0 1
| 15> O  -1.358578914   1.232360421   1.189721000
| 16> H  -1.058250183   1.216459361   0.238591307
| 17> C  -0.389763452   1.957872567   1.943072362
| 18> H  -0.747220771   2.012806578   2.975200343
| 19> H  -0.260410585   2.982763209   1.565366540
| 20> H   0.585220638   1.453754179   1.934070793
| 21> O   2.622209273  -1.703002590  -1.445859723
| 22> H   1.828551432  -1.986513781  -0.909754968
| 23> C   2.781117675  -2.615822239  -2.525472890
| 24> H   3.691063626  -2.339003544  -3.065143454
| 25> H   1.934727323  -2.559520367  -3.223226661
| 26> H   2.879948338  -3.653846211  -2.177750170
| 27> *
| 28> 
| 29>                          ****END OF INPUT****
================================================================================

                     *******************************
                     * Energy+Gradient Calculation *
                     *******************************

---------------------------------
CARTESIAN COORDINATES (ANGSTROEM)
---------------------------------
  O     -1.358579    1.232360    1.189721
  H     -1.058250    1.216459    0.238591
  C     -0.389763    1.957873    1.943072
  H     -0.747221    2.012807    2.975200
  H     -0.260411    2.982763    1.565367
  H      0.585221    1.453754    1.934071
  O      2.622209   -1.703003   -1.445860
  H      1.828551   -1.986514   -0.909755
  C      2.781118   -2.615822   -2.525473
  H      3.691064   -2.339004   -3.065143
  H      1.934727   -2.559520   -3.223227
  H      2.879948   -3.653846   -2.177750

----------------------------
CARTESIAN COORDINATES (A.U.)
----------------------------
  NO LB      ZA    FRAG     MASS         X           Y           Z
   0 O     8.0000    0    15.999   -2.567342    2.328824    2.248247
   1 H     1.0000    0     1.008   -1.999803    2.298775    0.450872
   2 C     6.0000    0    12.011   -0.736546    3.699843    3.671875
   3 H     1.0000    0     1.008   -1.412043    3.803653    5.622314
   4 H     1.0000    0     1.008   -0.492105    5.636606    2.958114
   5 H     1.0000    0     1.008    1.105907    2.747197    3.654864
   6 O     8.0000    0    15.999    4.955257   -3.218209   -2.732279
   7 H     1.0000    0     1.008    3.455461   -3.753967   -1.719188
   8 C     6.0000    0    12.011    5.255551   -4.943188   -4.772452
   9 H     1.0000    0     1.008    6.975099   -4.420076   -5.792282
  10 H     1.0000    0     1.008    3.656105   -4.836793   -6.091016
  11 H     1.0000    0     1.008    5.442314   -6.904769   -4.115351

--------------------------------
INTERNAL COORDINATES (ANGSTROEM)
--------------------------------
 O      0   0   0     0.000000000000     0.00000000     0.00000000
 H      1   0   0     0.997545930411     0.00000000     0.00000000
 C      1   2   0     1.425661091575   107.89987774     0.00000000
 H      3   1   2     1.093655178580   107.58652868   177.37408112
 H      3   1   2     1.099906668874   111.87891396    58.41528197
 H      3   1   2     1.097638534818   111.44220277   296.47910227
 O      2   1   3     4.990632741754   123.58487459    75.75109452
 H      7   2   1     0.998839162396    53.05155902    51.55585789
 C      7   2   1     1.422693284649   135.54809776   129.68230020
 H      9   7   2     1.093560488172   107.75927006   128.41453975
 H      9   7   2     1.098365537375   111.29143095     9.76176320
 H      9   7   2     1.099168938972   112.08005485   247.94796559

---------------------------
INTERNAL COORDINATES (A.U.)
---------------------------
 O      0   0   0     0.000000000000     0.00000000     0.00000000
 H      1   0   0     1.885088614484     0.00000000     0.00000000
 C      1   2   0     2.694109022864   107.89987774     0.00000000
 H      3   1   2     2.066708772461   107.58652868   177.37408112
 H      3   1   2     2.078522377045   111.87891396    58.41528197
 H      3   1   2     2.074236224845   111.44220277   296.47910227
 O      2   1   3     9.430929116895   123.58487459    75.75109452
 H      7   2   1     1.887532468764    53.05155902    51.55585789
 C      7   2   1     2.688500680556   135.54809776   129.68230020
 H      9   7   2     2.066529833522   107.75927006   128.41453975
 H      9   7   2     2.075610060577   111.29143095     9.76176320
 H      9   7   2     2.077128269569   112.08005485   247.94796559

---------------------
BASIS SET INFORMATION
---------------------
There are 3 groups of distinct atoms

 Group   1 Type O   : 11s6p2d1f contracted to 5s3p2d1f pattern {62111/411/11/1}
 Group   2 Type H   : 5s1p contracted to 3s1p pattern {311/1}
 Group   3 Type C   : 11s6p2d1f contracted to 5s3p2d1f pattern {62111/411/11/1}

Atom   0O    basis set group =>   1
Atom   1H    basis set group =>   2
Atom   2C    basis set group =>   3
Atom   3H    basis set group =>   2
Atom   4H    basis set group =>   2
Atom   5H    basis set group =>   2
Atom   6O    basis set group =>   1
Atom   7H    basis set group =>   2
Atom   8C    basis set group =>   3
Atom   9H    basis set group =>   2
Atom  10H    basis set group =>   2
Atom  11H    basis set group =>   2


           ************************************************************
           *        Program running with 6 parallel MPI-processes     *
           *              working on a common directory               *
           ************************************************************
------------------------------------------------------------------------------
                           ORCA GTO INTEGRAL CALCULATION
------------------------------------------------------------------------------

                         BASIS SET STATISTICS AND STARTUP INFO

 # of primitive gaussian shells          ...  128
 # of primitive gaussian functions       ...  248
 # of contracted shells                  ...   76
 # of contracted basis functions         ...  172
 Highest angular momentum                ...    3
 Maximum contraction depth               ...    6
 Integral package used                   ... LIBINT
 Integral threshhold            Thresh   ...  2.500e-11
 Primitive cut-off              TCut     ...  2.500e-12


------------------------------ INTEGRAL EVALUATION ----------------------------


 * One electron integrals 
 Pre-screening matrix                    ... done
 Shell pair data                         ... done (   0.001 sec)



           ************************************************************
           *        Program running with 6 parallel MPI-processes     *
           *              working on a common directory               *
           ************************************************************
-------------------------------------------------------------------------------
                                 ORCA SCF
-------------------------------------------------------------------------------

------------
SCF SETTINGS
------------
Hamiltonian:
 Ab initio Hamiltonian  Method          .... Hartree-Fock(GTOs)


General Settings:
 Integral files         IntName         .... 12meoh.boyd.etal.mol4,6-orca.engrad-mp2.def2tzvp.frozencore
 Hartree-Fock type      HFTyp           .... RHF
 Total Charge           Charge          ....    0
 Multiplicity           Mult            ....    1
 Number of Electrons    NEL             ....   36
 Basis Dimension        Dim             ....  172
 Nuclear Repulsion      ENuc            ....    107.4078962055 Eh

Convergence Acceleration:
 DIIS                   CNVDIIS         .... on
   Start iteration      DIISMaxIt       ....    12
   Startup error        DIISStart       ....  0.200000
   # of expansion vecs  DIISMaxEq       ....     5
   Bias factor          DIISBfac        ....   1.050
   Max. coefficient     DIISMaxC        ....  10.000
 Newton-Raphson         CNVNR           .... off
 SOSCF                  CNVSOSCF        .... on
   Start iteration      SOSCFMaxIt      ....   150
   Startup grad/error   SOSCFStart      ....  0.003300
 Level Shifting         CNVShift        .... on
   Level shift para.    LevelShift      ....    0.2500
   Turn off err/grad.   ShiftErr        ....    0.0010
 Zerner damping         CNVZerner       .... off
 Static damping         CNVDamp         .... on
   Fraction old density DampFac         ....    0.7000
   Max. Damping (<1)    DampMax         ....    0.9800
   Min. Damping (>=0)   DampMin         ....    0.0000
   Turn off err/grad.   DampErr         ....    0.1000
 Fernandez-Rico         CNVRico         .... off

SCF Procedure:
 Maximum # iterations   MaxIter         ....   125
 SCF integral mode      SCFMode         .... Direct
   Integral package                     .... LIBINT
 Reset frequency        DirectResetFreq ....    20
 Integral Threshold     Thresh          ....  2.500e-11 Eh
 Primitive CutOff       TCut            ....  2.500e-12 Eh

Convergence Tolerance:
 Convergence Check Mode ConvCheckMode   .... Total+1el-Energy
 Convergence forced     ConvForced      .... 1
 Energy Change          TolE            ....  1.000e-08 Eh
 1-El. energy change                    ....  1.000e-05 Eh
 Orbital Gradient       TolG            ....  1.000e-05
 Orbital Rotation angle TolX            ....  1.000e-05
 DIIS Error             TolErr          ....  5.000e-07


Diagonalization of the overlap matrix:
Smallest eigenvalue                        ... 1.663e-03
Time for diagonalization                   ...    0.005 sec
Threshold for overlap eigenvalues          ... 1.000e-08
Number of eigenvalues below threshold      ... 0
Time for construction of square roots      ...    0.002 sec
Total time needed                          ...    0.007 sec

-------------------
DFT GRID GENERATION
-------------------

General Integration Accuracy     IntAcc      ...  4.340
Radial Grid Type                 RadialGrid  ... Gauss-Chebyshev
Angular Grid (max. acc.)         AngularGrid ... Lebedev-110
Angular grid pruning method      GridPruning ... 3 (G Style)
Weight generation scheme         WeightScheme... Becke
Basis function cutoff            BFCut       ...    1.0000e-11
Integration weight cutoff        WCut        ...    1.0000e-14
Grids for H and He will be reduced by one unit

# of grid points (after initial pruning)     ...  13096 (   0.0 sec)
# of grid points (after weights+screening)   ...  12654 (   0.0 sec)
nearest neighbour list constructed           ...    0.0 sec
Grid point re-assignment to atoms done       ...    0.0 sec
Grid point division into batches done        ...    0.0 sec
Reduced shell lists constructed in    0.0 sec

Total number of grid points                  ...    12654
Total number of batches                      ...      204
Average number of points per batch           ...       62
Average number of grid points per atom       ...     1054
Average number of shells per batch           ...    41.31 (54.36%)
Average number of basis functions per batch  ...    89.20 (51.86%)
Average number of large shells per batch     ...    31.74 (76.83%)
Average number of large basis fcns per batch ...    72.89 (81.71%)
Maximum spatial batch extension              ...  14.61, 22.05, 15.85 au
Average spatial batch extension              ...   0.72,  0.70,  0.63 au

Time for grid setup =    0.028 sec

------------------------------
INITIAL GUESS: MODEL POTENTIAL
------------------------------
Loading Hartree-Fock densities                     ... done
Calculating cut-offs                               ... done
Setting up the integral package                    ... done
Initializing the effective Hamiltonian             ... done
Starting the Coulomb interaction                   ... done (   0.0 sec)
Reading the grid                                   ... done
Mapping shells                                     ... done
Starting the XC term evaluation                    ... done (   0.0 sec)
Transforming the Hamiltonian                       ... done (   0.0 sec)
Diagonalizing the Hamiltonian                      ... done (   0.0 sec)
Back transforming the eigenvectors                 ... done (   0.0 sec)
Now organizing SCF variables                       ... done
                      ------------------
                      INITIAL GUESS DONE (   0.1 sec)
                      ------------------
--------------
SCF ITERATIONS
--------------
ITER       Energy         Delta-E        Max-DP      RMS-DP      [F,P]     Damp
               ***  Starting incremental Fock matrix formation  ***
  0   -229.9382764947   0.000000000000 0.03666743  0.00094013  0.2887101 0.7000
  1   -230.0257933300  -0.087516835222 0.02507151  0.00069524  0.2178502 0.7000
                               ***Turning on DIIS***
  2   -230.0762370647  -0.050443734690 0.01462815  0.00042735  0.1628388 0.7000
  3   -230.6553168966  -0.579079831943 0.00751609  0.00023649  0.1199671 0.7000
  4   -230.5542964077   0.101020488937 0.01723400  0.00056272  0.0845661 0.0000
  5   -230.1987884417   0.355507965930 0.00228813  0.00007467  0.0064287 0.0000
                      *** Initiating the SOSCF procedure ***
                           *** Shutting down DIIS ***
                      *** Re-Reading the Fockian *** 
                      *** Removing any level shift *** 
ITER      Energy       Delta-E        Grad      Rot      Max-DP    RMS-DP
  6   -230.18209957   0.0166888683  0.000782  0.000782  0.000817  0.000038
               *** Restarting incremental Fock matrix formation ***
  7   -230.17867084   0.0034287298  0.000267  0.000302  0.000496  0.000021
  8   -230.17867552  -0.0000046805  0.000191  0.000196  0.000351  0.000015
  9   -230.17867668  -0.0000011571  0.000026  0.000029  0.000054  0.000002
 10   -230.17867671  -0.0000000337  0.000005  0.000011  0.000016  0.000001
                 **** Energy Check signals convergence ****
              ***Rediagonalizing the Fockian in SOSCF/NRSCF***

               *****************************************************
               *                     SUCCESS                       *
               *           SCF CONVERGED AFTER  11 CYCLES          *
               *****************************************************


----------------
TOTAL SCF ENERGY
----------------

Total Energy       :         -230.17867672 Eh           -6263.48022 eV

Components:
Nuclear Repulsion  :          107.40789621 Eh            2922.71744 eV
Electronic Energy  :         -337.58657292 Eh           -9186.19767 eV
One Electron Energy:         -527.41213813 Eh          -14351.61390 eV
Two Electron Energy:          189.82556521 Eh            5165.41623 eV

Virial components:
Potential Energy   :         -459.90667399 Eh          -12514.69683 eV
Kinetic Energy     :          229.72799727 Eh            6251.21661 eV
Virial Ratio       :            2.00196180


---------------
SCF CONVERGENCE
---------------

  Last Energy change         ...   -2.7900e-09  Tolerance :   1.0000e-08
  Last MAX-Density change    ...    3.9867e-06  Tolerance :   1.0000e-07
  Last RMS-Density change    ...    1.6101e-07  Tolerance :   5.0000e-09
  Last Orbital Gradient      ...    2.0514e-06  Tolerance :   1.0000e-05
  Last Orbital Rotation      ...    4.1162e-06  Tolerance :   1.0000e-05

             **** THE GBW FILE WAS UPDATED (12meoh.boyd.etal.mol4,6-orca.engrad-mp2.def2tzvp.frozencore.gbw) ****
             **** DENSITY FILE WAS UPDATED (12meoh.boyd.etal.mol4,6-orca.engrad-mp2.def2tzvp.frozencore.scfp) ****
             **** ENERGY FILE WAS UPDATED (12meoh.boyd.etal.mol4,6-orca.engrad-mp2.def2tzvp.frozencore.en.tmp) ****
             **** THE GBW FILE WAS UPDATED (12meoh.boyd.etal.mol4,6-orca.engrad-mp2.def2tzvp.frozencore.gbw) ****
             **** DENSITY FILE WAS UPDATED (12meoh.boyd.etal.mol4,6-orca.engrad-mp2.def2tzvp.frozencore.scfp) ****
----------------
ORBITAL ENERGIES
----------------

  NO   OCC          E(Eh)            E(eV) 
   0   2.0000     -20.560567      -559.4815 
   1   2.0000     -20.557426      -559.3960 
   2   2.0000     -11.273817      -306.7762 
   3   2.0000     -11.270744      -306.6925 
   4   2.0000      -1.348666       -36.6991 
   5   2.0000      -1.344938       -36.5976 
   6   2.0000      -0.921636       -25.0790 
   7   2.0000      -0.918387       -24.9906 
   8   2.0000      -0.683463       -18.5980 
   9   2.0000      -0.679837       -18.4993 
  10   2.0000      -0.619407       -16.8549 
  11   2.0000      -0.615994       -16.7621 
  12   2.0000      -0.593714       -16.1558 
  13   2.0000      -0.589491       -16.0409 
  14   2.0000      -0.502303       -13.6684 
  15   2.0000      -0.499705       -13.5977 
  16   2.0000      -0.451575       -12.2880 
  17   2.0000      -0.448831       -12.2133 
  18   0.0000       0.117220         3.1897 
  19   0.0000       0.147029         4.0009 
  20   0.0000       0.175093         4.7645 
  21   0.0000       0.178085         4.8459 
  22   0.0000       0.226895         6.1741 
  23   0.0000       0.228599         6.2205 
  24   0.0000       0.230371         6.2687 
  25   0.0000       0.233248         6.3470 
  26   0.0000       0.254727         6.9315 
  27   0.0000       0.256238         6.9726 
  28   0.0000       0.330439         8.9917 
  29   0.0000       0.334505         9.1023 
  30   0.0000       0.336896         9.1674 
  31   0.0000       0.341496         9.2926 
  32   0.0000       0.455768        12.4021 
  33   0.0000       0.465044        12.6545 
  34   0.0000       0.517397        14.0791 
  35   0.0000       0.522624        14.2213 
  36   0.0000       0.559100        15.2139 
  37   0.0000       0.580543        15.7974 
  38   0.0000       0.604187        16.4408 
  39   0.0000       0.612438        16.6653 
  40   0.0000       0.617668        16.8076 
  41   0.0000       0.622790        16.9470 
  42   0.0000       0.656053        17.8521 
  43   0.0000       0.659009        17.9326 
  44   0.0000       0.680308        18.5121 
  45   0.0000       0.683468        18.5981 
  46   0.0000       0.703640        19.1470 
  47   0.0000       0.708140        19.2695 
  48   0.0000       0.759307        20.6618 
  49   0.0000       0.773847        21.0574 
  50   0.0000       0.880343        23.9553 
  51   0.0000       0.883223        24.0337 
  52   0.0000       0.920876        25.0583 
  53   0.0000       0.924142        25.1472 
  54   0.0000       0.950458        25.8633 
  55   0.0000       0.952464        25.9179 
  56   0.0000       1.088505        29.6197 
  57   0.0000       1.092429        29.7265 
  58   0.0000       1.112909        30.2838 
  59   0.0000       1.117394        30.4058 
  60   0.0000       1.243802        33.8456 
  61   0.0000       1.246238        33.9119 
  62   0.0000       1.532188        41.6930 
  63   0.0000       1.535054        41.7710 
  64   0.0000       1.654469        45.0204 
  65   0.0000       1.661608        45.2147 
  66   0.0000       1.703013        46.3413 
  67   0.0000       1.706451        46.4349 
  68   0.0000       1.772504        48.2323 
  69   0.0000       1.777303        48.3629 
  70   0.0000       1.790068        48.7102 
  71   0.0000       1.790585        48.7243 
  72   0.0000       1.792690        48.7816 
  73   0.0000       1.793001        48.7900 
  74   0.0000       1.836995        49.9872 
  75   0.0000       1.850145        50.3450 
  76   0.0000       1.859953        50.6119 
  77   0.0000       1.862170        50.6722 
  78   0.0000       1.957716        53.2722 
  79   0.0000       1.967756        53.5454 
  80   0.0000       2.134504        58.0828 
  81   0.0000       2.138282        58.1856 
  82   0.0000       2.203436        59.9585 
  83   0.0000       2.208896        60.1071 
  84   0.0000       2.241414        60.9920 
  85   0.0000       2.244735        61.0823 
  86   0.0000       2.286824        62.2277 
  87   0.0000       2.288930        62.2849 
  88   0.0000       2.300468        62.5989 
  89   0.0000       2.306908        62.7742 
  90   0.0000       2.440825        66.4182 
  91   0.0000       2.443174        66.4821 
  92   0.0000       2.545404        69.2640 
  93   0.0000       2.553352        69.4802 
  94   0.0000       2.553661        69.4886 
  95   0.0000       2.558287        69.6145 
  96   0.0000       2.589385        70.4607 
  97   0.0000       2.598924        70.7203 
  98   0.0000       2.629622        71.5556 
  99   0.0000       2.631843        71.6161 
 100   0.0000       2.693769        73.3012 
 101   0.0000       2.695734        73.3547 
 102   0.0000       2.776048        75.5401 
 103   0.0000       2.781302        75.6831 
 104   0.0000       2.837472        77.2115 
 105   0.0000       2.841645        77.3251 
 106   0.0000       2.894845        78.7727 
 107   0.0000       2.899743        78.9060 
 108   0.0000       3.042475        82.7899 
 109   0.0000       3.045313        82.8672 
 110   0.0000       3.105443        84.5034 
 111   0.0000       3.111555        84.6697 
 112   0.0000       3.136035        85.3359 
 113   0.0000       3.136936        85.3604 
 114   0.0000       3.242808        88.2413 
 115   0.0000       3.245831        88.3235 
 116   0.0000       3.353778        91.2609 
 117   0.0000       3.356204        91.3269 
 118   0.0000       3.417506        92.9951 
 119   0.0000       3.419828        93.0582 
 120   0.0000       3.535277        96.1998 
 121   0.0000       3.539857        96.3244 
 122   0.0000       3.636613        98.9573 
 123   0.0000       3.641511        99.0906 
 124   0.0000       3.668693        99.8302 
 125   0.0000       3.669760        99.8593 
 126   0.0000       3.721015       101.2540 
 127   0.0000       3.721262       101.2607 
 128   0.0000       3.859937       105.0342 
 129   0.0000       3.860605       105.0524 
 130   0.0000       3.887872       105.7944 
 131   0.0000       3.890315       105.8609 
 132   0.0000       3.900601       106.1407 
 133   0.0000       3.902492       106.1922 
 134   0.0000       4.242736       115.4507 
 135   0.0000       4.250390       115.6590 
 136   0.0000       4.493901       122.2853 
 137   0.0000       4.495895       122.3395 
 138   0.0000       4.532553       123.3370 
 139   0.0000       4.535630       123.4208 
 140   0.0000       4.706456       128.0692 
 141   0.0000       4.713651       128.2650 
 142   0.0000       4.866204       132.4161 
 143   0.0000       4.868642       132.4825 
 144   0.0000       5.689440       154.8175 
 145   0.0000       5.692626       154.9042 
 146   0.0000       5.763644       156.8367 
 147   0.0000       5.768431       156.9670 
 148   0.0000       5.873873       159.8362 
 149   0.0000       5.875680       159.8854 
 150   0.0000       6.160312       167.6306 
 151   0.0000       6.164152       167.7351 
 152   0.0000       6.168484       167.8530 
 153   0.0000       6.170577       167.9099 
 154   0.0000       6.316694       171.8860 
 155   0.0000       6.319053       171.9502 
 156   0.0000       6.647472       180.8869 
 157   0.0000       6.652294       181.0181 
 158   0.0000       6.944611       188.9725 
 159   0.0000       6.947842       189.0604 
 160   0.0000       7.146049       194.4539 
 161   0.0000       7.151442       194.6006 
 162   0.0000       7.215602       196.3465 
 163   0.0000       7.216492       196.3707 
 164   0.0000       7.455427       202.8725 
 165   0.0000       7.457672       202.9336 
 166   0.0000       7.584676       206.3895 
 167   0.0000       7.589858       206.5305 
 168   0.0000      23.355956       635.5479 
 169   0.0000      23.360426       635.6695 
 170   0.0000      45.141312      1228.3575 
 171   0.0000      45.153059      1228.6772 

                    ********************************
                    * MULLIKEN POPULATION ANALYSIS *
                    ********************************

-----------------------
MULLIKEN ATOMIC CHARGES
-----------------------
   0 O :   -0.548464
   1 H :    0.329919
   2 C :   -0.076098
   3 H :    0.108046
   4 H :    0.092072
   5 H :    0.094506
   6 O :   -0.549012
   7 H :    0.330900
   8 C :   -0.074241
   9 H :    0.109061
  10 H :    0.090548
  11 H :    0.092762
Sum of atomic charges:   -0.0000000

--------------------------------
MULLIKEN REDUCED ORBITAL CHARGES
--------------------------------
  0 O s       :     3.806138  s :     3.806138
      pz      :     1.294732  p :     4.708173
      px      :     1.625891
      py      :     1.787550
      dz2     :     0.009552  d :     0.032437
      dxz     :     0.009453
      dyz     :     0.002637
      dx2y2   :     0.003950
      dxy     :     0.006844
      f0      :     0.000441  f :     0.001717
      f+1     :     0.000353
      f-1     :     0.000147
      f+2     :     0.000115
      f-2     :     0.000303
      f+3     :     0.000146
      f-3     :     0.000212
  1 H s       :     0.627612  s :     0.627612
      pz      :     0.018843  p :     0.042468
      px      :     0.010874
      py      :     0.012751
  2 C s       :     3.195174  s :     3.195174
      pz      :     0.958793  p :     2.757840
      px      :     0.866052
      py      :     0.932995
      dz2     :     0.033739  d :     0.114221
      dxz     :     0.016186
      dyz     :     0.014139
      dx2y2   :     0.030972
      dxy     :     0.019184
      f0      :     0.000955  f :     0.008863
      f+1     :     0.001705
      f-1     :     0.000597
      f+2     :     0.001505
      f-2     :     0.001137
      f+3     :     0.001256
      f-3     :     0.001709
  3 H s       :     0.870803  s :     0.870803
      pz      :     0.013892  p :     0.021152
      px      :     0.003966
      py      :     0.003294
  4 H s       :     0.887881  s :     0.887881
      pz      :     0.003957  p :     0.020047
      px      :     0.002933
      py      :     0.013156
  5 H s       :     0.885303  s :     0.885303
      pz      :     0.002947  p :     0.020190
      px      :     0.011984
      py      :     0.005260
  6 O s       :     3.805295  s :     3.805295
      pz      :     1.471108  p :     4.709546
      px      :     1.580109
      py      :     1.658330
      dz2     :     0.003464  d :     0.032445
      dxz     :     0.006485
      dyz     :     0.010720
      dx2y2   :     0.006870
      dxy     :     0.004906
      f0      :     0.000218  f :     0.001726
      f+1     :     0.000180
      f-1     :     0.000373
      f+2     :     0.000464
      f-2     :     0.000282
      f+3     :     0.000045
      f-3     :     0.000164
  7 H s       :     0.626737  s :     0.626737
      pz      :     0.014118  p :     0.042363
      px      :     0.017134
      py      :     0.011111
  8 C s       :     3.194062  s :     3.194062
      pz      :     0.823706  p :     2.756594
      px      :     1.051852
      py      :     0.881036
      dz2     :     0.024377  d :     0.114665
      dxz     :     0.035208
      dyz     :     0.018442
      dx2y2   :     0.027551
      dxy     :     0.009087
      f0      :     0.001606  f :     0.008919
      f+1     :     0.000568
      f-1     :     0.001700
      f+2     :     0.002455
      f-2     :     0.001457
      f+3     :     0.000451
      f-3     :     0.000683
  9 H s       :     0.869768  s :     0.869768
      pz      :     0.005911  p :     0.021171
      px      :     0.011670
      py      :     0.003590
 10 H s       :     0.889293  s :     0.889293
      pz      :     0.007595  p :     0.020159
      px      :     0.009705
      py      :     0.002860
 11 H s       :     0.887193  s :     0.887193
      pz      :     0.003362  p :     0.020045
      px      :     0.003512
      py      :     0.013171


                     *******************************
                     * LOEWDIN POPULATION ANALYSIS *
                     *******************************

----------------------
LOEWDIN ATOMIC CHARGES
----------------------
   0 O :   -0.134665
   1 H :    0.190970
   2 C :   -0.334532
   3 H :    0.101102
   4 H :    0.088512
   5 H :    0.088604
   6 O :   -0.133021
   7 H :    0.192111
   8 C :   -0.336687
   9 H :    0.101472
  10 H :    0.087696
  11 H :    0.088437

-------------------------------
LOEWDIN REDUCED ORBITAL CHARGES
-------------------------------
  0 O s       :     3.398027  s :     3.398027
      pz      :     1.302142  p :     4.664434
      px      :     1.633452
      py      :     1.728840
      dz2     :     0.023874  d :     0.068131
      dxz     :     0.015880
      dyz     :     0.007229
      dx2y2   :     0.009431
      dxy     :     0.011716
      f0      :     0.000633  f :     0.004073
      f+1     :     0.001137
      f-1     :     0.000322
      f+2     :     0.000476
      f-2     :     0.000624
      f+3     :     0.000487
      f-3     :     0.000395
  1 H s       :     0.666118  s :     0.666118
      pz      :     0.069962  p :     0.142912
      px      :     0.037216
      py      :     0.035733
  2 C s       :     2.863097  s :     2.863097
      pz      :     1.010953  p :     2.992614
      px      :     0.967863
      py      :     1.013798
      dz2     :     0.106113  d :     0.421792
      dxz     :     0.064770
      dyz     :     0.048429
      dx2y2   :     0.116320
      dxy     :     0.086160
      f0      :     0.005124  f :     0.057029
      f+1     :     0.009609
      f-1     :     0.004343
      f+2     :     0.011829
      f-2     :     0.009968
      f+3     :     0.007111
      f-3     :     0.009046
  3 H s       :     0.840126  s :     0.840126
      pz      :     0.035044  p :     0.058772
      px      :     0.012756
      py      :     0.010973
  4 H s       :     0.853108  s :     0.853108
      pz      :     0.013419  p :     0.058381
      px      :     0.010228
      py      :     0.034734
  5 H s       :     0.852616  s :     0.852616
      pz      :     0.010995  p :     0.058779
      px      :     0.031626
      py      :     0.016159
  6 O s       :     3.396294  s :     3.396294
      pz      :     1.470698  p :     4.664146
      px      :     1.540292
      py      :     1.653157
      dz2     :     0.011384  d :     0.068487
      dxz     :     0.018308
      dyz     :     0.018857
      dx2y2   :     0.012499
      dxy     :     0.007438
      f0      :     0.000715  f :     0.004094
      f+1     :     0.000294
      f-1     :     0.000841
      f+2     :     0.000711
      f-2     :     0.000896
      f+3     :     0.000193
      f-3     :     0.000444
  7 H s       :     0.665517  s :     0.665517
      pz      :     0.040951  p :     0.142372
      px      :     0.064328
      py      :     0.037093
  8 C s       :     2.862248  s :     2.862248
      pz      :     0.924607  p :     2.992760
      px      :     1.088453
      py      :     0.979700
      dz2     :     0.086070  d :     0.424121
      dxz     :     0.115546
      dyz     :     0.093350
      dx2y2   :     0.099681
      dxy     :     0.029474
      f0      :     0.013435  f :     0.057558
      f+1     :     0.003457
      f-1     :     0.012621
      f+2     :     0.009850
      f-2     :     0.009662
      f+3     :     0.004266
      f-3     :     0.004268
  9 H s       :     0.839729  s :     0.839729
      pz      :     0.015917  p :     0.058798
      px      :     0.031048
      py      :     0.011833
 10 H s       :     0.853786  s :     0.853786
      pz      :     0.021097  p :     0.058518
      px      :     0.027291
      py      :     0.010130
 11 H s       :     0.853080  s :     0.853080
      pz      :     0.011369  p :     0.058482
      px      :     0.012549
      py      :     0.034564


                      *****************************
                      * MAYER POPULATION ANALYSIS *
                      *****************************

  NA   - Mulliken gross atomic population
  ZA   - Total nuclear charge
  QA   - Mulliken gross atomic charge
  VA   - Mayer's total valence
  BVA  - Mayer's bonded valence
  FA   - Mayer's free valence

  ATOM       NA         ZA         QA         VA         BVA        FA
  0 O      8.5485     8.0000    -0.5485     1.7914     1.7914    -0.0000
  1 H      0.6701     1.0000     0.3299     0.8980     0.8980    -0.0000
  2 C      6.0761     6.0000    -0.0761     3.8968     3.8968     0.0000
  3 H      0.8920     1.0000     0.1080     0.9618     0.9618     0.0000
  4 H      0.9079     1.0000     0.0921     0.9619     0.9619    -0.0000
  5 H      0.9055     1.0000     0.0945     0.9612     0.9612    -0.0000
  6 O      8.5490     8.0000    -0.5490     1.7904     1.7904    -0.0000
  7 H      0.6691     1.0000     0.3309     0.8971     0.8971     0.0000
  8 C      6.0742     6.0000    -0.0742     3.8982     3.8982    -0.0000
  9 H      0.8909     1.0000     0.1091     0.9620     0.9620    -0.0000
 10 H      0.9095     1.0000     0.0905     0.9611     0.9611    -0.0000
 11 H      0.9072     1.0000     0.0928     0.9616     0.9616    -0.0000

  Mayer bond orders larger than 0.100000
B(  0-O ,  1-H ) :   0.8872 B(  0-O ,  2-C ) :   0.9311 B(  2-C ,  3-H ) :   0.9827 
B(  2-C ,  4-H ) :   0.9878 B(  2-C ,  5-H ) :   0.9874 B(  6-O ,  7-H ) :   0.8860 
B(  6-O ,  8-C ) :   0.9316 B(  8-C ,  9-H ) :   0.9828 B(  8-C , 10-H ) :   0.9879 
B(  8-C , 11-H ) :   0.9877 

-------
TIMINGS
-------

Total SCF time: 0 days 0 hours 0 min 4 sec 

Total time                  ....       4.437 sec
Sum of individual times     ....       4.237 sec  ( 95.5%)

Fock matrix formation       ....       4.037 sec  ( 91.0%)
Diagonalization             ....       0.029 sec  (  0.7%)
Density matrix formation    ....       0.004 sec  (  0.1%)
Population analysis         ....       0.010 sec  (  0.2%)
Initial guess               ....       0.106 sec  (  2.4%)
Orbital Transformation      ....       0.000 sec  (  0.0%)
Orbital Orthonormalization  ....       0.000 sec  (  0.0%)
DIIS solution               ....       0.010 sec  (  0.2%)
SOSCF solution              ....       0.012 sec  (  0.3%)


           ************************************************************
           *        Program running with 6 parallel MPI-processes     *
           *              working on a common directory               *
           ************************************************************

------------------------------------------------------------------------------
                                ORCA  MP2 
------------------------------------------------------------------------------

Freezing NCore=8 chemical core electrons
MP2 will be done in the AO integral direct mode
The Q1-step will be done using symmetric double matrices
Dimension of the basis                    ...  172
Memory devoted for MP2                    ... 8000 MB   
Memory needed for all in one shot         ...   60 MB
Number of MOs that can be treated together...  408      
MP2 density construction                  ... relaxed
The MP2 gradient is requested => amplitudes will be stored on disk
Total number of MOs              ...   14
Number of MOs treated per batch  ...    3 
Number of batches necessary      ...    1 
OPERATORS   0/  0 PASS   0
-----------------------------------------------
 MP2 CORRELATION ENERGY   :     -0.834717974 Eh
-----------------------------------------------


---------------------
MP2 DENSITY FORMATION
---------------------

Completing the external part of the density      ... done
Storing the unrelaxed density                    ... done

Calculating G(D)                                 ... done
Completing the Lagrangian                        ... done
Solving the Z-vector equations                   ... 

------------------------------------------------------------------------------
                           ORCA CP-SCF CALCULATION
------------------------------------------------------------------------------

Input orbitals are from        ... 12meoh.boyd.etal.mol4,6-orca.engrad-mp2.def2tzvp.frozencore.gbw
Input Perturbation             ... 12meoh.boyd.etal.mol4,6-orca.engrad-mp2.def2tzvp.frozencore.pin.tmp
Wavefunction output            ... 12meoh.boyd.etal.mol4,6-orca.engrad-mp2.def2tzvp.frozencore.pout.tmp
Perturbation mode              ... Real perturbation (singlet)
Solver                         ... POPLE
Max. number of iterations      ... 128
Convergence tolerance          ... 1.000e-08
Integral handling              ... Direct
Number of perturbations        ... 1
Number of operators            ... 1
Orbital ranges used for CP-SCF:
 Operator 0:  Orbitals   0... 17  to  18...171
Variables per vector in CP-SCF ... 2772
Number of vectors sought       ... 1
     CP-SCF ITERATION   0: 
     CP-SCF ITERATION   1:      0.000240830581
     CP-SCF ITERATION   2:      0.000011124438
     CP-SCF ITERATION   3:      0.000001489106
     CP-SCF ITERATION   4:      0.000000102920
     CP-SCF ITERATION   5:      0.000000003137
                                                 ... done
Finalizing the relaxed density                   ... done
Transforming P to the AO basis                   ... done
Storing the relaxed density                      ... done

------------------------------------
ENERGY WEIGHTED DENSITY FINALIZATION
------------------------------------

Gathering the parts of the W-matrix              ...                                                      done
Forming the Z-density                            ... done
Transforming Z to the AO basis                   ... done
Calculating G(Z)                                 ... done
Finalizing the W-matrix                          ...                                                      done
Transforming W to the AO basis and storing       ... done

                *********************************************
                * UNRELAXED MP2 DENSITY POPULATION ANALYSIS *
                *********************************************

------------------------------------------------------------------------------
                           ORCA POPULATION ANALYSIS
------------------------------------------------------------------------------
Input electron density              ... 12meoh.boyd.etal.mol4,6-orca.engrad-mp2.def2tzvp.frozencore.pmp2ur
BaseName (.gbw .S,...)              ... 12meoh.boyd.etal.mol4,6-orca.engrad-mp2.def2tzvp.frozencore

                    ********************************
                    * MULLIKEN POPULATION ANALYSIS *
                    ********************************

-----------------------
MULLIKEN ATOMIC CHARGES
-----------------------
   0 O :   -0.537383
   1 H :    0.327198
   2 C :   -0.092056
   3 H :    0.110825
   4 H :    0.094483
   5 H :    0.096913
   6 O :   -0.537958
   7 H :    0.328174
   8 C :   -0.090177
   9 H :    0.111836
  10 H :    0.092979
  11 H :    0.095167
Sum of atomic charges:   -0.0000000

--------------------------------
MULLIKEN REDUCED ORBITAL CHARGES
--------------------------------
  0 O s       :     3.800871  s :     3.800871
      pz      :     1.286003  p :     4.672451
      px      :     1.612484
      py      :     1.773964
      dz2     :     0.014852  d :     0.059691
      dxz     :     0.014718
      dyz     :     0.008307
      dx2y2   :     0.009558
      dxy     :     0.012257
      f0      :     0.000810  f :     0.004369
      f+1     :     0.000738
      f-1     :     0.000524
      f+2     :     0.000497
      f-2     :     0.000680
      f+3     :     0.000530
      f-3     :     0.000590
  1 H s       :     0.628617  s :     0.628617
      pz      :     0.018760  p :     0.044185
      px      :     0.011741
      py      :     0.013683
  2 C s       :     3.193261  s :     3.193261
      pz      :     0.956460  p :     2.751757
      px      :     0.864777
      py      :     0.930520
      dz2     :     0.037897  d :     0.134846
      dxz     :     0.020306
      dyz     :     0.018698
      dx2y2   :     0.034945
      dxy     :     0.023001
      f0      :     0.001437  f :     0.012192
      f+1     :     0.002153
      f-1     :     0.001140
      f+2     :     0.001979
      f-2     :     0.001550
      f+3     :     0.001807
      f-3     :     0.002125
  3 H s       :     0.864941  s :     0.864941
      pz      :     0.014756  p :     0.024234
      px      :     0.005056
      py      :     0.004422
  4 H s       :     0.882289  s :     0.882289
      pz      :     0.005086  p :     0.023228
      px      :     0.004098
      py      :     0.014044
  5 H s       :     0.879715  s :     0.879715
      pz      :     0.004104  p :     0.023372
      px      :     0.012915
      py      :     0.006354
  6 O s       :     3.800035  s :     3.800035
      pz      :     1.460024  p :     4.673826
      px      :     1.568930
      py      :     1.644872
      dz2     :     0.009113  d :     0.059717
      dxz     :     0.011950
      dyz     :     0.015982
      dx2y2   :     0.012317
      dxy     :     0.010354
      f0      :     0.000597  f :     0.004380
      f+1     :     0.000555
      f-1     :     0.000755
      f+2     :     0.000839
      f-2     :     0.000665
      f+3     :     0.000427
      f-3     :     0.000541
  7 H s       :     0.627755  s :     0.627755
      pz      :     0.014649  p :     0.044072
      px      :     0.017440
      py      :     0.011983
  8 C s       :     3.192166  s :     3.192166
      pz      :     0.823730  p :     2.750493
      px      :     1.047327
      py      :     0.879437
      dz2     :     0.028909  d :     0.135269
      dxz     :     0.038986
      dyz     :     0.021726
      dx2y2   :     0.031326
      dxy     :     0.014322
      f0      :     0.002066  f :     0.012248
      f+1     :     0.001129
      f-1     :     0.002107
      f+2     :     0.002853
      f-2     :     0.001955
      f+3     :     0.000969
      f-3     :     0.001170
  9 H s       :     0.863914  s :     0.863914
      pz      :     0.006985  p :     0.024250
      px      :     0.012569
      py      :     0.004696
 10 H s       :     0.883665  s :     0.883665
      pz      :     0.008635  p :     0.023356
      px      :     0.010692
      py      :     0.004029
 11 H s       :     0.881609  s :     0.881609
      pz      :     0.004504  p :     0.023224
      px      :     0.004658
      py      :     0.014063


                     *******************************
                     * LOEWDIN POPULATION ANALYSIS *
                     *******************************

----------------------
LOEWDIN ATOMIC CHARGES
----------------------
   0 O :   -0.126823
   1 H :    0.189077
   2 C :   -0.345186
   3 H :    0.102867
   4 H :    0.089983
   5 H :    0.090074
   6 O :   -0.125232
   7 H :    0.190205
   8 C :   -0.347262
   9 H :    0.103237
  10 H :    0.089151
  11 H :    0.089910

-------------------------------
LOEWDIN REDUCED ORBITAL CHARGES
-------------------------------
  0 O s       :     3.394542  s :     3.394542
      pz      :     1.292960  p :     4.628517
      px      :     1.619991
      py      :     1.715566
      dz2     :     0.029511  d :     0.096788
      dxz     :     0.021659
      dyz     :     0.012926
      dx2y2   :     0.015026
      dxy     :     0.017666
      f0      :     0.001082  f :     0.006976
      f+1     :     0.001568
      f-1     :     0.000713
      f+2     :     0.000872
      f-2     :     0.001058
      f+3     :     0.000879
      f-3     :     0.000804
  1 H s       :     0.664429  s :     0.664429
      pz      :     0.071647  p :     0.146494
      px      :     0.038242
      py      :     0.036604
  2 C s       :     2.861951  s :     2.861951
      pz      :     1.006067  p :     2.978812
      px      :     0.963834
      py      :     1.008911
      dz2     :     0.109980  d :     0.442520
      dxz     :     0.069185
      dyz     :     0.052956
      dx2y2   :     0.120082
      dxy     :     0.090317
      f0      :     0.005977  f :     0.061903
      f+1     :     0.010272
      f-1     :     0.004969
      f+2     :     0.012344
      f-2     :     0.010703
      f+3     :     0.007731
      f-3     :     0.009907
  3 H s       :     0.833355  s :     0.833355
      pz      :     0.037427  p :     0.063779
      px      :     0.014126
      py      :     0.012225
  4 H s       :     0.846412  s :     0.846412
      pz      :     0.014843  p :     0.063605
      px      :     0.011571
      py      :     0.037192
  5 H s       :     0.845926  s :     0.845926
      pz      :     0.012283  p :     0.064001
      px      :     0.034048
      py      :     0.017670
  6 O s       :     3.392824  s :     3.392824
      pz      :     1.459191  p :     4.628256
      px      :     1.529330
      py      :     1.639736
      dz2     :     0.016939  d :     0.097151
      dxz     :     0.024033
      dyz     :     0.025022
      dx2y2   :     0.018138
      dxy     :     0.013019
      f0      :     0.001119  f :     0.007000
      f+1     :     0.000688
      f-1     :     0.001288
      f+2     :     0.001169
      f-2     :     0.001310
      f+3     :     0.000582
      f-3     :     0.000843
  7 H s       :     0.663849  s :     0.663849
      pz      :     0.041996  p :     0.145945
      px      :     0.065847
      py      :     0.038102
  8 C s       :     2.861103  s :     2.861103
      pz      :     0.921506  p :     2.978925
      px      :     1.082000
      py      :     0.975419
      dz2     :     0.089948  d :     0.444800
      dxz     :     0.119251
      dyz     :     0.097341
      dx2y2   :     0.103904
      dxy     :     0.034356
      f0      :     0.013926  f :     0.062434
      f+1     :     0.004152
      f-1     :     0.013411
      f+2     :     0.010906
      f-2     :     0.010210
      f+3     :     0.004872
      f-3     :     0.004958
  9 H s       :     0.832965  s :     0.832965
      pz      :     0.017542  p :     0.063798
      px      :     0.033104
      py      :     0.013153
 10 H s       :     0.847087  s :     0.847087
      pz      :     0.023018  p :     0.063761
      px      :     0.029309
      py      :     0.011435
 11 H s       :     0.846385  s :     0.846385
      pz      :     0.012798  p :     0.063705
      px      :     0.013802
      py      :     0.037106


                      *****************************
                      * MAYER POPULATION ANALYSIS *
                      *****************************

  NA   - Mulliken gross atomic population
  ZA   - Total nuclear charge
  QA   - Mulliken gross atomic charge
  VA   - Mayer's total valence
  BVA  - Mayer's bonded valence
  FA   - Mayer's free valence

  ATOM       NA         ZA         QA         VA         BVA        FA
  0 O      8.5374     8.0000    -0.5374     2.0908     1.6851     0.4057
  1 H      0.6728     1.0000     0.3272     0.9045     0.8513     0.0532
  2 C      6.0921     6.0000    -0.0921     4.0018     3.7234     0.2784
  3 H      0.8892     1.0000     0.1108     0.9707     0.9238     0.0469
  4 H      0.9055     1.0000     0.0945     0.9718     0.9226     0.0492
  5 H      0.9031     1.0000     0.0969     0.9711     0.9221     0.0489
  6 O      8.5380     8.0000    -0.5380     2.0898     1.6844     0.4054
  7 H      0.6718     1.0000     0.3282     0.9036     0.8504     0.0532
  8 C      6.0902     6.0000    -0.0902     4.0031     3.7250     0.2780
  9 H      0.8882     1.0000     0.1118     0.9709     0.9240     0.0469
 10 H      0.9070     1.0000     0.0930     0.9710     0.9219     0.0492
 11 H      0.9048     1.0000     0.0952     0.9715     0.9224     0.0491

  Mayer bond orders larger than 0.100000
B(  0-O ,  1-H ) :   0.8415 B(  0-O ,  2-C ) :   0.8722 B(  2-C ,  3-H ) :   0.9453 
B(  2-C ,  4-H ) :   0.9495 B(  2-C ,  5-H ) :   0.9493 B(  6-O ,  7-H ) :   0.8403 
B(  6-O ,  8-C ) :   0.8729 B(  8-C ,  9-H ) :   0.9455 B(  8-C , 10-H ) :   0.9497 
B(  8-C , 11-H ) :   0.9495 


                *******************************************
                * RELAXED MP2 DENSITY POPULATION ANALYSIS *
                *******************************************

------------------------------------------------------------------------------
                           ORCA POPULATION ANALYSIS
------------------------------------------------------------------------------
Input electron density              ... 12meoh.boyd.etal.mol4,6-orca.engrad-mp2.def2tzvp.frozencore.pmp2re
BaseName (.gbw .S,...)              ... 12meoh.boyd.etal.mol4,6-orca.engrad-mp2.def2tzvp.frozencore

                    ********************************
                    * MULLIKEN POPULATION ANALYSIS *
                    ********************************

-----------------------
MULLIKEN ATOMIC CHARGES
-----------------------
   0 O :   -0.500149
   1 H :    0.321948
   2 C :   -0.173761
   3 H :    0.128893
   4 H :    0.110461
   5 H :    0.112588
   6 O :   -0.500685
   7 H :    0.322859
   8 C :   -0.172077
   9 H :    0.129846
  10 H :    0.109050
  11 H :    0.111027
Sum of atomic charges:   -0.0000000

--------------------------------
MULLIKEN REDUCED ORBITAL CHARGES
--------------------------------
  0 O s       :     3.802647  s :     3.802647
      pz      :     1.275600  p :     4.635615
      px      :     1.598093
      py      :     1.761922
      dz2     :     0.014160  d :     0.057573
      dxz     :     0.013581
      dyz     :     0.008149
      dx2y2   :     0.009840
      dxy     :     0.011843
      f0      :     0.000786  f :     0.004315
      f+1     :     0.000727
      f-1     :     0.000528
      f+2     :     0.000497
      f-2     :     0.000659
      f+3     :     0.000535
      f-3     :     0.000582
  1 H s       :     0.633304  s :     0.633304
      pz      :     0.017599  p :     0.044748
      px      :     0.012437
      py      :     0.014711
  2 C s       :     3.215263  s :     3.215263
      pz      :     0.978968  p :     2.821706
      px      :     0.887453
      py      :     0.955285
      dz2     :     0.035440  d :     0.125163
      dxz     :     0.018744
      dyz     :     0.017674
      dx2y2   :     0.032254
      dxy     :     0.021051
      f0      :     0.001371  f :     0.011628
      f+1     :     0.002020
      f-1     :     0.001110
      f+2     :     0.001861
      f-2     :     0.001476
      f+3     :     0.001783
      f-3     :     0.002008
  3 H s       :     0.848030  s :     0.848030
      pz      :     0.013346  p :     0.023078
      px      :     0.005086
      py      :     0.004646
  4 H s       :     0.867423  s :     0.867423
      pz      :     0.005134  p :     0.022116
      px      :     0.004332
      py      :     0.012649
  5 H s       :     0.865150  s :     0.865150
      pz      :     0.004326  p :     0.022262
      px      :     0.011695
      py      :     0.006242
  6 O s       :     3.801573  s :     3.801573
      pz      :     1.451769  p :     4.637177
      px      :     1.554482
      py      :     1.630926
      dz2     :     0.009168  d :     0.057609
      dxz     :     0.011679
      dyz     :     0.014661
      dx2y2   :     0.011910
      dxy     :     0.010189
      f0      :     0.000597  f :     0.004326
      f+1     :     0.000558
      f-1     :     0.000734
      f+2     :     0.000815
      f-2     :     0.000664
      f+3     :     0.000426
      f-3     :     0.000532
  7 H s       :     0.632514  s :     0.632514
      pz      :     0.014736  p :     0.044627
      px      :     0.017168
      py      :     0.012723
  8 C s       :     3.214204  s :     3.214204
      pz      :     0.843689  p :     2.820534
      px      :     1.074069
      py      :     0.902775
      dz2     :     0.029396  d :     0.125653
      dxz     :     0.034813
      dyz     :     0.019656
      dx2y2   :     0.026877
      dxy     :     0.014911
      f0      :     0.001921  f :     0.011686
      f+1     :     0.001105
      f-1     :     0.002023
      f+2     :     0.002722
      f-2     :     0.001869
      f+3     :     0.000917
      f-3     :     0.001130
  9 H s       :     0.847063  s :     0.847063
      pz      :     0.006740  p :     0.023091
      px      :     0.011551
      py      :     0.004799
 10 H s       :     0.868693  s :     0.868693
      pz      :     0.008084  p :     0.022257
      px      :     0.009879
      py      :     0.004294
 11 H s       :     0.866864  s :     0.866864
      pz      :     0.004611  p :     0.022109
      px      :     0.004866
      py      :     0.012632


                     *******************************
                     * LOEWDIN POPULATION ANALYSIS *
                     *******************************

----------------------
LOEWDIN ATOMIC CHARGES
----------------------
   0 O :   -0.113793
   1 H :    0.191738
   2 C :   -0.380142
   3 H :    0.110121
   4 H :    0.096103
   5 H :    0.095960
   6 O :   -0.112310
   7 H :    0.192835
   8 C :   -0.382130
   9 H :    0.110466
  10 H :    0.095144
  11 H :    0.096008

-------------------------------
LOEWDIN REDUCED ORBITAL CHARGES
-------------------------------
  0 O s       :     3.397545  s :     3.397545
      pz      :     1.296496  p :     4.612892
      px      :     1.610021
      py      :     1.706375
      dz2     :     0.029158  d :     0.096268
      dxz     :     0.021152
      dyz     :     0.012953
      dx2y2   :     0.015414
      dxy     :     0.017591
      f0      :     0.001101  f :     0.007088
      f+1     :     0.001588
      f-1     :     0.000720
      f+2     :     0.000889
      f-2     :     0.001080
      f+3     :     0.000890
      f-3     :     0.000820
  1 H s       :     0.661132  s :     0.661132
      pz      :     0.070555  p :     0.147131
      px      :     0.039075
      py      :     0.037501
  2 C s       :     2.867898  s :     2.867898
      pz      :     1.019292  p :     3.018835
      px      :     0.976335
      py      :     1.023209
      dz2     :     0.107322  d :     0.433027
      dxz     :     0.066949
      dyz     :     0.050567
      dx2y2   :     0.120018
      dxy     :     0.088171
      f0      :     0.005836  f :     0.060381
      f+1     :     0.010009
      f-1     :     0.004828
      f+2     :     0.012063
      f-2     :     0.010576
      f+3     :     0.007319
      f-3     :     0.009749
  3 H s       :     0.825748  s :     0.825748
      pz      :     0.036963  p :     0.064131
      px      :     0.014457
      py      :     0.012711
  4 H s       :     0.839559  s :     0.839559
      pz      :     0.015242  p :     0.064338
      px      :     0.012115
      py      :     0.036981
  5 H s       :     0.839318  s :     0.839318
      pz      :     0.012826  p :     0.064722
      px      :     0.033978
      py      :     0.017919
  6 O s       :     3.395790  s :     3.395790
      pz      :     1.456655  p :     4.612765
      px      :     1.526122
      py      :     1.629988
      dz2     :     0.017277  d :     0.096642
      dxz     :     0.023933
      dyz     :     0.024335
      dx2y2   :     0.017908
      dxy     :     0.013190
      f0      :     0.001142  f :     0.007113
      f+1     :     0.000694
      f-1     :     0.001316
      f+2     :     0.001195
      f-2     :     0.001331
      f+3     :     0.000591
      f-3     :     0.000843
  7 H s       :     0.660585  s :     0.660585
      pz      :     0.041815  p :     0.146580
      px      :     0.065822
      py      :     0.038943
  8 C s       :     2.867032  s :     2.867032
      pz      :     0.933241  p :     3.018909
      px      :     1.097264
      py      :     0.988404
      dz2     :     0.090622  d :     0.435294
      dxz     :     0.115974
      dyz     :     0.093756
      dx2y2   :     0.100805
      dxy     :     0.034136
      f0      :     0.013656  f :     0.060895
      f+1     :     0.003982
      f-1     :     0.013119
      f+2     :     0.010623
      f-2     :     0.009909
      f+3     :     0.004761
      f-3     :     0.004845
  9 H s       :     0.825389  s :     0.825389
      pz      :     0.017772  p :     0.064146
      px      :     0.032835
      py      :     0.013539
 10 H s       :     0.840342  s :     0.840342
      pz      :     0.023323  p :     0.064514
      px      :     0.029236
      py      :     0.011956
 11 H s       :     0.839555  s :     0.839555
      pz      :     0.013244  p :     0.064437
      px      :     0.014265
      py      :     0.036929


                      *****************************
                      * MAYER POPULATION ANALYSIS *
                      *****************************

  NA   - Mulliken gross atomic population
  ZA   - Total nuclear charge
  QA   - Mulliken gross atomic charge
  VA   - Mayer's total valence
  BVA  - Mayer's bonded valence
  FA   - Mayer's free valence

  ATOM       NA         ZA         QA         VA         BVA        FA
  0 O      8.5001     8.0000    -0.5001     2.1448     1.7456     0.3991
  1 H      0.6781     1.0000     0.3219     0.9069     0.8536     0.0533
  2 C      6.1738     6.0000    -0.1738     4.0234     3.7472     0.2762
  3 H      0.8711     1.0000     0.1289     0.9623     0.9160     0.0464
  4 H      0.8895     1.0000     0.1105     0.9647     0.9161     0.0486
  5 H      0.8874     1.0000     0.1126     0.9636     0.9153     0.0483
  6 O      8.5007     8.0000    -0.5007     2.1441     1.7452     0.3989
  7 H      0.6771     1.0000     0.3229     0.9061     0.8528     0.0533
  8 C      6.1721     6.0000    -0.1721     4.0248     3.7490     0.2758
  9 H      0.8702     1.0000     0.1298     0.9624     0.9161     0.0463
 10 H      0.8910     1.0000     0.1090     0.9634     0.9149     0.0486
 11 H      0.8890     1.0000     0.1110     0.9646     0.9161     0.0485

  Mayer bond orders larger than 0.100000
B(  0-O ,  1-H ) :   0.8417 B(  0-O ,  2-C ) :   0.9237 B(  2-C ,  3-H ) :   0.9373 
B(  2-C ,  4-H ) :   0.9391 B(  2-C ,  5-H ) :   0.9388 B(  6-O ,  7-H ) :   0.8405 
B(  6-O ,  8-C ) :   0.9247 B(  8-C ,  9-H ) :   0.9373 B(  8-C , 10-H ) :   0.9390 
B(  8-C , 11-H ) :   0.9392 


----------------------------------
MP2 DERIVATIVE INTEGRAL GENERATION
----------------------------------


Input Wavefunction Amplitudes       ... 12meoh.boyd.etal.mol4,6-orca.engrad-mp2.def2tzvp.frozencore.mp2tsaa.tmp
Input Correlated Electron Density   ... 12meoh.boyd.etal.mol4,6-orca.engrad-mp2.def2tzvp.frozencore.pmp2re
Input Energy Weighted Density       ... 12meoh.boyd.etal.mol4,6-orca.engrad-mp2.def2tzvp.frozencore.wmp2.tmp
Input SCF Electron Density          ... 12meoh.boyd.etal.mol4,6-orca.engrad-mp2.def2tzvp.frozencore.scfp

One-Electron Terms    ...
                        ... One-Electron Terms done
Prescreening matrices              ... done

Batch handling in the gradient evaluation:
Memory available                      ... 8000.0 MB
Memory per occupied orbital in Q2     ...    3.2 MB
Memory per occupied orbital in Q3     ...    0.1 MB
Total memory requirement per |i>      ...    3.2 MB
Max. Number of orbitals possible      ...   2481
Number of orbitals treated per batch  ...     14
Number of batches to be done          ...      1
Batch   0: i=    4 ...    17

---------------------------------------
MP2 TOTAL ENERGY:     -231.013394691 Eh
---------------------------------------

The final MP2 gradient
  0:  -0.00842366  -0.00036353   0.02536828
  1:   0.00774410  -0.00148047  -0.02983031
  2:  -0.00230668  -0.00143378   0.00300910
  3:   0.00004139   0.00140131   0.00443073
  4:   0.00060031   0.00371539  -0.00185773
  5:   0.00213094  -0.00178496  -0.00096266
  6:   0.02130007   0.00744252  -0.01630630
  7:  -0.02502370  -0.00732379   0.01857596
  8:   0.00430761   0.00289982   0.00092744
  9:   0.00295328  -0.00029800  -0.00363843
 10:  -0.00276094   0.00082627  -0.00103125
 11:  -0.00056271  -0.00360079   0.00131518

-----------------------------------
NORM OF THE MP2 GRADIENT:  0.060042
-----------------------------------

-------------------------   --------------------
FINAL SINGLE POINT ENERGY      -231.013394691259
-------------------------   --------------------


                            ***************************************
                            *     ORCA property calculations      *
                            ***************************************

                                    ---------------------
                                    Active property flags
                                    ---------------------
   (+) Dipole Moment


------------------------------------------------------------------------------
                       ORCA ELECTRIC PROPERTIES CALCULATION
------------------------------------------------------------------------------

Dipole Moment Calculation                       ... on
Quadrupole Moment Calculation                   ... off
Polarizability Calculation                      ... off
GBWName                                         ... 12meoh.boyd.etal.mol4,6-orca.engrad-mp2.def2tzvp.frozencore.gbw
Electron density file                           ... 12meoh.boyd.etal.mol4,6-orca.engrad-mp2.def2tzvp.frozencore.scfp
The origin for moment calculation is the CENTER OF MASS  = ( 1.706304, -0.540476 -0.406264)

-------------
DIPOLE MOMENT
-------------
                                X             Y             Z
Electronic contribution:     -1.33250       0.27386       0.47695
Nuclear contribution   :      1.52133      -0.54737      -0.88191
                        -----------------------------------------
Total Dipole Moment    :      0.18883      -0.27351      -0.40496
                        -----------------------------------------
Magnitude (a.u.)       :      0.52389
Magnitude (Debye)      :      1.33162



--------------------
Rotational spectrum 
--------------------
 
Rotational constants in cm-1:     0.620478     0.026090     0.025352 
Rotational constants in MHz : 18601.450863   782.149751   760.024494 

 Dipole components along the rotational axes: 
x,y,z [a.u.] :     0.501492     0.117340     0.095909 
x,y,z [Debye]:     1.274690     0.298254     0.243780 

 

                         *** MP2 UNRELAXED DENSITY ***

------------------------------------------------------------------------------
                       ORCA ELECTRIC PROPERTIES CALCULATION
------------------------------------------------------------------------------

Dipole Moment Calculation                       ... on
Quadrupole Moment Calculation                   ... off
Polarizability Calculation                      ... off
GBWName                                         ... 12meoh.boyd.etal.mol4,6-orca.engrad-mp2.def2tzvp.frozencore.gbw
Electron density file                           ... 12meoh.boyd.etal.mol4,6-orca.engrad-mp2.def2tzvp.frozencore.pmp2ur
The origin for moment calculation is the CENTER OF MASS  = ( 1.706304, -0.540476 -0.406264)

-------------
DIPOLE MOMENT
-------------
                                X             Y             Z
Electronic contribution:     -1.33919       0.27898       0.48477
Nuclear contribution   :      1.52133      -0.54737      -0.88191
                        -----------------------------------------
Total Dipole Moment    :      0.18214      -0.26839      -0.39714
                        -----------------------------------------
Magnitude (a.u.)       :      0.51276
Magnitude (Debye)      :      1.30334



--------------------
Rotational spectrum 
--------------------
 
Rotational constants in cm-1:     0.620478     0.026090     0.025352 
Rotational constants in MHz : 18601.450863   782.149751   760.024494 

 Dipole components along the rotational axes: 
x,y,z [a.u.] :     0.490212     0.117649     0.093692 
x,y,z [Debye]:     1.246020     0.299040     0.238145 

 

                           *** MP2 RELAXED DENSITY ***

------------------------------------------------------------------------------
                       ORCA ELECTRIC PROPERTIES CALCULATION
------------------------------------------------------------------------------

Dipole Moment Calculation                       ... on
Quadrupole Moment Calculation                   ... off
Polarizability Calculation                      ... off
GBWName                                         ... 12meoh.boyd.etal.mol4,6-orca.engrad-mp2.def2tzvp.frozencore.gbw
Electron density file                           ... 12meoh.boyd.etal.mol4,6-orca.engrad-mp2.def2tzvp.frozencore.pmp2re
The origin for moment calculation is the CENTER OF MASS  = ( 1.706304, -0.540476 -0.406264)

-------------
DIPOLE MOMENT
-------------
                                X             Y             Z
Electronic contribution:     -1.35305       0.28577       0.49499
Nuclear contribution   :      1.52133      -0.54737      -0.88191
                        -----------------------------------------
Total Dipole Moment    :      0.16828      -0.26160      -0.38691
                        -----------------------------------------
Magnitude (a.u.)       :      0.49644
Magnitude (Debye)      :      1.26186



--------------------
Rotational spectrum 
--------------------
 
Rotational constants in cm-1:     0.620478     0.026090     0.025352 
Rotational constants in MHz : 18601.450863   782.149751   760.024494 

 Dipole components along the rotational axes: 
x,y,z [a.u.] :     0.472577     0.122251     0.090448 
x,y,z [Debye]:     1.201196     0.310738     0.229902 

 

Timings for individual modules:

Sum of individual times         ...       16.841 sec (=   0.281 min)
GTO integral calculation        ...        1.425 sec (=   0.024 min)   8.5 %
SCF iterations                  ...        5.173 sec (=   0.086 min)  30.7 %
MP2 module                      ...       10.243 sec (=   0.171 min)  60.8 %
                             ****ORCA TERMINATED NORMALLY****
TOTAL RUN TIME: 0 days 0 hours 0 minutes 18 seconds 300 msec
