
                                 *****************
                                 * O   R   C   A *
                                 *****************

           --- An Ab Initio, DFT and Semiempirical electronic structure package ---

                  #######################################################
                  #                        -***-                        #
                  #          Department of theory and spectroscopy      #
                  #               Directorship: Frank Neese             #
                  #        Max Planck Institute fuer Kohlenforschung    #
                  #                Kaiser Wilhelm Platz 1               #
                  #                 D-45470 Muelheim/Ruhr               #
                  #                      Germany                        #
                  #                                                     #
                  #                  All rights reserved                #
                  #                        -***-                        #
                  #######################################################


                         Program Version 4.2.0 -  RELEASE  -


 With contributions from (in alphabetic order):
   Daniel Aravena         : Magnetic Suceptibility
   Michael Atanasov       : Ab Initio Ligand Field Theory (pilot matlab implementation)
   Alexander A. Auer      : GIAO ZORA, VPT2
   Ute Becker             : Parallelization
   Giovanni Bistoni       : ED, misc. LED, open-shell LED, HFLED
   Martin Brehm           : Molecular dynamics
   Dmytro Bykov           : SCF Hessian
   Vijay G. Chilkuri      : MRCI spin determinant printing, contributions to CSF-ICE
   Dipayan Datta          : RHF DLPNO-CCSD density
   Achintya Kumar Dutta   : EOM-CC, STEOM-CC
   Dmitry Ganyushin       : Spin-Orbit,Spin-Spin,Magnetic field MRCI
   Miquel Garcia          : C-PCM Hessian, Gaussian charge scheme
   Yang Guo               : DLPNO-NEVPT2, CIM, IAO-localization
   Andreas Hansen         : Spin unrestricted coupled pair/coupled cluster methods
   Benjamin Helmich-Paris : CASSCF linear response (MC-RPA)
   Lee Huntington         : MR-EOM, pCC
   Robert Izsak           : Overlap fitted RIJCOSX, COSX-SCS-MP3, EOM
   Christian Kollmar      : KDIIS, OOCD, Brueckner-CCSD(T), CCSD density
   Simone Kossmann        : Meta GGA functionals, TD-DFT gradient, OOMP2, MP2 Hessian
   Martin Krupicka        : AUTO-CI
   Lucas Lang             : DCDCAS
   Dagmar Lenk            : GEPOL surface, SMD
   Dimitrios Liakos       : Extrapolation schemes; Compound Job, initial MDCI parallelization
   Dimitrios Manganas     : Further ROCIS development; embedding schemes
   Dimitrios Pantazis     : SARC Basis sets
   Taras Petrenko         : DFT Hessian,TD-DFT gradient, ASA, ECA, R-Raman, ABS, FL, XAS/XES, NRVS
   Peter Pinski           : DLPNO-MP2, DLPNO-MP2 Gradient
   Christoph Reimann      : Effective Core Potentials
   Marius Retegan         : Local ZFS, SOC
   Christoph Riplinger    : Optimizer, TS searches, QM/MM, DLPNO-CCSD(T), (RO)-DLPNO pert. Triples
   Tobias Risthaus        : Range-separated hybrids, TD-DFT gradient, RPA, STAB
   Michael Roemelt        : Original ROCIS implementation
   Masaaki Saitow         : Open-shell DLPNO-CCSD energy and density
   Barbara Sandhoefer     : DKH picture change effects
   Avijit Sen             : IP-ROCIS
   Kantharuban Sivalingam : CASSCF convergence, NEVPT2, FIC-MRCI
   Bernardo de Souza      : ESD, SOC TD-DFT
   Georgi Stoychev        : AutoAux, RI-MP2 NMR
   Willem Van den Heuvel  : Paramagnetic NMR
   Boris Wezisla          : Elementary symmetry handling
   Frank Wennmohs         : Technical directorship


 We gratefully acknowledge several colleagues who have allowed us to
 interface, adapt or use parts of their codes:
   Stefan Grimme, W. Hujo, H. Kruse,             : VdW corrections, initial TS optimization,
                  C. Bannwarth                     DFT functionals, gCP, sTDA/sTD-DF
   Ed Valeev, F. Pavosevic, A. Kumar             : LibInt (2-el integral package), F12 methods
   Garnet Chan, S. Sharma, J. Yang, R. Olivares  : DMRG
   Ulf Ekstrom                                   : XCFun DFT Library
   Mihaly Kallay                                 : mrcc  (arbitrary order and MRCC methods)
   Andreas Klamt, Michael Diedenhofen            : otool_cosmo (COSMO solvation model)
   Jiri Pittner, Ondrej Demel                    : Mk-CCSD
   Frank Weinhold                                : gennbo (NPA and NBO analysis)
   Christopher J. Cramer and Donald G. Truhlar   : smd solvation model
   Lars Goerigk                                  : TD-DFT with DH, B97 family of functionals
   V. Asgeirsson, H. Jonsson                     : NEB implementation
   FAccTs GmbH                                   : IRC, NEB, NEB-TS, Multilevel, MM, QM/MM, CI optimization
   S Lehtola, MJT Oliveira, MAL Marques          : LibXC Library


 Your calculation uses the libint2 library for the computation of 2-el integrals
 For citations please refer to: http://libint.valeyev.net

 Your ORCA version has been built with support for libXC version: 4.2.3
 For citations please refer to: https://tddft.org/programs/libxc/

 This ORCA versions uses:
   CBLAS   interface :  Fast vector & matrix operations
   LAPACKE interface :  Fast linear algebra routines
   SCALAPACK package :  Parallel linear algebra routines


----- Orbital basis set information -----
Your calculation utilizes the basis: def2-TZVP
   F. Weigend and R. Ahlrichs, Phys. Chem. Chem. Phys. 7, 3297 (2005).

================================================================================
                                        WARNINGS
                       Please study these warnings very carefully!
================================================================================


WARNING: The frozen-core approximation for MP2-gradient calculations is turned on by default.

INFO   : the flag for use of LIBINT has been found!

================================================================================
                                       INPUT FILE
================================================================================
NAME = 12meoh.boyd.etal.mol0,3,11-orca.engrad-mp2.def2tzvp.frozencore.inp
|  1> # 12meoh.boyd.etal.mol0,3,11
|  2> ! MP2 def2-TZVP EnGrad TightSCF
|  3> 
|  4> %pal
|  5>     nprocs 6
|  6> end
|  7> 
|  8> %maxcore 8000
|  9> 
| 10> %scf
| 11>     ConvForced true
| 12> end
| 13> 
| 14> *xyz 0 1
| 15> O  -1.776108874  -2.741384797  -1.019308298
| 16> H  -2.520094035  -2.452295987  -0.420778302
| 17> C  -2.174025166  -3.952700964  -1.647004581
| 18> H  -1.359803895  -4.272673416  -2.304149236
| 19> H  -3.075973971  -3.808692420  -2.256751112
| 20> H  -2.370225393  -4.752784761  -0.918966137
| 21> O  -3.821405976  -2.118091637   0.596795346
| 22> H  -4.342989117  -1.344303030   0.251966383
| 23> C  -3.443883586  -1.809641231   1.934889393
| 24> H  -2.831494349  -2.637429600   2.305201764
| 25> H  -4.325601146  -1.719364371   2.585074667
| 26> H  -2.858527126  -0.882644791   1.996110694
| 27> O   3.252955559   0.588596242   1.858934315
| 28> H   3.621209177  -0.251605199   1.476063364
| 29> C   4.040824528   0.944288422   2.989639460
| 30> H   3.670521436   1.902573549   3.363847391
| 31> H   5.103749934   1.055868619   2.734277559
| 32> H   3.948540682   0.200279590   3.792908518
| 33> *
| 34> 
| 35>                          ****END OF INPUT****
================================================================================

                     *******************************
                     * Energy+Gradient Calculation *
                     *******************************

---------------------------------
CARTESIAN COORDINATES (ANGSTROEM)
---------------------------------
  O     -1.776109   -2.741385   -1.019308
  H     -2.520094   -2.452296   -0.420778
  C     -2.174025   -3.952701   -1.647005
  H     -1.359804   -4.272673   -2.304149
  H     -3.075974   -3.808692   -2.256751
  H     -2.370225   -4.752785   -0.918966
  O     -3.821406   -2.118092    0.596795
  H     -4.342989   -1.344303    0.251966
  C     -3.443884   -1.809641    1.934889
  H     -2.831494   -2.637430    2.305202
  H     -4.325601   -1.719364    2.585075
  H     -2.858527   -0.882645    1.996111
  O      3.252956    0.588596    1.858934
  H      3.621209   -0.251605    1.476063
  C      4.040825    0.944288    2.989639
  H      3.670521    1.902574    3.363847
  H      5.103750    1.055869    2.734278
  H      3.948541    0.200280    3.792909

----------------------------
CARTESIAN COORDINATES (A.U.)
----------------------------
  NO LB      ZA    FRAG     MASS         X           Y           Z
   0 O     8.0000    0    15.999   -3.356359   -5.180466   -1.926214
   1 H     1.0000    0     1.008   -4.762288   -4.634168   -0.795156
   2 C     6.0000    0    12.011   -4.108312   -7.469522   -3.112388
   3 H     1.0000    0     1.008   -2.569657   -8.074183   -4.354211
   4 H     1.0000    0     1.008   -5.812748   -7.197386   -4.264642
   5 H     1.0000    0     1.008   -4.479077   -8.981462   -1.736594
   6 O     8.0000    0    15.999   -7.221411   -4.002613    1.127780
   7 H     1.0000    0     1.008   -8.207060   -2.540365    0.476147
   8 C     6.0000    0    12.011   -6.507997   -3.419726    3.656411
   9 H     1.0000    0     1.008   -5.350749   -4.984020    4.356200
  10 H     1.0000    0     1.008   -8.174202   -3.249128    4.885083
  11 H     1.0000    0     1.008   -5.401833   -1.667957    3.772103
  12 O     8.0000    0    15.999    6.147195    1.112286    3.512877
  13 H     1.0000    0     1.008    6.843094   -0.475465    2.789356
  14 C     6.0000    0    12.011    7.636052    1.784447    5.649600
  15 H     1.0000    0     1.008    6.936280    3.595343    6.356750
  16 H     1.0000    0     1.008    9.644690    1.995303    5.167036
  17 H     1.0000    0     1.008    7.461661    0.378474    7.167558

--------------------------------
INTERNAL COORDINATES (ANGSTROEM)
--------------------------------
 O      0   0   0     0.000000000000     0.00000000     0.00000000
 H      1   0   0     0.997659468941     0.00000000     0.00000000
 C      1   2   0     1.421135762539   107.64775557     0.00000000
 H      3   1   2     1.094156179795   107.82879233   180.01581697
 H      3   1   2     1.098198952673   111.31077271    61.21076131
 H      3   1   2     1.099394645811   112.19621244   299.46622341
 O      2   1   3     1.685396524398   174.53893623    24.85778125
 H      7   2   1     0.994839079963   110.47318404   227.50318855
 C      7   2   1     1.424134995894   113.92575834   106.73696509
 H      9   7   2     1.094251074279   107.60656698   305.05878422
 H      9   7   2     1.099234578054   111.15598505   186.86107742
 H      9   7   2     1.098049467343   112.12012929    64.59794661
 O     12   9   7     6.287574106537   135.60077595   268.33721780
 H     13  12   9     0.994051987447    99.82901095    16.92721018
 C     13  12   9     1.423287941407   125.39408408   256.14912091
 H     15  13  12     1.093373833690   107.66487715   293.30774021
 H     15  13  12     1.098849516342   112.09953284   173.98836893
 H     15  13  12     1.098775058812   111.41155745    51.97791104

---------------------------
INTERNAL COORDINATES (A.U.)
---------------------------
 O      0   0   0     0.000000000000     0.00000000     0.00000000
 H      1   0   0     1.885303171211     0.00000000     0.00000000
 C      1   2   0     2.685557390320   107.64775557     0.00000000
 H      3   1   2     2.067655527549   107.82879233   180.01581697
 H      3   1   2     2.075295261111   111.31077271    61.21076131
 H      3   1   2     2.077554793683   112.19621244   299.46622341
 O      2   1   3     3.184937858175   174.53893623    24.85778125
 H      7   2   1     1.879973408453   110.47318404   227.50318855
 C      7   2   1     2.691225119973   113.92575834   106.73696509
 H      9   7   2     2.067834852136   107.60656698   305.05878422
 H      9   7   2     2.077252309459   111.15598505   186.86107742
 H      9   7   2     2.075012774777   112.12012929    64.59794661
 O     12   9   7    11.881793108089   135.60077595   268.33721780
 H     13  12   9     1.878486019156    99.82901095    16.92721018
 C     13  12   9     2.689624418973   125.39408408   256.14912091
 H     15  13  12     2.066177107669   107.66487715   293.30774021
 H     15  13  12     2.076524648278   112.09953284   173.98836893
 H     15  13  12     2.076383943937   111.41155745    51.97791104

---------------------
BASIS SET INFORMATION
---------------------
There are 3 groups of distinct atoms

 Group   1 Type O   : 11s6p2d1f contracted to 5s3p2d1f pattern {62111/411/11/1}
 Group   2 Type H   : 5s1p contracted to 3s1p pattern {311/1}
 Group   3 Type C   : 11s6p2d1f contracted to 5s3p2d1f pattern {62111/411/11/1}

Atom   0O    basis set group =>   1
Atom   1H    basis set group =>   2
Atom   2C    basis set group =>   3
Atom   3H    basis set group =>   2
Atom   4H    basis set group =>   2
Atom   5H    basis set group =>   2
Atom   6O    basis set group =>   1
Atom   7H    basis set group =>   2
Atom   8C    basis set group =>   3
Atom   9H    basis set group =>   2
Atom  10H    basis set group =>   2
Atom  11H    basis set group =>   2
Atom  12O    basis set group =>   1
Atom  13H    basis set group =>   2
Atom  14C    basis set group =>   3
Atom  15H    basis set group =>   2
Atom  16H    basis set group =>   2
Atom  17H    basis set group =>   2


           ************************************************************
           *        Program running with 6 parallel MPI-processes     *
           *              working on a common directory               *
           ************************************************************
------------------------------------------------------------------------------
                           ORCA GTO INTEGRAL CALCULATION
------------------------------------------------------------------------------

                         BASIS SET STATISTICS AND STARTUP INFO

 # of primitive gaussian shells          ...  192
 # of primitive gaussian functions       ...  372
 # of contracted shells                  ...  114
 # of contracted basis functions         ...  258
 Highest angular momentum                ...    3
 Maximum contraction depth               ...    6
 Integral package used                   ... LIBINT
 Integral threshhold            Thresh   ...  2.500e-11
 Primitive cut-off              TCut     ...  2.500e-12


------------------------------ INTEGRAL EVALUATION ----------------------------


 * One electron integrals 
 Pre-screening matrix                    ... done
 Shell pair data                         ... done (   0.001 sec)



           ************************************************************
           *        Program running with 6 parallel MPI-processes     *
           *              working on a common directory               *
           ************************************************************
-------------------------------------------------------------------------------
                                 ORCA SCF
-------------------------------------------------------------------------------

------------
SCF SETTINGS
------------
Hamiltonian:
 Ab initio Hamiltonian  Method          .... Hartree-Fock(GTOs)


General Settings:
 Integral files         IntName         .... 12meoh.boyd.etal.mol0,3,11-orca.engrad-mp2.def2tzvp.frozencore
 Hartree-Fock type      HFTyp           .... RHF
 Total Charge           Charge          ....    0
 Multiplicity           Mult            ....    1
 Number of Electrons    NEL             ....   54
 Basis Dimension        Dim             ....  258
 Nuclear Repulsion      ENuc            ....    214.0569304226 Eh

Convergence Acceleration:
 DIIS                   CNVDIIS         .... on
   Start iteration      DIISMaxIt       ....    12
   Startup error        DIISStart       ....  0.200000
   # of expansion vecs  DIISMaxEq       ....     5
   Bias factor          DIISBfac        ....   1.050
   Max. coefficient     DIISMaxC        ....  10.000
 Newton-Raphson         CNVNR           .... off
 SOSCF                  CNVSOSCF        .... on
   Start iteration      SOSCFMaxIt      ....   150
   Startup grad/error   SOSCFStart      ....  0.003300
 Level Shifting         CNVShift        .... on
   Level shift para.    LevelShift      ....    0.2500
   Turn off err/grad.   ShiftErr        ....    0.0010
 Zerner damping         CNVZerner       .... off
 Static damping         CNVDamp         .... on
   Fraction old density DampFac         ....    0.7000
   Max. Damping (<1)    DampMax         ....    0.9800
   Min. Damping (>=0)   DampMin         ....    0.0000
   Turn off err/grad.   DampErr         ....    0.1000
 Fernandez-Rico         CNVRico         .... off

SCF Procedure:
 Maximum # iterations   MaxIter         ....   125
 SCF integral mode      SCFMode         .... Direct
   Integral package                     .... LIBINT
 Reset frequency        DirectResetFreq ....    20
 Integral Threshold     Thresh          ....  2.500e-11 Eh
 Primitive CutOff       TCut            ....  2.500e-12 Eh

Convergence Tolerance:
 Convergence Check Mode ConvCheckMode   .... Total+1el-Energy
 Convergence forced     ConvForced      .... 1
 Energy Change          TolE            ....  1.000e-08 Eh
 1-El. energy change                    ....  1.000e-05 Eh
 Orbital Gradient       TolG            ....  1.000e-05
 Orbital Rotation angle TolX            ....  1.000e-05
 DIIS Error             TolErr          ....  5.000e-07


Diagonalization of the overlap matrix:
Smallest eigenvalue                        ... 1.533e-03
Time for diagonalization                   ...    0.010 sec
Threshold for overlap eigenvalues          ... 1.000e-08
Number of eigenvalues below threshold      ... 0
Time for construction of square roots      ...    0.005 sec
Total time needed                          ...    0.015 sec

-------------------
DFT GRID GENERATION
-------------------

General Integration Accuracy     IntAcc      ...  4.340
Radial Grid Type                 RadialGrid  ... Gauss-Chebyshev
Angular Grid (max. acc.)         AngularGrid ... Lebedev-110
Angular grid pruning method      GridPruning ... 3 (G Style)
Weight generation scheme         WeightScheme... Becke
Basis function cutoff            BFCut       ...    1.0000e-11
Integration weight cutoff        WCut        ...    1.0000e-14
Grids for H and He will be reduced by one unit

# of grid points (after initial pruning)     ...  19644 (   0.0 sec)
# of grid points (after weights+screening)   ...  18727 (   0.0 sec)
nearest neighbour list constructed           ...    0.0 sec
Grid point re-assignment to atoms done       ...    0.0 sec
Grid point division into batches done        ...    0.0 sec
Reduced shell lists constructed in    0.0 sec

Total number of grid points                  ...    18727
Total number of batches                      ...      299
Average number of points per batch           ...       62
Average number of grid points per atom       ...     1040
Average number of shells per batch           ...    63.10 (55.35%)
Average number of basis functions per batch  ...   141.61 (54.89%)
Average number of large shells per batch     ...    48.39 (76.69%)
Average number of large basis fcns per batch ...   110.86 (78.29%)
Maximum spatial batch extension              ...  17.18, 17.82, 16.71 au
Average spatial batch extension              ...   0.47,  0.53,  0.51 au

Time for grid setup =    0.057 sec

------------------------------
INITIAL GUESS: MODEL POTENTIAL
------------------------------
Loading Hartree-Fock densities                     ... done
Calculating cut-offs                               ... done
Setting up the integral package                    ... done
Initializing the effective Hamiltonian             ... done
Starting the Coulomb interaction                   ... done (   0.0 sec)
Reading the grid                                   ... done
Mapping shells                                     ... done
Starting the XC term evaluation                    ... done (   0.0 sec)
Transforming the Hamiltonian                       ... done (   0.0 sec)
Diagonalizing the Hamiltonian                      ... done (   0.0 sec)
Back transforming the eigenvectors                 ... done (   0.0 sec)
Now organizing SCF variables                       ... done
                      ------------------
                      INITIAL GUESS DONE (   0.2 sec)
                      ------------------
--------------
SCF ITERATIONS
--------------
ITER       Energy         Delta-E        Max-DP      RMS-DP      [F,P]     Damp
               ***  Starting incremental Fock matrix formation  ***
  0   -344.9245260568   0.000000000000 0.03632705  0.00076660  0.2924781 0.7000
  1   -345.0498152923  -0.125289235562 0.02489700  0.00057310  0.2186796 0.7000
                               ***Turning on DIIS***
  2   -345.1228472028  -0.073031910430 0.01463083  0.00035766  0.1628356 0.7000
  3   -345.9959038474  -0.873056644658 0.00757566  0.00020300  0.1199815 0.7000
  4   -345.8480390000   0.147864847397 0.01616030  0.00048755  0.0845957 0.0000
  5   -345.3008762144   0.547162785630 0.00198221  0.00006555  0.0057440 0.0000
                      *** Initiating the SOSCF procedure ***
                           *** Shutting down DIIS ***
                      *** Re-Reading the Fockian *** 
                      *** Removing any level shift *** 
ITER      Energy       Delta-E        Grad      Rot      Max-DP    RMS-DP
  6   -345.27787725   0.0229989667  0.000804  0.000804  0.001025  0.000034
               *** Restarting incremental Fock matrix formation ***
  7   -345.27230128   0.0055759707  0.000379  0.000436  0.000609  0.000019
  8   -345.27230840  -0.0000071244  0.000214  0.000314  0.000446  0.000013
  9   -345.27231013  -0.0000017291  0.000036  0.000031  0.000066  0.000002
 10   -345.27231019  -0.0000000582  0.000006  0.000012  0.000019  0.000001
                  ***Gradient check signals convergence***
              ***Rediagonalizing the Fockian in SOSCF/NRSCF***

               *****************************************************
               *                     SUCCESS                       *
               *           SCF CONVERGED AFTER  11 CYCLES          *
               *****************************************************


----------------
TOTAL SCF ENERGY
----------------

Total Energy       :         -345.27231019 Eh           -9395.33721 eV

Components:
Nuclear Repulsion  :          214.05693042 Eh            5824.78520 eV
Electronic Energy  :         -559.32924062 Eh          -15220.12241 eV
One Electron Energy:         -897.21999390 Eh          -24414.59725 eV
Two Electron Energy:          337.89075329 Eh            9194.47484 eV

Virial components:
Potential Energy   :         -689.94939580 Eh          -18774.47754 eV
Kinetic Energy     :          344.67708561 Eh            9379.14033 eV
Virial Ratio       :            2.00172691


---------------
SCF CONVERGENCE
---------------

  Last Energy change         ...   -4.7761e-09  Tolerance :   1.0000e-08
  Last MAX-Density change    ...    5.6049e-06  Tolerance :   1.0000e-07
  Last RMS-Density change    ...    1.6347e-07  Tolerance :   5.0000e-09
  Last Orbital Gradient      ...    1.8303e-06  Tolerance :   1.0000e-05
  Last Orbital Rotation      ...    5.3651e-06  Tolerance :   1.0000e-05

             **** THE GBW FILE WAS UPDATED (12meoh.boyd.etal.mol0,3,11-orca.engrad-mp2.def2tzvp.frozencore.gbw) ****
             **** DENSITY FILE WAS UPDATED (12meoh.boyd.etal.mol0,3,11-orca.engrad-mp2.def2tzvp.frozencore.scfp) ****
             **** ENERGY FILE WAS UPDATED (12meoh.boyd.etal.mol0,3,11-orca.engrad-mp2.def2tzvp.frozencore.en.tmp) ****
             **** THE GBW FILE WAS UPDATED (12meoh.boyd.etal.mol0,3,11-orca.engrad-mp2.def2tzvp.frozencore.gbw) ****
             **** DENSITY FILE WAS UPDATED (12meoh.boyd.etal.mol0,3,11-orca.engrad-mp2.def2tzvp.frozencore.scfp) ****
----------------
ORBITAL ENERGIES
----------------

  NO   OCC          E(Eh)            E(eV) 
   0   2.0000     -20.589869      -560.2788 
   1   2.0000     -20.554084      -559.3051 
   2   2.0000     -20.510545      -558.1203 
   3   2.0000     -11.288547      -307.1770 
   4   2.0000     -11.269447      -306.6572 
   5   2.0000     -11.245418      -306.0034 
   6   2.0000      -1.383111       -37.6364 
   7   2.0000      -1.343457       -36.5573 
   8   2.0000      -1.307554       -35.5804 
   9   2.0000      -0.940180       -25.5836 
  10   2.0000      -0.917323       -24.9616 
  11   2.0000      -0.891591       -24.2614 
  12   2.0000      -0.715030       -19.4569 
  13   2.0000      -0.678724       -18.4690 
  14   2.0000      -0.671317       -18.2675 
  15   2.0000      -0.633292       -17.2327 
  16   2.0000      -0.614499       -16.7214 
  17   2.0000      -0.607386       -16.5278 
  18   2.0000      -0.588164       -16.0048 
  19   2.0000      -0.587184       -15.9781 
  20   2.0000      -0.558248       -15.1907 
  21   2.0000      -0.527315       -14.3490 
  22   2.0000      -0.497447       -13.5362 
  23   2.0000      -0.487002       -13.2520 
  24   2.0000      -0.453168       -12.3313 
  25   2.0000      -0.446277       -12.1438 
  26   2.0000      -0.413090       -11.2407 
  27   0.0000       0.120051         3.2668 
  28   0.0000       0.138684         3.7738 
  29   0.0000       0.163987         4.4623 
  30   0.0000       0.175459         4.7745 
  31   0.0000       0.178267         4.8509 
  32   0.0000       0.213059         5.7976 
  33   0.0000       0.217624         5.9219 
  34   0.0000       0.230850         6.2818 
  35   0.0000       0.232338         6.3222 
  36   0.0000       0.238603         6.4927 
  37   0.0000       0.243488         6.6256 
  38   0.0000       0.247788         6.7426 
  39   0.0000       0.257018         6.9938 
  40   0.0000       0.269364         7.3298 
  41   0.0000       0.316546         8.6137 
  42   0.0000       0.320601         8.7240 
  43   0.0000       0.334908         9.1133 
  44   0.0000       0.341016         9.2795 
  45   0.0000       0.357843         9.7374 
  46   0.0000       0.364556         9.9201 
  47   0.0000       0.417325        11.3560 
  48   0.0000       0.447761        12.1842 
  49   0.0000       0.463221        12.6049 
  50   0.0000       0.483030        13.1439 
  51   0.0000       0.519698        14.1417 
  52   0.0000       0.524608        14.2753 
  53   0.0000       0.558366        15.1939 
  54   0.0000       0.573841        15.6150 
  55   0.0000       0.577258        15.7080 
  56   0.0000       0.587208        15.9788 
  57   0.0000       0.613030        16.6814 
  58   0.0000       0.622783        16.9468 
  59   0.0000       0.627601        17.0779 
  60   0.0000       0.629007        17.1162 
  61   0.0000       0.643779        17.5181 
  62   0.0000       0.651563        17.7299 
  63   0.0000       0.660346        17.9689 
  64   0.0000       0.664904        18.0930 
  65   0.0000       0.683904        18.6100 
  66   0.0000       0.686340        18.6763 
  67   0.0000       0.691317        18.8117 
  68   0.0000       0.707657        19.2563 
  69   0.0000       0.713250        19.4085 
  70   0.0000       0.757816        20.6212 
  71   0.0000       0.768315        20.9069 
  72   0.0000       0.777898        21.1677 
  73   0.0000       0.806526        21.9467 
  74   0.0000       0.877023        23.8650 
  75   0.0000       0.884485        24.0681 
  76   0.0000       0.889763        24.2117 
  77   0.0000       0.908127        24.7114 
  78   0.0000       0.925922        25.1956 
  79   0.0000       0.931558        25.3490 
  80   0.0000       0.955406        25.9979 
  81   0.0000       1.007486        27.4151 
  82   0.0000       1.018475        27.7141 
  83   0.0000       1.058653        28.8074 
  84   0.0000       1.093206        29.7477 
  85   0.0000       1.104347        30.0508 
  86   0.0000       1.114669        30.3317 
  87   0.0000       1.117816        30.4173 
  88   0.0000       1.136002        30.9122 
  89   0.0000       1.189593        32.3705 
  90   0.0000       1.238410        33.6988 
  91   0.0000       1.247855        33.9559 
  92   0.0000       1.278017        34.7766 
  93   0.0000       1.538698        41.8701 
  94   0.0000       1.562837        42.5270 
  95   0.0000       1.591343        43.3026 
  96   0.0000       1.653144        44.9843 
  97   0.0000       1.662140        45.2291 
  98   0.0000       1.692548        46.0566 
  99   0.0000       1.700821        46.2817 
 100   0.0000       1.708465        46.4897 
 101   0.0000       1.743916        47.4544 
 102   0.0000       1.777009        48.3549 
 103   0.0000       1.777885        48.3787 
 104   0.0000       1.778572        48.3974 
 105   0.0000       1.788152        48.6581 
 106   0.0000       1.794126        48.8206 
 107   0.0000       1.795655        48.8622 
 108   0.0000       1.807562        49.1863 
 109   0.0000       1.816630        49.4330 
 110   0.0000       1.836525        49.9744 
 111   0.0000       1.843668        50.1688 
 112   0.0000       1.846515        50.2462 
 113   0.0000       1.864147        50.7260 
 114   0.0000       1.865802        50.7711 
 115   0.0000       1.892358        51.4937 
 116   0.0000       1.959142        53.3110 
 117   0.0000       1.964897        53.4676 
 118   0.0000       1.983016        53.9606 
 119   0.0000       2.095654        57.0256 
 120   0.0000       2.135326        58.1052 
 121   0.0000       2.140649        58.2500 
 122   0.0000       2.190568        59.6084 
 123   0.0000       2.208239        60.0892 
 124   0.0000       2.210463        60.1498 
 125   0.0000       2.246095        61.1194 
 126   0.0000       2.246231        61.1231 
 127   0.0000       2.250451        61.2379 
 128   0.0000       2.281208        62.0748 
 129   0.0000       2.290563        62.3294 
 130   0.0000       2.291020        62.3418 
 131   0.0000       2.300094        62.5887 
 132   0.0000       2.307189        62.7818 
 133   0.0000       2.347095        63.8677 
 134   0.0000       2.389928        65.0332 
 135   0.0000       2.435734        66.2797 
 136   0.0000       2.448383        66.6239 
 137   0.0000       2.514594        68.4256 
 138   0.0000       2.540107        69.1198 
 139   0.0000       2.553232        69.4770 
 140   0.0000       2.557988        69.6064 
 141   0.0000       2.562837        69.7383 
 142   0.0000       2.582296        70.2679 
 143   0.0000       2.596001        70.6408 
 144   0.0000       2.600673        70.7679 
 145   0.0000       2.625241        71.4364 
 146   0.0000       2.627651        71.5020 
 147   0.0000       2.633346        71.6570 
 148   0.0000       2.648134        72.0594 
 149   0.0000       2.681197        72.9591 
 150   0.0000       2.698290        73.4242 
 151   0.0000       2.724948        74.1496 
 152   0.0000       2.740973        74.5857 
 153   0.0000       2.782408        75.7132 
 154   0.0000       2.803948        76.2993 
 155   0.0000       2.816313        76.6358 
 156   0.0000       2.842279        77.3423 
 157   0.0000       2.842462        77.3473 
 158   0.0000       2.869781        78.0907 
 159   0.0000       2.890631        78.6581 
 160   0.0000       2.904235        79.0282 
 161   0.0000       2.951152        80.3049 
 162   0.0000       3.046400        82.8968 
 163   0.0000       3.049660        82.9855 
 164   0.0000       3.071886        83.5903 
 165   0.0000       3.113144        84.7130 
 166   0.0000       3.122178        84.9588 
 167   0.0000       3.127390        85.1006 
 168   0.0000       3.140824        85.4662 
 169   0.0000       3.201493        87.1171 
 170   0.0000       3.212281        87.4106 
 171   0.0000       3.248451        88.3949 
 172   0.0000       3.336427        90.7888 
 173   0.0000       3.342948        90.9662 
 174   0.0000       3.358198        91.3812 
 175   0.0000       3.400062        92.5204 
 176   0.0000       3.412958        92.8713 
 177   0.0000       3.423051        93.1459 
 178   0.0000       3.457862        94.0932 
 179   0.0000       3.488186        94.9184 
 180   0.0000       3.540041        96.3294 
 181   0.0000       3.541438        96.3674 
 182   0.0000       3.583615        97.5151 
 183   0.0000       3.624399        98.6249 
 184   0.0000       3.640868        99.0731 
 185   0.0000       3.652821        99.3983 
 186   0.0000       3.663724        99.6950 
 187   0.0000       3.674301        99.9828 
 188   0.0000       3.718298       101.1800 
 189   0.0000       3.726135       101.3933 
 190   0.0000       3.752121       102.1004 
 191   0.0000       3.772760       102.6620 
 192   0.0000       3.848677       104.7278 
 193   0.0000       3.863676       105.1360 
 194   0.0000       3.871018       105.3357 
 195   0.0000       3.887038       105.7717 
 196   0.0000       3.892116       105.9099 
 197   0.0000       3.905722       106.2801 
 198   0.0000       3.907395       106.3256 
 199   0.0000       3.920590       106.6847 
 200   0.0000       3.951543       107.5270 
 201   0.0000       4.222749       114.9069 
 202   0.0000       4.254450       115.7695 
 203   0.0000       4.415750       120.1587 
 204   0.0000       4.497579       122.3853 
 205   0.0000       4.502908       122.5304 
 206   0.0000       4.525800       123.1533 
 207   0.0000       4.538231       123.4915 
 208   0.0000       4.551156       123.8433 
 209   0.0000       4.596691       125.0823 
 210   0.0000       4.707647       128.1016 
 211   0.0000       4.711957       128.2189 
 212   0.0000       4.747112       129.1755 
 213   0.0000       4.871420       132.5581 
 214   0.0000       4.873537       132.6157 
 215   0.0000       4.917859       133.8217 
 216   0.0000       5.690003       154.8328 
 217   0.0000       5.695840       154.9917 
 218   0.0000       5.737004       156.1118 
 219   0.0000       5.763994       156.8463 
 220   0.0000       5.771237       157.0434 
 221   0.0000       5.823778       158.4730 
 222   0.0000       5.851287       159.2216 
 223   0.0000       5.882878       160.0813 
 224   0.0000       5.931697       161.4097 
 225   0.0000       6.130935       166.8312 
 226   0.0000       6.144380       167.1971 
 227   0.0000       6.170242       167.9008 
 228   0.0000       6.175276       168.0378 
 229   0.0000       6.213618       169.0811 
 230   0.0000       6.217830       169.1958 
 231   0.0000       6.300431       171.4435 
 232   0.0000       6.324909       172.1095 
 233   0.0000       6.376786       173.5212 
 234   0.0000       6.618094       180.0875 
 235   0.0000       6.667028       181.4190 
 236   0.0000       6.762544       184.0182 
 237   0.0000       6.951392       189.1570 
 238   0.0000       6.981973       189.9892 
 239   0.0000       7.079454       192.6417 
 240   0.0000       7.139790       194.2836 
 241   0.0000       7.154048       194.6715 
 242   0.0000       7.209512       196.1808 
 243   0.0000       7.221097       196.4960 
 244   0.0000       7.263285       197.6440 
 245   0.0000       7.278119       198.0477 
 246   0.0000       7.459909       202.9945 
 247   0.0000       7.462080       203.0535 
 248   0.0000       7.533129       204.9869 
 249   0.0000       7.594263       206.6504 
 250   0.0000       7.603570       206.9037 
 251   0.0000       7.765913       211.3212 
 252   0.0000      23.363177       635.7444 
 253   0.0000      23.363373       635.7497 
 254   0.0000      23.407638       636.9542 
 255   0.0000      45.150770      1228.6149 
 256   0.0000      45.178448      1229.3681 
 257   0.0000      45.299100      1232.6512 

                    ********************************
                    * MULLIKEN POPULATION ANALYSIS *
                    ********************************

-----------------------
MULLIKEN ATOMIC CHARGES
-----------------------
   0 O :   -0.594378
   1 H :    0.369248
   2 C :   -0.055093
   3 H :    0.096347
   4 H :    0.075084
   5 H :    0.076358
   6 O :   -0.568210
   7 H :    0.350104
   8 C :   -0.094206
   9 H :    0.123451
  10 H :    0.105397
  11 H :    0.115898
  12 O :   -0.544146
  13 H :    0.331507
  14 C :   -0.074803
  15 H :    0.106859
  16 H :    0.090951
  17 H :    0.089632
Sum of atomic charges:   -0.0000000

--------------------------------
MULLIKEN REDUCED ORBITAL CHARGES
--------------------------------
  0 O s       :     3.800075  s :     3.800075
      pz      :     1.655566  p :     4.761195
      px      :     1.632225
      py      :     1.473405
      dz2     :     0.002563  d :     0.031444
      dxz     :     0.008850
      dyz     :     0.004728
      dx2y2   :     0.007944
      dxy     :     0.007358
      f0      :     0.000280  f :     0.001664
      f+1     :     0.000110
      f-1     :     0.000210
      f+2     :     0.000452
      f-2     :     0.000313
      f+3     :     0.000152
      f-3     :     0.000147
  1 H s       :     0.573682  s :     0.573682
      pz      :     0.021164  p :     0.057070
      px      :     0.023883
      py      :     0.012023
  2 C s       :     3.179050  s :     3.179050
      pz      :     0.961950  p :     2.748478
      px      :     1.010585
      py      :     0.775943
      dz2     :     0.013340  d :     0.118452
      dxz     :     0.027304
      dyz     :     0.029015
      dx2y2   :     0.026567
      dxy     :     0.022227
      f0      :     0.000492  f :     0.009113
      f+1     :     0.000247
      f-1     :     0.002087
      f+2     :     0.002324
      f-2     :     0.001504
      f+3     :     0.001164
      f-3     :     0.001295
  3 H s       :     0.882848  s :     0.882848
      pz      :     0.007527  p :     0.020805
      px      :     0.009620
      py      :     0.003658
  4 H s       :     0.904881  s :     0.904881
      pz      :     0.006818  p :     0.020035
      px      :     0.010665
      py      :     0.002553
  5 H s       :     0.903662  s :     0.903662
      pz      :     0.007611  p :     0.019979
      px      :     0.003650
      py      :     0.008718
  6 O s       :     3.799284  s :     3.799284
      pz      :     1.395924  p :     4.735265
      px      :     1.744882
      py      :     1.594458
      dz2     :     0.009647  d :     0.032011
      dxz     :     0.004618
      dyz     :     0.008076
      dx2y2   :     0.002834
      dxy     :     0.006836
      f0      :     0.000378  f :     0.001651
      f+1     :     0.000338
      f-1     :     0.000183
      f+2     :     0.000080
      f-2     :     0.000263
      f+3     :     0.000348
      f-3     :     0.000061
  7 H s       :     0.607940  s :     0.607940
      pz      :     0.010811  p :     0.041956
      px      :     0.015202
      py      :     0.015943
  8 C s       :     3.200569  s :     3.200569
      pz      :     0.695475  p :     2.774674
      px      :     1.025241
      py      :     1.053959
      dz2     :     0.024605  d :     0.110008
      dxz     :     0.034893
      dyz     :     0.023812
      dx2y2   :     0.007510
      dxy     :     0.019188
      f0      :     0.002520  f :     0.008955
      f+1     :     0.002047
      f-1     :     0.001756
      f+2     :     0.000759
      f-2     :     0.000799
      f+3     :     0.001027
      f-3     :     0.000047
  9 H s       :     0.855198  s :     0.855198
      pz      :     0.003899  p :     0.021352
      px      :     0.007377
      py      :     0.010077
 10 H s       :     0.874116  s :     0.874116
      pz      :     0.006753  p :     0.020487
      px      :     0.010257
      py      :     0.003477
 11 H s       :     0.863702  s :     0.863702
      pz      :     0.002071  p :     0.020401
      px      :     0.006881
      py      :     0.011448
 12 O s       :     3.805251  s :     3.805251
      pz      :     1.511019  p :     4.704623
      px      :     1.682412
      py      :     1.511191
      dz2     :     0.005817  d :     0.032538
      dxz     :     0.010069
      dyz     :     0.004123
      dx2y2   :     0.005784
      dxy     :     0.006746
      f0      :     0.000234  f :     0.001735
      f+1     :     0.000355
      f-1     :     0.000215
      f+2     :     0.000320
      f-2     :     0.000300
      f+3     :     0.000269
      f-3     :     0.000041
 13 H s       :     0.625648  s :     0.625648
      pz      :     0.012874  p :     0.042845
      px      :     0.012013
      py      :     0.017958
 14 C s       :     3.193215  s :     3.193215
      pz      :     0.800787  p :     2.757409
      px      :     0.922265
      py      :     1.034357
      dz2     :     0.029682  d :     0.115262
      dxz     :     0.017267
      dyz     :     0.031726
      dx2y2   :     0.026630
      dxy     :     0.009957
      f0      :     0.001791  f :     0.008917
      f+1     :     0.001625
      f-1     :     0.001122
      f+2     :     0.001947
      f-2     :     0.001277
      f+3     :     0.000859
      f-3     :     0.000297
 15 H s       :     0.871998  s :     0.871998
      pz      :     0.004266  p :     0.021142
      px      :     0.004325
      py      :     0.012551
 16 H s       :     0.889026  s :     0.889026
      pz      :     0.002866  p :     0.020023
      px      :     0.013689
      py      :     0.003468
 17 H s       :     0.890248  s :     0.890248
      pz      :     0.009003  p :     0.020119
      px      :     0.003058
      py      :     0.008059


                     *******************************
                     * LOEWDIN POPULATION ANALYSIS *
                     *******************************

----------------------
LOEWDIN ATOMIC CHARGES
----------------------
   0 O :   -0.149918
   1 H :    0.166720
   2 C :   -0.350146
   3 H :    0.095386
   4 H :    0.083240
   5 H :    0.083854
   6 O :   -0.100611
   7 H :    0.199401
   8 C :   -0.327583
   9 H :    0.107665
  10 H :    0.095466
  11 H :    0.096525
  12 O :   -0.129060
  13 H :    0.190287
  14 C :   -0.337059
  15 H :    0.100716
  16 H :    0.087721
  17 H :    0.087395

-------------------------------
LOEWDIN REDUCED ORBITAL CHARGES
-------------------------------
  0 O s       :     3.385581  s :     3.385581
      pz      :     1.591887  p :     4.695247
      px      :     1.599917
      py      :     1.503443
      dz2     :     0.006927  d :     0.065145
      dxz     :     0.014149
      dyz     :     0.013951
      dx2y2   :     0.014459
      dxy     :     0.015659
      f0      :     0.000442  f :     0.003945
      f+1     :     0.000194
      f-1     :     0.000617
      f+2     :     0.000879
      f-2     :     0.000576
      f+3     :     0.000605
      f-3     :     0.000632
  1 H s       :     0.646341  s :     0.646341
      pz      :     0.066010  p :     0.186939
      px      :     0.086154
      py      :     0.034774
  2 C s       :     2.860516  s :     2.860516
      pz      :     1.028328  p :     2.997362
      px      :     1.070362
      py      :     0.898673
      dz2     :     0.042812  d :     0.434019
      dxz     :     0.094300
      dyz     :     0.113713
      dx2y2   :     0.104189
      dxy     :     0.079004
      f0      :     0.005941  f :     0.058249
      f+1     :     0.002339
      f-1     :     0.014402
      f+2     :     0.007812
      f-2     :     0.007583
      f+3     :     0.010141
      f-3     :     0.010031
  3 H s       :     0.846660  s :     0.846660
      pz      :     0.020635  p :     0.057954
      px      :     0.026451
      py      :     0.010869
  4 H s       :     0.858875  s :     0.858875
      pz      :     0.019750  p :     0.057885
      px      :     0.029064
      py      :     0.009071
  5 H s       :     0.858313  s :     0.858313
      pz      :     0.021944  p :     0.057833
      px      :     0.012539
      py      :     0.023350
  6 O s       :     3.385605  s :     3.385605
      pz      :     1.429643  p :     4.641731
      px      :     1.647298
      py      :     1.564791
      dz2     :     0.019822  d :     0.069082
      dxz     :     0.015404
      dyz     :     0.019634
      dx2y2   :     0.003338
      dxy     :     0.010884
      f0      :     0.001062  f :     0.004193
      f+1     :     0.000889
      f-1     :     0.000834
      f+2     :     0.000327
      f-2     :     0.000503
      f+3     :     0.000547
      f-3     :     0.000031
  7 H s       :     0.655663  s :     0.655663
      pz      :     0.030406  p :     0.144936
      px      :     0.049867
      py      :     0.064663
  8 C s       :     2.861650  s :     2.861650
      pz      :     0.832620  p :     2.992182
      px      :     1.069790
      py      :     1.089772
      dz2     :     0.119022  d :     0.416335
      dxz     :     0.124857
      dyz     :     0.086922
      dx2y2   :     0.021136
      dxy     :     0.064398
      f0      :     0.017051  f :     0.057415
      f+1     :     0.011324
      f-1     :     0.014202
      f+2     :     0.006803
      f-2     :     0.004496
      f+3     :     0.002961
      f-3     :     0.000578
  9 H s       :     0.832856  s :     0.832856
      pz      :     0.010863  p :     0.059479
      px      :     0.020761
      py      :     0.027855
 10 H s       :     0.845625  s :     0.845625
      pz      :     0.018209  p :     0.058909
      px      :     0.028449
      py      :     0.012251
 11 H s       :     0.843946  s :     0.843946
      pz      :     0.007690  p :     0.059529
      px      :     0.020479
      py      :     0.031359
 12 O s       :     3.394554  s :     3.394554
      pz      :     1.514945  p :     4.661894
      px      :     1.666355
      py      :     1.480593
      dz2     :     0.014343  d :     0.068505
      dxz     :     0.017933
      dyz     :     0.014771
      dx2y2   :     0.011627
      dxy     :     0.009830
      f0      :     0.000770  f :     0.004108
      f+1     :     0.000783
      f-1     :     0.000455
      f+2     :     0.000578
      f-2     :     0.000775
      f+3     :     0.000630
      f-3     :     0.000117
 13 H s       :     0.665352  s :     0.665352
      pz      :     0.035484  p :     0.144360
      px      :     0.041675
      py      :     0.067201
 14 C s       :     2.862171  s :     2.862171
      pz      :     0.911403  p :     2.993113
      px      :     1.008740
      py      :     1.072971
      dz2     :     0.110355  d :     0.424347
      dxz     :     0.084735
      dyz     :     0.105023
      dx2y2   :     0.090356
      dxy     :     0.033878
      f0      :     0.013465  f :     0.057428
      f+1     :     0.012313
      f-1     :     0.005870
      f+2     :     0.009077
      f-2     :     0.009442
      f+3     :     0.004310
      f-3     :     0.002952
 15 H s       :     0.840558  s :     0.840558
      pz      :     0.012180  p :     0.058726
      px      :     0.013772
      py      :     0.032774
 16 H s       :     0.853800  s :     0.853800
      pz      :     0.010050  p :     0.058478
      px      :     0.035984
      py      :     0.012444
 17 H s       :     0.854177  s :     0.854177
      pz      :     0.024299  p :     0.058428
      px      :     0.010761
      py      :     0.023368


                      *****************************
                      * MAYER POPULATION ANALYSIS *
                      *****************************

  NA   - Mulliken gross atomic population
  ZA   - Total nuclear charge
  QA   - Mulliken gross atomic charge
  VA   - Mayer's total valence
  BVA  - Mayer's bonded valence
  FA   - Mayer's free valence

  ATOM       NA         ZA         QA         VA         BVA        FA
  0 O      8.5944     8.0000    -0.5944     1.7344     1.7344     0.0000
  1 H      0.6308     1.0000     0.3692     0.9052     0.9052     0.0000
  2 C      6.0551     6.0000    -0.0551     3.9212     3.9212     0.0000
  3 H      0.9037     1.0000     0.0963     0.9608     0.9608    -0.0000
  4 H      0.9249     1.0000     0.0751     0.9643     0.9643    -0.0000
  5 H      0.9236     1.0000     0.0764     0.9609     0.9609     0.0000
  6 O      8.5682     8.0000    -0.5682     1.7856     1.7856     0.0000
  7 H      0.6499     1.0000     0.3501     0.8841     0.8841    -0.0000
  8 C      6.0942     6.0000    -0.0942     3.8496     3.8496    -0.0000
  9 H      0.8765     1.0000     0.1235     0.9683     0.9683    -0.0000
 10 H      0.8946     1.0000     0.1054     0.9636     0.9636     0.0000
 11 H      0.8841     1.0000     0.1159     0.9628     0.9628    -0.0000
 12 O      8.5441     8.0000    -0.5441     1.7956     1.7956    -0.0000
 13 H      0.6685     1.0000     0.3315     0.8973     0.8973    -0.0000
 14 C      6.0748     6.0000    -0.0748     3.9035     3.9035    -0.0000
 15 H      0.8931     1.0000     0.1069     0.9619     0.9619    -0.0000
 16 H      0.9090     1.0000     0.0910     0.9613     0.9613    -0.0000
 17 H      0.9104     1.0000     0.0896     0.9607     0.9607    -0.0000

  Mayer bond orders larger than 0.100000
B(  0-O ,  1-H ) :   0.8278 B(  0-O ,  2-C ) :   0.9511 B(  2-C ,  3-H ) :   0.9869 
B(  2-C ,  4-H ) :   0.9927 B(  2-C ,  5-H ) :   0.9866 B(  6-O ,  7-H ) :   0.8722 
B(  6-O ,  8-C ) :   0.8851 B(  8-C ,  9-H ) :   0.9843 B(  8-C , 10-H ) :   0.9823 
B(  8-C , 11-H ) :   0.9871 B( 12-O , 13-H ) :   0.8861 B( 12-O , 14-C ) :   0.9366 
B( 14-C , 15-H ) :   0.9833 B( 14-C , 16-H ) :   0.9875 B( 14-C , 17-H ) :   0.9876 


-------
TIMINGS
-------

Total SCF time: 0 days 0 hours 0 min 11 sec 

Total time                  ....      11.638 sec
Sum of individual times     ....      11.386 sec  ( 97.8%)

Fock matrix formation       ....      11.026 sec  ( 94.7%)
Diagonalization             ....       0.073 sec  (  0.6%)
Density matrix formation    ....       0.010 sec  (  0.1%)
Population analysis         ....       0.022 sec  (  0.2%)
Initial guess               ....       0.140 sec  (  1.2%)
Orbital Transformation      ....       0.000 sec  (  0.0%)
Orbital Orthonormalization  ....       0.000 sec  (  0.0%)
DIIS solution               ....       0.027 sec  (  0.2%)
SOSCF solution              ....       0.032 sec  (  0.3%)


           ************************************************************
           *        Program running with 6 parallel MPI-processes     *
           *              working on a common directory               *
           ************************************************************

------------------------------------------------------------------------------
                                ORCA  MP2 
------------------------------------------------------------------------------

Freezing NCore=12 chemical core electrons
MP2 will be done in the AO integral direct mode
The Q1-step will be done using symmetric double matrices
Dimension of the basis                    ...  258
Memory devoted for MP2                    ... 8000 MB   
Memory needed for all in one shot         ...  264 MB
Number of MOs that can be treated together...  120      
MP2 density construction                  ... relaxed
The MP2 gradient is requested => amplitudes will be stored on disk
Total number of MOs              ...   21
Number of MOs treated per batch  ...    4 
Number of batches necessary      ...    1 
OPERATORS   0/  0 PASS   0
-----------------------------------------------
 MP2 CORRELATION ENERGY   :     -1.256948906 Eh
-----------------------------------------------


---------------------
MP2 DENSITY FORMATION
---------------------

Completing the external part of the density      ... done
Storing the unrelaxed density                    ... done

Calculating G(D)                                 ... done
Completing the Lagrangian                        ... done
Solving the Z-vector equations                   ... 

------------------------------------------------------------------------------
                           ORCA CP-SCF CALCULATION
------------------------------------------------------------------------------

Input orbitals are from        ... 12meoh.boyd.etal.mol0,3,11-orca.engrad-mp2.def2tzvp.frozencore.gbw
Input Perturbation             ... 12meoh.boyd.etal.mol0,3,11-orca.engrad-mp2.def2tzvp.frozencore.pin.tmp
Wavefunction output            ... 12meoh.boyd.etal.mol0,3,11-orca.engrad-mp2.def2tzvp.frozencore.pout.tmp
Perturbation mode              ... Real perturbation (singlet)
Solver                         ... POPLE
Max. number of iterations      ... 128
Convergence tolerance          ... 1.000e-08
Integral handling              ... Direct
Number of perturbations        ... 1
Number of operators            ... 1
Orbital ranges used for CP-SCF:
 Operator 0:  Orbitals   0... 26  to  27...257
Variables per vector in CP-SCF ... 6237
Number of vectors sought       ... 1
     CP-SCF ITERATION   0: 
     CP-SCF ITERATION   1:      0.000355848479
     CP-SCF ITERATION   2:      0.000022501240
     CP-SCF ITERATION   3:      0.000003681565
     CP-SCF ITERATION   4:      0.000000171214
     CP-SCF ITERATION   5:      0.000000006203
                                                 ... done
Finalizing the relaxed density                   ... done
Transforming P to the AO basis                   ... done
Storing the relaxed density                      ... done

------------------------------------
ENERGY WEIGHTED DENSITY FINALIZATION
------------------------------------

Gathering the parts of the W-matrix              ...                                                      done
Forming the Z-density                            ... done
Transforming Z to the AO basis                   ... done
Calculating G(Z)                                 ... done
Finalizing the W-matrix                          ...                                                      done
Transforming W to the AO basis and storing       ... done

                *********************************************
                * UNRELAXED MP2 DENSITY POPULATION ANALYSIS *
                *********************************************

------------------------------------------------------------------------------
                           ORCA POPULATION ANALYSIS
------------------------------------------------------------------------------
Input electron density              ... 12meoh.boyd.etal.mol0,3,11-orca.engrad-mp2.def2tzvp.frozencore.pmp2ur
BaseName (.gbw .S,...)              ... 12meoh.boyd.etal.mol0,3,11-orca.engrad-mp2.def2tzvp.frozencore

                    ********************************
                    * MULLIKEN POPULATION ANALYSIS *
                    ********************************

-----------------------
MULLIKEN ATOMIC CHARGES
-----------------------
   0 O :   -0.582259
   1 H :    0.364538
   2 C :   -0.071508
   3 H :    0.099198
   4 H :    0.077623
   5 H :    0.078869
   6 O :   -0.556225
   7 H :    0.347335
   8 C :   -0.109775
   9 H :    0.126094
  10 H :    0.107844
  11 H :    0.118265
  12 O :   -0.533140
  13 H :    0.328848
  14 C :   -0.090782
  15 H :    0.109646
  16 H :    0.093362
  17 H :    0.092066
Sum of atomic charges:   -0.0000000

--------------------------------
MULLIKEN REDUCED ORBITAL CHARGES
--------------------------------
  0 O s       :     3.794693  s :     3.794693
      pz      :     1.643260  p :     4.723893
      px      :     1.619394
      py      :     1.461238
      dz2     :     0.008364  d :     0.059324
      dxz     :     0.014363
      dyz     :     0.010348
      dx2y2   :     0.013412
      dxy     :     0.012838
      f0      :     0.000651  f :     0.004349
      f+1     :     0.000495
      f-1     :     0.000590
      f+2     :     0.000832
      f-2     :     0.000695
      f+3     :     0.000545
      f-3     :     0.000541
  1 H s       :     0.576584  s :     0.576584
      pz      :     0.021733  p :     0.058878
      px      :     0.024334
      py      :     0.012811
  2 C s       :     3.177138  s :     3.177138
      pz      :     0.959327  p :     2.742631
      px      :     1.006628
      py      :     0.776676
      dz2     :     0.018695  d :     0.139288
      dxz     :     0.031295
      dyz     :     0.032206
      dx2y2   :     0.030206
      dxy     :     0.026886
      f0      :     0.000945  f :     0.012451
      f+1     :     0.000786
      f-1     :     0.002571
      f+2     :     0.002728
      f-2     :     0.002007
      f+3     :     0.001636
      f-3     :     0.001778
  3 H s       :     0.876840  s :     0.876840
      pz      :     0.008580  p :     0.023963
      px      :     0.010577
      py      :     0.004806
  4 H s       :     0.899084  s :     0.899084
      pz      :     0.007903  p :     0.023293
      px      :     0.011656
      py      :     0.003734
  5 H s       :     0.897897  s :     0.897897
      pz      :     0.008655  p :     0.023234
      px      :     0.004814
      py      :     0.009765
  6 O s       :     3.793862  s :     3.793862
      pz      :     1.383754  p :     4.697974
      px      :     1.731835
      py      :     1.582384
      dz2     :     0.015105  d :     0.060048
      dxz     :     0.010447
      dyz     :     0.013551
      dx2y2   :     0.008560
      dxy     :     0.012386
      f0      :     0.000770  f :     0.004341
      f+1     :     0.000725
      f-1     :     0.000581
      f+2     :     0.000464
      f-2     :     0.000643
      f+3     :     0.000716
      f-3     :     0.000441
  7 H s       :     0.609104  s :     0.609104
      pz      :     0.011471  p :     0.043561
      px      :     0.015796
      py      :     0.016294
  8 C s       :     3.198531  s :     3.198531
      pz      :     0.698062  p :     2.768279
      px      :     1.021185
      py      :     1.049032
      dz2     :     0.027528  d :     0.130681
      dxz     :     0.038456
      dyz     :     0.028438
      dx2y2   :     0.012679
      dxy     :     0.023580
      f0      :     0.002920  f :     0.012283
      f+1     :     0.002512
      f-1     :     0.002206
      f+2     :     0.001228
      f-2     :     0.001336
      f+3     :     0.001471
      f-3     :     0.000609
  9 H s       :     0.849530  s :     0.849530
      pz      :     0.005006  p :     0.024376
      px      :     0.008377
      py      :     0.010993
 10 H s       :     0.868539  s :     0.868539
      pz      :     0.007799  p :     0.023616
      px      :     0.011200
      py      :     0.004618
 11 H s       :     0.858233  s :     0.858233
      pz      :     0.003234  p :     0.023503
      px      :     0.007904
      py      :     0.012364
 12 O s       :     3.800012  s :     3.800012
      pz      :     1.499252  p :     4.668945
      px      :     1.668991
      py      :     1.500703
      dz2     :     0.011364  d :     0.059793
      dxz     :     0.015349
      dyz     :     0.009681
      dx2y2   :     0.011276
      dxy     :     0.012122
      f0      :     0.000618  f :     0.004390
      f+1     :     0.000738
      f-1     :     0.000591
      f+2     :     0.000698
      f-2     :     0.000680
      f+3     :     0.000643
      f-3     :     0.000423
 13 H s       :     0.626603  s :     0.626603
      pz      :     0.013556  p :     0.044549
      px      :     0.012842
      py      :     0.018151
 14 C s       :     3.191321  s :     3.191321
      pz      :     0.801164  p :     2.751338
      px      :     0.919876
      py      :     1.030298
      dz2     :     0.033773  d :     0.135876
      dxz     :     0.021016
      dyz     :     0.035409
      dx2y2   :     0.030652
      dxy     :     0.015026
      f0      :     0.002287  f :     0.012247
      f+1     :     0.002030
      f-1     :     0.001617
      f+2     :     0.002414
      f-2     :     0.001740
      f+3     :     0.001325
      f-3     :     0.000834
 15 H s       :     0.866124  s :     0.866124
      pz      :     0.005380  p :     0.024230
      px      :     0.005413
      py      :     0.013438
 16 H s       :     0.883428  s :     0.883428
      pz      :     0.004024  p :     0.023210
      px      :     0.014571
      py      :     0.004616
 17 H s       :     0.884615  s :     0.884615
      pz      :     0.010011  p :     0.023319
      px      :     0.004222
      py      :     0.009086


                     *******************************
                     * LOEWDIN POPULATION ANALYSIS *
                     *******************************

----------------------
LOEWDIN ATOMIC CHARGES
----------------------
   0 O :   -0.142095
   1 H :    0.164043
   2 C :   -0.361119
   3 H :    0.097081
   4 H :    0.084652
   5 H :    0.085268
   6 O :   -0.091747
   7 H :    0.197502
   8 C :   -0.338099
   9 H :    0.109434
  10 H :    0.097013
  11 H :    0.098068
  12 O :   -0.121274
  13 H :    0.188467
  14 C :   -0.347699
  15 H :    0.102473
  16 H :    0.089187
  17 H :    0.088847

-------------------------------
LOEWDIN REDUCED ORBITAL CHARGES
-------------------------------
  0 O s       :     3.382249  s :     3.382249
      pz      :     1.579905  p :     4.658435
      px      :     1.587731
      py      :     1.490799
      dz2     :     0.012620  d :     0.094519
      dxz     :     0.020201
      dyz     :     0.020064
      dx2y2   :     0.020322
      dxy     :     0.021311
      f0      :     0.000854  f :     0.006891
      f+1     :     0.000595
      f-1     :     0.001016
      f+2     :     0.001329
      f-2     :     0.001013
      f+3     :     0.001031
      f-3     :     0.001052
  1 H s       :     0.646199  s :     0.646199
      pz      :     0.066923  p :     0.189758
      px      :     0.087175
      py      :     0.035661
  2 C s       :     2.859433  s :     2.859433
      pz      :     1.023187  p :     2.983556
      px      :     1.064249
      py      :     0.896119
      dz2     :     0.047535  d :     0.454976
      dxz     :     0.098784
      dyz     :     0.117308
      dx2y2   :     0.108157
      dxy     :     0.083192
      f0      :     0.006625  f :     0.063155
      f+1     :     0.002977
      f-1     :     0.014876
      f+2     :     0.008865
      f-2     :     0.008377
      f+3     :     0.010817
      f-3     :     0.010618
  3 H s       :     0.839817  s :     0.839817
      pz      :     0.022397  p :     0.063102
      px      :     0.028366
      py      :     0.012339
  4 H s       :     0.852093  s :     0.852093
      pz      :     0.021501  p :     0.063255
      px      :     0.031308
      py      :     0.010446
  5 H s       :     0.851555  s :     0.851555
      pz      :     0.023775  p :     0.063178
      px      :     0.013865
      py      :     0.025538
  6 O s       :     3.382089  s :     3.382089
      pz      :     1.416746  p :     4.604051
      px      :     1.634404
      py      :     1.552901
      dz2     :     0.026036  d :     0.098466
      dxz     :     0.021278
      dyz     :     0.025168
      dx2y2   :     0.009092
      dxy     :     0.016891
      f0      :     0.001523  f :     0.007141
      f+1     :     0.001324
      f-1     :     0.001268
      f+2     :     0.000724
      f-2     :     0.000927
      f+3     :     0.000957
      f-3     :     0.000417
  7 H s       :     0.654122  s :     0.654122
      pz      :     0.031280  p :     0.148375
      px      :     0.050960
      py      :     0.066136
  8 C s       :     2.860474  s :     2.860474
      pz      :     0.831390  p :     2.978248
      px      :     1.063700
      py      :     1.083158
      dz2     :     0.122442  d :     0.437107
      dxz     :     0.128197
      dyz     :     0.090787
      dx2y2   :     0.026379
      dxy     :     0.069302
      f0      :     0.017788  f :     0.062271
      f+1     :     0.012083
      f-1     :     0.014822
      f+2     :     0.007416
      f-2     :     0.005215
      f+3     :     0.003741
      f-3     :     0.001206
  9 H s       :     0.826160  s :     0.826160
      pz      :     0.012353  p :     0.064405
      px      :     0.022346
      py      :     0.029706
 10 H s       :     0.838932  s :     0.838932
      pz      :     0.020085  p :     0.064055
      px      :     0.030469
      py      :     0.013502
 11 H s       :     0.837305  s :     0.837305
      pz      :     0.009072  p :     0.064627
      px      :     0.022058
      py      :     0.033496
 12 O s       :     3.391094  s :     3.391094
      pz      :     1.502762  p :     4.626016
      px      :     1.653092
      py      :     1.470162
      dz2     :     0.020003  d :     0.097148
      dxz     :     0.023982
      dyz     :     0.020458
      dx2y2   :     0.017190
      dxy     :     0.015515
      f0      :     0.001181  f :     0.007016
      f+1     :     0.001231
      f-1     :     0.000856
      f+2     :     0.001005
      f-2     :     0.001197
      f+3     :     0.001037
      f-3     :     0.000509
 13 H s       :     0.663627  s :     0.663627
      pz      :     0.036402  p :     0.147906
      px      :     0.042744
      py      :     0.068760
 14 C s       :     2.861031  s :     2.861031
      pz      :     0.908578  p :     2.979292
      px      :     1.003877
      py      :     1.066837
      dz2     :     0.114069  d :     0.445067
      dxz     :     0.088857
      dyz     :     0.108649
      dx2y2   :     0.094648
      dxy     :     0.038845
      f0      :     0.013965  f :     0.062308
      f+1     :     0.013138
      f-1     :     0.006635
      f+2     :     0.009905
      f-2     :     0.010053
      f+3     :     0.005025
      f-3     :     0.003588
 15 H s       :     0.833785  s :     0.833785
      pz      :     0.013650  p :     0.063742
      px      :     0.015139
      py      :     0.034953
 16 H s       :     0.847099  s :     0.847099
      pz      :     0.011434  p :     0.063714
      px      :     0.038568
      py      :     0.013711
 17 H s       :     0.847477  s :     0.847477
      pz      :     0.026419  p :     0.063676
      px      :     0.012052
      py      :     0.025206


                      *****************************
                      * MAYER POPULATION ANALYSIS *
                      *****************************

  NA   - Mulliken gross atomic population
  ZA   - Total nuclear charge
  QA   - Mulliken gross atomic charge
  VA   - Mayer's total valence
  BVA  - Mayer's bonded valence
  FA   - Mayer's free valence

  ATOM       NA         ZA         QA         VA         BVA        FA
  0 O      8.5823     8.0000    -0.5823     2.0409     1.6315     0.4094
  1 H      0.6355     1.0000     0.3645     0.9131     0.8629     0.0502
  2 C      6.0715     6.0000    -0.0715     4.0248     3.7439     0.2810
  3 H      0.9008     1.0000     0.0992     0.9702     0.9223     0.0479
  4 H      0.9224     1.0000     0.0776     0.9748     0.9245     0.0502
  5 H      0.9211     1.0000     0.0789     0.9713     0.9211     0.0503
  6 O      8.5562     8.0000    -0.5562     2.0888     1.6807     0.4081
  7 H      0.6527     1.0000     0.3473     0.8903     0.8388     0.0515
  8 C      6.1098     6.0000    -0.1098     3.9575     3.6792     0.2783
  9 H      0.8739     1.0000     0.1261     0.9767     0.9304     0.0463
 10 H      0.8922     1.0000     0.1078     0.9729     0.9246     0.0483
 11 H      0.8817     1.0000     0.1183     0.9718     0.9241     0.0477
 12 O      8.5331     8.0000    -0.5331     2.0939     1.6896     0.4043
 13 H      0.6712     1.0000     0.3288     0.9038     0.8511     0.0526
 14 C      6.0908     6.0000    -0.0908     4.0081     3.7297     0.2785
 15 H      0.8904     1.0000     0.1096     0.9709     0.9239     0.0470
 16 H      0.9066     1.0000     0.0934     0.9712     0.9221     0.0492
 17 H      0.9079     1.0000     0.0921     0.9707     0.9215     0.0493

  Mayer bond orders larger than 0.100000
B(  0-O ,  1-H ) :   0.7883 B(  0-O ,  2-C ) :   0.8901 B(  2-C ,  3-H ) :   0.9489 
B(  2-C ,  4-H ) :   0.9539 B(  2-C ,  5-H ) :   0.9478 B(  6-O ,  7-H ) :   0.8279 
B(  6-O ,  8-C ) :   0.8284 B(  8-C ,  9-H ) :   0.9471 B(  8-C , 10-H ) :   0.9444 
B(  8-C , 11-H ) :   0.9494 B( 12-O , 13-H ) :   0.8409 B( 12-O , 14-C ) :   0.8774 
B( 14-C , 15-H ) :   0.9459 B( 14-C , 16-H ) :   0.9493 B( 14-C , 17-H ) :   0.9493 



                *******************************************
                * RELAXED MP2 DENSITY POPULATION ANALYSIS *
                *******************************************

------------------------------------------------------------------------------
                           ORCA POPULATION ANALYSIS
------------------------------------------------------------------------------
Input electron density              ... 12meoh.boyd.etal.mol0,3,11-orca.engrad-mp2.def2tzvp.frozencore.pmp2re
BaseName (.gbw .S,...)              ... 12meoh.boyd.etal.mol0,3,11-orca.engrad-mp2.def2tzvp.frozencore

                    ********************************
                    * MULLIKEN POPULATION ANALYSIS *
                    ********************************

-----------------------
MULLIKEN ATOMIC CHARGES
-----------------------
   0 O :   -0.535694
   1 H :    0.340380
   2 C :   -0.155084
   3 H :    0.118252
   4 H :    0.094291
   5 H :    0.095236
   6 O :   -0.513458
   7 H :    0.342129
   8 C :   -0.189019
   9 H :    0.144164
  10 H :    0.124463
  11 H :    0.134340
  12 O :   -0.495842
  13 H :    0.323505
  14 C :   -0.172830
  15 H :    0.127731
  16 H :    0.109280
  17 H :    0.108157
Sum of atomic charges:   -0.0000000

--------------------------------
MULLIKEN REDUCED ORBITAL CHARGES
--------------------------------
  0 O s       :     3.790486  s :     3.790486
      pz      :     1.630680  p :     4.683368
      px      :     1.604634
      py      :     1.448053
      dz2     :     0.008431  d :     0.057540
      dxz     :     0.013764
      dyz     :     0.010059
      dx2y2   :     0.012755
      dxy     :     0.012531
      f0      :     0.000637  f :     0.004300
      f+1     :     0.000492
      f-1     :     0.000599
      f+2     :     0.000814
      f-2     :     0.000686
      f+3     :     0.000534
      f-3     :     0.000539
  1 H s       :     0.600669  s :     0.600669
      pz      :     0.021766  p :     0.058951
      px      :     0.023834
      py      :     0.013351
  2 C s       :     3.197885  s :     3.197885
      pz      :     0.985777  p :     2.814436
      px      :     1.034413
      py      :     0.794246
      dz2     :     0.020708  d :     0.130842
      dxz     :     0.026986
      dyz     :     0.028139
      dx2y2   :     0.026965
      dxy     :     0.028043
      f0      :     0.000903  f :     0.011922
      f+1     :     0.000762
      f-1     :     0.002458
      f+2     :     0.002553
      f-2     :     0.001946
      f+3     :     0.001605
      f-3     :     0.001695
  3 H s       :     0.858891  s :     0.858891
      pz      :     0.008170  p :     0.022857
      px      :     0.009820
      py      :     0.004867
  4 H s       :     0.883465  s :     0.883465
      pz      :     0.007556  p :     0.022244
      px      :     0.010706
      py      :     0.003983
  5 H s       :     0.882577  s :     0.882577
      pz      :     0.008131  p :     0.022187
      px      :     0.005014
      py      :     0.009042
  6 O s       :     3.798043  s :     3.798043
      pz      :     1.368372  p :     4.652825
      px      :     1.718697
      py      :     1.565757
      dz2     :     0.013955  d :     0.058303
      dxz     :     0.010662
      dyz     :     0.013324
      dx2y2   :     0.008553
      dxy     :     0.011809
      f0      :     0.000752  f :     0.004287
      f+1     :     0.000718
      f-1     :     0.000574
      f+2     :     0.000466
      f-2     :     0.000635
      f+3     :     0.000700
      f-3     :     0.000442
  7 H s       :     0.613779  s :     0.613779
      pz      :     0.011774  p :     0.044092
      px      :     0.016308
      py      :     0.016010
  8 C s       :     3.220290  s :     3.220290
      pz      :     0.715070  p :     2.836931
      px      :     1.046444
      py      :     1.075417
      dz2     :     0.024023  d :     0.120104
      dxz     :     0.035570
      dyz     :     0.029780
      dx2y2   :     0.011506
      dxy     :     0.019225
      f0      :     0.002722  f :     0.011694
      f+1     :     0.002418
      f-1     :     0.002133
      f+2     :     0.001135
      f-2     :     0.001314
      f+3     :     0.001372
      f-3     :     0.000601
  9 H s       :     0.832636  s :     0.832636
      pz      :     0.004971  p :     0.023200
      px      :     0.008037
      py      :     0.010192
 10 H s       :     0.853042  s :     0.853042
      pz      :     0.007329  p :     0.022495
      px      :     0.010314
      py      :     0.004852
 11 H s       :     0.843314  s :     0.843314
      pz      :     0.003475  p :     0.022346
      px      :     0.007564
      py      :     0.011307
 12 O s       :     3.801679  s :     3.801679
      pz      :     1.490694  p :     4.632173
      px      :     1.654204
      py      :     1.487274
      dz2     :     0.011093  d :     0.057656
      dxz     :     0.014281
      dyz     :     0.009672
      dx2y2   :     0.011041
      dxy     :     0.011569
      f0      :     0.000619  f :     0.004334
      f+1     :     0.000714
      f-1     :     0.000591
      f+2     :     0.000689
      f-2     :     0.000671
      f+3     :     0.000630
      f-3     :     0.000422
 13 H s       :     0.631377  s :     0.631377
      pz      :     0.013947  p :     0.045118
      px      :     0.013526
      py      :     0.017645
 14 C s       :     3.213308  s :     3.213308
      pz      :     0.820805  p :     2.821491
      px      :     0.944515
      py      :     1.056172
      dz2     :     0.033101  d :     0.126342
      dxz     :     0.020498
      dyz     :     0.031279
      dx2y2   :     0.026683
      dxy     :     0.014780
      f0      :     0.002157  f :     0.011689
      f+1     :     0.001970
      f-1     :     0.001528
      f+2     :     0.002335
      f-2     :     0.001644
      f+3     :     0.001251
      f-3     :     0.000805
 15 H s       :     0.849195  s :     0.849195
      pz      :     0.005370  p :     0.023074
      px      :     0.005430
      py      :     0.012274
 16 H s       :     0.868619  s :     0.868619
      pz      :     0.004210  p :     0.022101
      px      :     0.013077
      py      :     0.004813
 17 H s       :     0.869621  s :     0.869621
      pz      :     0.009227  p :     0.022222
      px      :     0.004473
      py      :     0.008523


                     *******************************
                     * LOEWDIN POPULATION ANALYSIS *
                     *******************************

----------------------
LOEWDIN ATOMIC CHARGES
----------------------
   0 O :   -0.126905
   1 H :    0.157609
   2 C :   -0.396474
   3 H :    0.104612
   4 H :    0.090744
   5 H :    0.091282
   6 O :   -0.073432
   7 H :    0.200073
   8 C :   -0.372249
   9 H :    0.116774
  10 H :    0.103675
  11 H :    0.104292
  12 O :   -0.108298
  13 H :    0.191087
  14 C :   -0.382622
  15 H :    0.109707
  16 H :    0.095278
  17 H :    0.094849

-------------------------------
LOEWDIN REDUCED ORBITAL CHARGES
-------------------------------
  0 O s       :     3.384518  s :     3.384518
      pz      :     1.574270  p :     4.640831
      px      :     1.580860
      py      :     1.485702
      dz2     :     0.012911  d :     0.094541
      dxz     :     0.020130
      dyz     :     0.019967
      dx2y2   :     0.020137
      dxy     :     0.021395
      f0      :     0.000864  f :     0.007015
      f+1     :     0.000603
      f-1     :     0.001041
      f+2     :     0.001357
      f-2     :     0.001032
      f+3     :     0.001041
      f-3     :     0.001076
  1 H s       :     0.652082  s :     0.652082
      pz      :     0.067069  p :     0.190309
      px      :     0.087056
      py      :     0.036184
  2 C s       :     2.865431  s :     2.865431
      pz      :     1.037949  p :     3.023248
      px      :     1.079568
      py      :     0.905731
      dz2     :     0.048227  d :     0.446195
      dxz     :     0.095720
      dyz     :     0.113133
      dx2y2   :     0.106048
      dxy     :     0.083067
      f0      :     0.006606  f :     0.061600
      f+1     :     0.002896
      f-1     :     0.014461
      f+2     :     0.008569
      f-2     :     0.008086
      f+3     :     0.010692
      f-3     :     0.010291
  3 H s       :     0.831787  s :     0.831787
      pz      :     0.022569  p :     0.063601
      px      :     0.028262
      py      :     0.012770
  4 H s       :     0.845136  s :     0.845136
      pz      :     0.021824  p :     0.064120
      px      :     0.031305
      py      :     0.010991
  5 H s       :     0.844702  s :     0.844702
      pz      :     0.023830  p :     0.064016
      px      :     0.014337
      py      :     0.025849
  6 O s       :     3.385048  s :     3.385048
      pz      :     1.409788  p :     4.582473
      px      :     1.624861
      py      :     1.547824
      dz2     :     0.025642  d :     0.098653
      dxz     :     0.021827
      dyz     :     0.025334
      dx2y2   :     0.009233
      dxy     :     0.016618
      f0      :     0.001566  f :     0.007258
      f+1     :     0.001349
      f-1     :     0.001287
      f+2     :     0.000737
      f-2     :     0.000937
      f+3     :     0.000962
      f-3     :     0.000419
  7 H s       :     0.651127  s :     0.651127
      pz      :     0.031164  p :     0.148800
      px      :     0.051383
      py      :     0.066253
  8 C s       :     2.866566  s :     2.866566
      pz      :     0.841360  p :     3.018560
      px      :     1.079067
      py      :     1.098133
      dz2     :     0.119208  d :     0.426454
      dxz     :     0.125885
      dyz     :     0.090963
      dx2y2   :     0.024512
      dxy     :     0.065887
      f0      :     0.017288  f :     0.060669
      f+1     :     0.011664
      f-1     :     0.014631
      f+2     :     0.007290
      f-2     :     0.004986
      f+3     :     0.003624
      f-3     :     0.001187
  9 H s       :     0.818448  s :     0.818448
      pz      :     0.012716  p :     0.064778
      px      :     0.022518
      py      :     0.029544
 10 H s       :     0.831545  s :     0.831545
      pz      :     0.020474  p :     0.064780
      px      :     0.030321
      py      :     0.013985
 11 H s       :     0.830419  s :     0.830419
      pz      :     0.009711  p :     0.065289
      px      :     0.022262
      py      :     0.033316
 12 O s       :     3.394052  s :     3.394052
      pz      :     1.498230  p :     4.610510
      px      :     1.643481
      py      :     1.468799
      dz2     :     0.020133  d :     0.096610
      dxz     :     0.023495
      dyz     :     0.020502
      dx2y2   :     0.017062
      dxy     :     0.015418
      f0      :     0.001207  f :     0.007127
      f+1     :     0.001251
      f-1     :     0.000867
      f+2     :     0.001025
      f-2     :     0.001222
      f+3     :     0.001041
      f-3     :     0.000513
 13 H s       :     0.660407  s :     0.660407
      pz      :     0.036506  p :     0.148506
      px      :     0.043576
      py      :     0.068424
 14 C s       :     2.866945  s :     2.866945
      pz      :     0.919934  p :     3.019192
      px      :     1.017551
      py      :     1.081707
      dz2     :     0.114579  d :     0.435705
      dxz     :     0.086680
      dyz     :     0.104807
      dx2y2   :     0.091587
      dxy     :     0.038053
      f0      :     0.013549  f :     0.060780
      f+1     :     0.012944
      f-1     :     0.006434
      f+2     :     0.009647
      f-2     :     0.009804
      f+3     :     0.004917
      f-3     :     0.003484
 15 H s       :     0.826195  s :     0.826195
      pz      :     0.014014  p :     0.064099
      px      :     0.015469
      py      :     0.034615
 16 H s       :     0.840264  s :     0.840264
      pz      :     0.011938  p :     0.064458
      px      :     0.038330
      py      :     0.014189
 17 H s       :     0.840718  s :     0.840718
      pz      :     0.026637  p :     0.064433
      px      :     0.012544
      py      :     0.025252


                      *****************************
                      * MAYER POPULATION ANALYSIS *
                      *****************************

  NA   - Mulliken gross atomic population
  ZA   - Total nuclear charge
  QA   - Mulliken gross atomic charge
  VA   - Mayer's total valence
  BVA  - Mayer's bonded valence
  FA   - Mayer's free valence

  ATOM       NA         ZA         QA         VA         BVA        FA
  0 O      8.5357     8.0000    -0.5357     2.1033     1.7007     0.4027
  1 H      0.6596     1.0000     0.3404     0.9450     0.8957     0.0493
  2 C      6.1551     6.0000    -0.1551     4.0450     3.7662     0.2788
  3 H      0.8817     1.0000     0.1183     0.9618     0.9144     0.0473
  4 H      0.9057     1.0000     0.0943     0.9678     0.9182     0.0496
  5 H      0.9048     1.0000     0.0952     0.9635     0.9139     0.0496
  6 O      8.5135     8.0000    -0.5135     2.1622     1.7617     0.4005
  7 H      0.6579     1.0000     0.3421     0.8934     0.8417     0.0516
  8 C      6.1890     6.0000    -0.1890     3.9696     3.6936     0.2761
  9 H      0.8558     1.0000     0.1442     0.9697     0.9240     0.0457
 10 H      0.8755     1.0000     0.1245     0.9664     0.9187     0.0476
 11 H      0.8657     1.0000     0.1343     0.9647     0.9176     0.0471
 12 O      8.4958     8.0000    -0.4958     2.1482     1.7504     0.3978
 13 H      0.6765     1.0000     0.3235     0.9062     0.8535     0.0527
 14 C      6.1728     6.0000    -0.1728     4.0298     3.7536     0.2762
 15 H      0.8723     1.0000     0.1277     0.9624     0.9160     0.0464
 16 H      0.8907     1.0000     0.1093     0.9643     0.9157     0.0486
 17 H      0.8918     1.0000     0.1082     0.9631     0.9145     0.0486

  Mayer bond orders larger than 0.100000
B(  0-O ,  1-H ) :   0.7889 B(  0-O ,  2-C ) :   0.9423 B(  1-H ,  6-O ) :   0.1012 
B(  2-C ,  3-H ) :   0.9410 B(  2-C ,  4-H ) :   0.9436 B(  2-C ,  5-H ) :   0.9360 
B(  6-O ,  7-H ) :   0.8277 B(  6-O ,  8-C ) :   0.8673 B(  8-C ,  9-H ) :   0.9386 
B(  8-C , 10-H ) :   0.9337 B(  8-C , 11-H ) :   0.9390 B( 12-O , 13-H ) :   0.8411 
B( 12-O , 14-C ) :   0.9291 B( 14-C , 15-H ) :   0.9378 B( 14-C , 16-H ) :   0.9389 
B( 14-C , 17-H ) :   0.9387 


----------------------------------
MP2 DERIVATIVE INTEGRAL GENERATION
----------------------------------


Input Wavefunction Amplitudes       ... 12meoh.boyd.etal.mol0,3,11-orca.engrad-mp2.def2tzvp.frozencore.mp2tsaa.tmp
Input Correlated Electron Density   ... 12meoh.boyd.etal.mol0,3,11-orca.engrad-mp2.def2tzvp.frozencore.pmp2re
Input Energy Weighted Density       ... 12meoh.boyd.etal.mol0,3,11-orca.engrad-mp2.def2tzvp.frozencore.wmp2.tmp
Input SCF Electron Density          ... 12meoh.boyd.etal.mol0,3,11-orca.engrad-mp2.def2tzvp.frozencore.scfp

One-Electron Terms    ...
                        ... One-Electron Terms done
Prescreening matrices              ... done

Batch handling in the gradient evaluation:
Memory available                      ... 8000.0 MB
Memory per occupied orbital in Q2     ...   10.7 MB
Memory per occupied orbital in Q3     ...    0.1 MB
Total memory requirement per |i>      ...   10.8 MB
Max. Number of orbitals possible      ...    743
Number of orbitals treated per batch  ...     21
Number of batches to be done          ...      1
Batch   0: i=    6 ...    26

---------------------------------------
MP2 TOTAL ENERGY:     -346.529259099 Eh
---------------------------------------

The final MP2 gradient
  0:   0.00915572  -0.00112014  -0.00690076
  1:  -0.01489128   0.00903675   0.01383049
  2:   0.00067169  -0.00446765  -0.00251493
  3:   0.00232682  -0.00125568  -0.00224649
  4:  -0.00164148   0.00193059  -0.00046692
  5:  -0.00061943  -0.00177198   0.00209612
  6:   0.01851981  -0.02331038   0.00718725
  7:  -0.01337702   0.02129516  -0.00865003
  8:  -0.00059911  -0.00125911  -0.01038524
  9:   0.00215348  -0.00302945   0.00381111
 10:  -0.00339567   0.00023363   0.00305959
 11:   0.00160142   0.00378870   0.00123311
 12:  -0.00978956   0.01939775   0.00951860
 13:   0.00955242  -0.02356204  -0.01216889
 14:  -0.00209666   0.00376787  -0.00109309
 15:  -0.00016303   0.00331007   0.00291324
 16:   0.00338601  -0.00032089  -0.00084319
 17:  -0.00079413  -0.00266318   0.00162003

-----------------------------------
NORM OF THE MP2 GRADIENT:  0.062631
-----------------------------------

-------------------------   --------------------
FINAL SINGLE POINT ENERGY      -346.529259099015
-------------------------   --------------------


                            ***************************************
                            *     ORCA property calculations      *
                            ***************************************

                                    ---------------------
                                    Active property flags
                                    ---------------------
   (+) Dipole Moment


------------------------------------------------------------------------------
                       ORCA ELECTRIC PROPERTIES CALCULATION
------------------------------------------------------------------------------

Dipole Moment Calculation                       ... on
Quadrupole Moment Calculation                   ... off
Polarizability Calculation                      ... off
GBWName                                         ... 12meoh.boyd.etal.mol0,3,11-orca.engrad-mp2.def2tzvp.frozencore.gbw
Electron density file                           ... 12meoh.boyd.etal.mol0,3,11-orca.engrad-mp2.def2tzvp.frozencore.scfp
The origin for moment calculation is the CENTER OF MASS  = (-1.255264, -2.856710  1.475461)

-------------
DIPOLE MOMENT
-------------
                                X             Y             Z
Electronic contribution:     -1.02629       0.86146      -1.98959
Nuclear contribution   :      0.58622      -0.76784       3.02202
                        -----------------------------------------
Total Dipole Moment    :     -0.44007       0.09363       1.03243
                        -----------------------------------------
Magnitude (a.u.)       :      1.12620
Magnitude (Debye)      :      2.86258



--------------------
Rotational spectrum 
--------------------
 
Rotational constants in cm-1:     0.078104     0.012843     0.011228 
Rotational constants in MHz :  2341.507706   385.030840   336.602252 

 Dipole components along the rotational axes: 
x,y,z [a.u.] :     0.020315     1.051930    -0.401702 
x,y,z [Debye]:     0.051635     2.673793    -1.021045 

 

                         *** MP2 UNRELAXED DENSITY ***

------------------------------------------------------------------------------
                       ORCA ELECTRIC PROPERTIES CALCULATION
------------------------------------------------------------------------------

Dipole Moment Calculation                       ... on
Quadrupole Moment Calculation                   ... off
Polarizability Calculation                      ... off
GBWName                                         ... 12meoh.boyd.etal.mol0,3,11-orca.engrad-mp2.def2tzvp.frozencore.gbw
Electron density file                           ... 12meoh.boyd.etal.mol0,3,11-orca.engrad-mp2.def2tzvp.frozencore.pmp2ur
The origin for moment calculation is the CENTER OF MASS  = (-1.255264, -2.856710  1.475461)

-------------
DIPOLE MOMENT
-------------
                                X             Y             Z
Electronic contribution:     -1.02747       0.86621      -2.00455
Nuclear contribution   :      0.58622      -0.76784       3.02202
                        -----------------------------------------
Total Dipole Moment    :     -0.44125       0.09837       1.01747
                        -----------------------------------------
Magnitude (a.u.)       :      1.11339
Magnitude (Debye)      :      2.83000



--------------------
Rotational spectrum 
--------------------
 
Rotational constants in cm-1:     0.078104     0.012843     0.011228 
Rotational constants in MHz :  2341.507706   385.030840   336.602252 

 Dipole components along the rotational axes: 
x,y,z [a.u.] :     0.016438     1.042952    -0.389373 
x,y,z [Debye]:     0.041782     2.650973    -0.989707 

 

                           *** MP2 RELAXED DENSITY ***

------------------------------------------------------------------------------
                       ORCA ELECTRIC PROPERTIES CALCULATION
------------------------------------------------------------------------------

Dipole Moment Calculation                       ... on
Quadrupole Moment Calculation                   ... off
Polarizability Calculation                      ... off
GBWName                                         ... 12meoh.boyd.etal.mol0,3,11-orca.engrad-mp2.def2tzvp.frozencore.gbw
Electron density file                           ... 12meoh.boyd.etal.mol0,3,11-orca.engrad-mp2.def2tzvp.frozencore.pmp2re
The origin for moment calculation is the CENTER OF MASS  = (-1.255264, -2.856710  1.475461)

-------------
DIPOLE MOMENT
-------------
                                X             Y             Z
Electronic contribution:     -1.03720       0.87125      -2.02379
Nuclear contribution   :      0.58622      -0.76784       3.02202
                        -----------------------------------------
Total Dipole Moment    :     -0.45098       0.10341       0.99823
                        -----------------------------------------
Magnitude (a.u.)       :      1.10024
Magnitude (Debye)      :      2.79659



--------------------
Rotational spectrum 
--------------------
 
Rotational constants in cm-1:     0.078104     0.012843     0.011228 
Rotational constants in MHz :  2341.507706   385.030840   336.602252 

 Dipole components along the rotational axes: 
x,y,z [a.u.] :     0.004162     1.035202    -0.372656 
x,y,z [Debye]:     0.010578     2.631275    -0.947216 

 

Timings for individual modules:

Sum of individual times         ...       53.924 sec (=   0.899 min)
GTO integral calculation        ...        0.919 sec (=   0.015 min)   1.7 %
SCF iterations                  ...       12.280 sec (=   0.205 min)  22.8 %
MP2 module                      ...       40.725 sec (=   0.679 min)  75.5 %
                             ****ORCA TERMINATED NORMALLY****
TOTAL RUN TIME: 0 days 0 hours 0 minutes 54 seconds 797 msec
