783
 energy: -1227.821124406373 gnorm: 0.001890524302 xtb: 6.4.1 (afa7bdf)
O         1.02949427274789   -4.93036759409171   -1.36501742230950
H         1.53753482450056   -4.48291984279303   -0.66649646496271
H         1.47502447750891   -4.70510387756248   -2.19241510018389
O        -3.23825844563926    3.85792390831831    2.25555335392938
H        -3.79123028918779    4.02299806479547    3.02613022362619
H        -3.54136251530379    4.45938245635626    1.55302027096076
O         6.12355014975538    6.49074511398809   -3.87611617802944
H         5.89082239422871    7.38129859551588   -3.58705832809542
H         5.27035803030263    6.02765149582242   -4.00567769044859
O        -4.27408202836408   -6.86575375842143    4.79836627516865
H        -5.11994313655034   -7.33326837824654    4.65243699871978
H        -4.28583630990795   -6.68334800366111    5.75929983482074
O         6.87613501570923   -1.66040256285706    9.04950235892411
H         6.80473339506134   -2.58661871447680    8.78842763598452
H         6.65713110878483   -1.15319925142280    8.24588491052617
O        -6.11086849911481   -4.87758719140877   -6.36806644996828
H        -6.29129393567920   -4.51088323607140   -5.48879351398371
H        -5.63997396684429   -4.18735671890409   -6.85559981987906
O        -8.93573879702882   -3.00531015899699    2.57511184527717
H        -8.93872004448642   -2.04984727382584    2.35445822338989
H        -9.71348699074814   -3.15118558708984    3.11396108111274
O         5.90279966760508   -3.92179262415332    7.78443774233184
H         5.00188646526038   -3.58552814244753    7.88268376847064
H         5.82981461551146   -4.76709817868302    7.32490690189106
O        -9.12924896145529   -6.94166410168070    0.61401602036843
H        -8.73268368435199   -7.17614762966602   -0.25476515377503
H        -9.95507233873168   -7.41887487606829    0.68282703796385
O         0.64772575401355    9.00375151857607   -3.99843691745905
H         1.32185795130521    8.41713813549306   -3.62716555723277
H         0.45178621841848    8.68243793078573   -4.88591752222920
O         2.75633370227790    4.55837417898828    1.04324311427646
H         2.92496979580170    3.66249072329756    1.36153057249276
H         2.89317421481638    5.14257835199470    1.81476093472194
O        -6.27531880034982   -6.02667000254920    0.16318385649578
H        -6.66545539220561   -5.80309289937214    1.03171491308163
H        -5.64831748584867   -5.31010074962160   -0.03012614382311
O         3.11411855846655    6.06177644036328    3.30837095483456
H         3.76556104490986    6.76075827756976    3.11148418475331
H         3.62591803875828    5.32002350875918    3.68215578286363
O         4.89885535482857    7.34921601429314    0.41768057860974
H         3.91636789627191    7.28599353169043    0.28421694213702
H         5.00796914813035    7.84101547498353    1.24285229168009
O         2.04181865309465    2.58279948395649    9.69604915967234
H         1.74810916267934    3.48593508423079    9.89705760420940
H         2.30482124755831    2.61915321191448    8.74296829442377
O        -0.83812324125724   -8.99134294054415   -5.81433230220095
H        -0.19932420881288   -9.15874369269335   -6.52302184699201
H        -0.28317321679228   -8.77512207521541   -5.04308878599167
O         8.90157622919091    0.06117530663456    0.18528699762375
H         7.98358492463221   -0.12036957471064   -0.10026852733733
H         8.99530344505703   -0.36793147123345    1.05102244703527
O        -8.85139964015010    4.41716724549997   -2.94555915790807
H        -8.19348934072447    4.37725755521260   -3.67864264051132
H        -9.67610205402446    4.68815708964150   -3.34847541498549
O        -1.95076780499491    1.60067679661146   -2.97673337527885
H        -2.17811608791007    2.06951628523974   -2.15421891005316
H        -1.24501410410791    0.98003881055161   -2.75309155299599
O        -4.41455628764852    3.93957745648189   -4.68494858573092
H        -3.76557124043685    3.45101739821928   -5.23332775723633
H        -3.87657233609582    4.16640830365831   -3.87881304592871
O        -0.17366239731304    8.41117517525207    5.79597835778712
H        -0.79463813325564    8.80053688115577    5.15349522527923
H        -0.71994599051896    7.95362019757099    6.45373773022696
O        -4.07289658131378   -7.28759182495458   -0.94143354318992
H        -4.09542773711857   -6.78339455015757   -1.76811758580205
H        -4.90161445629006   -7.08858917574071   -0.47863686849279
O         5.30953639039385    2.23951831630513    7.59017753782290
H         4.38181783840397    2.44181680977127    7.37999845876067
H         5.84180869846219    2.68469722608745    6.90978476088931
O        -1.75159562831226   -4.29150160035495   -1.75335517643332
H        -2.37109552051327   -3.62981873662432   -2.12709426066300
H        -1.35911542144839   -4.72345529225999   -2.51548206883951
O        -0.10378982420082    4.88550535116164    6.35086898983155
H        -0.58622035972703    5.66890418002128    6.66245330689289
H         0.80994721081588    4.99038884288980    6.65971165934110
O         3.87314874562826    2.04683983786092    2.02324162229551
H         4.11995744681490    2.64800149713074    2.75439151155021
H         4.33961353196865    1.20804362134232    2.19380792567392
O         7.75307596049787    3.33651228678371   -2.04953794131511
H         7.29788811926831    4.17124253618884   -1.76950329646061
H         8.22055179905694    3.03682918934745   -1.25190359477130
O         2.97296755469555    5.26978222951699   -7.90395181791970
H         2.10823292322489    4.88577780408998   -8.09556320248464
H         3.60596723581328    4.53899306513818   -7.92421209832132
O        -7.18682588093111    3.17965407587414    0.54907396889474
H        -7.67892071472933    2.68813371233447   -0.15233661096613
H        -6.28947432653936    3.26727192994721    0.14119961260798
O         6.33160627617430   -4.39579513072731    0.44039768452028
H         6.92535789218155   -4.79251477164873    1.11422384815371
H         5.45549571517949   -4.40738034388411    0.87979917575002
O        -2.12924817553668   -6.66033677216444   -6.40028686020182
H        -3.07885811661003   -6.78566301253966   -6.12269876450648
H        -1.71259150260485   -7.52556408000274   -6.20299699814031
O         0.69682686151635    0.28810269932868    9.65922765066674
H         1.17078165942255   -0.30478511618920   10.28365369601332
H         1.15180289867510    1.15901427689843    9.71063407220622
O        -4.93793471569952    1.40009522006049    3.09548389808654
H        -4.39512728337030    0.98306739856024    3.78271877874693
H        -5.73075208170378    0.84626696640226    3.00274253955113
O        -1.91581049845532    0.47855589286594    9.50493555044289
H        -0.92943978934417    0.42875701934350    9.60630694122264
H        -2.27911933750267   -0.19009091411543   10.08653119078125
O         4.21932881097757   -4.43781058566696    2.08064969707614
H         4.26047350379683   -3.65895226560577    2.66394960279765
H         4.31534845290355   -5.24534720641329    2.62650651100214
O         1.30893118079992   -8.99223830123338   -7.55885346383052
H         2.11575286448620   -8.53990493921011   -7.17799355131153
H         1.63842226275585   -9.63141906971272   -8.18944187474372
O         0.74553594212670   -5.07805988053520    1.71636628785774
H         1.30320043126556   -4.70123655321121    2.41429610270159
H         0.01712532522425   -5.54016712918538    2.15671357734541
O        -4.59667814255244   -4.14687511241241   -0.64060935737540
H        -4.19876973258551   -4.45203084238063   -1.47230792111129
H        -3.97929957462224   -3.53034438874239   -0.20877928273666
O        -8.88010591454329   -4.15971334426512    0.04290663651521
H        -8.94393027536572   -3.71588339651127    0.90278966939661
H        -8.88255054641528   -5.10775346472558    0.24790792601498
O        -1.30409107335595    4.74056950967701    9.18063784586610
H        -1.84346628315550    4.29499728710941    9.85608716244169
H        -1.27914226029366    4.08801202198410    8.44251387107468
O         7.77372071479819   -5.78441138968141    2.17142858977773
H         8.67139174763420   -5.76144839637663    1.79374735831981
H         7.80459612347765   -5.57314233323776    3.13647163955116
O        -1.79393846191052   -0.70705025330833    6.91818705090883
H        -2.38245699067808   -1.48360311789396    6.83716015796067
H        -1.94409362284109   -0.32653544950638    7.79252636839833
O         0.03513255945916   -3.29189161190945    7.12447826527809
H         0.81999487431934   -3.86992588796410    7.05187512574678
H        -0.55220963871403   -3.52466414313156    6.38717067397492
O         7.51984207077788   -2.48463786469830   -1.01223593748484
H         7.00573425891885   -3.12445583016659   -0.47468348261234
H         7.81858463092878   -2.97219907115067   -1.80391968353759
O         2.32304177567389    7.19352680859947   -0.03792858085314
H         2.13180729196567    6.28315029923525    0.20603074865694
H         2.26577199140281    7.24969404531523   -1.01353913393920
O         2.13593529083888   -1.31313252209307   11.23228092810348
H         2.33415210743810   -0.99208121702913   12.11203116371364
H         2.99765419618513   -1.32916291188053   10.75933234564345
O        -3.52055580555780   -2.70855049269687   -2.85907886809138
H        -4.06768093089848   -2.04114266884728   -2.42446093931588
H        -3.42832956230866   -2.46845806144489   -3.79335496441988
O         2.31572922223090   -8.14093775651417    3.40439545549767
H         1.75492527224383   -8.47526932597712    2.68777406824820
H         1.75091829264436   -7.54407384978664    3.92197621389061
O        -1.56600473823795    2.63464948752516    7.58121504278773
H        -1.76137936564214    1.89992780488156    8.16889080454413
H        -0.81679254720371    2.33867312273169    7.02131089296852
O        -9.43603886998155   -0.46007244923322    1.83669612549332
H        -9.47078032021934   -0.33022732335490    0.88766463044170
H        -8.81127426543526    0.20479359748034    2.19058409503627
O        -3.05042806478119   -2.46353274872729   -5.47559999577256
H        -3.70915375751198   -2.64767187446175   -6.16989633933162
H        -2.34418305096127   -1.94574102665531   -5.91198613445025
O         2.23391983541244   -1.15289854940159    1.52188300974163
H         2.66799771100542   -0.56251252686257    0.87427358528097
H         2.18776071797753   -2.00786608324797    1.04949393742787
O         2.57792464375846    7.36455829184431   -2.71936369040093
H         2.84790804552429    6.55232864276721   -3.18836703244527
H         3.39757550146612    7.87749185023470   -2.62076519569999
O        -4.14082772542727   -5.49482328582487   -3.12611273616612
H        -3.30898603571790   -5.16647439653706   -3.52357301159333
H        -4.83721629949151   -4.84952635952317   -3.38151765901643
O        -7.22829108671614    4.31563233255982   -5.09556016471520
H        -6.27229522541421    4.34051006201243   -4.95739503930444
H        -7.39377951924049    3.48388317577411   -5.57079457070835
O        -5.23601666967832    3.68163470316145    4.34119453857300
H        -5.67434405105931    4.32626290919663    3.76080595848495
H        -5.10862349208791    2.86090758287157    3.79998707793101
O        -4.09148622956626    6.57519875692900   -5.42805802835684
H        -4.56349276386225    7.11119082053420   -4.78769501890566
H        -4.30676871752757    5.64604934183792   -5.22630814505135
O         4.56716508409289   -6.78717378154574    3.33879608815091
H         5.17098595811971   -7.26751056552374    2.75397877563927
H         3.73680769548937   -7.31504652900869    3.35614109652481
O         5.93187000384253    5.13564726739898    1.55072270710940
H         6.89500161491434    5.26477052832049    1.58464103136731
H         5.56597348578684    5.89562971621818    1.04652618117119
O        -1.13417832205547   -1.18554093874686   -6.77838858386824
H        -0.80196110308551   -0.44245133202742   -6.22836929096858
H        -1.37379008179365   -0.79260420541579   -7.64217666710625
O        -2.00785608892440    5.65455853757419   -6.94165863662167
H        -2.62915416814656    5.10110259196166   -7.43270246048738
H        -2.57672122063475    6.15653289965406   -6.33763341990371
O        -4.90427212406111   -1.04231813022895   -1.18621811307170
H        -5.71903192050117   -1.57181856892991   -1.18733575232482
H        -4.28642120171194   -1.44735843118551   -0.54866664188552
O         6.05058021824916    2.21537039453436   -5.36953764442708
H         6.71898394154797    2.92473485332175   -5.28870326562380
H         5.79666403353947    2.02166229022590   -4.45161450065925
O         4.13696602502516   -1.95503994093577    3.15552844565974
H         3.36231255489878   -1.65111387466318    2.62333531231709
H         3.90829299237177   -1.79496636166637    4.08344688063795
O        -1.41237592092972   -9.38342053580953   -0.94031885210143
H        -1.85940149671418   -9.33702921461558   -1.79802049468528
H        -0.95683970476673   -8.53038267797709   -0.82298924027009
O         6.44998517555624    5.52175404045888   -1.38281140643520
H         5.54161594194879    5.18176343719941   -1.28125811184079
H         6.45381300580527    5.96443737971431   -2.25324155246087
O        -3.25421578233119    0.76862803863715    5.18606488977385
H        -2.69082455222408    0.21097568287162    5.75272530478065
H        -3.67608088631970    1.41658533572406    5.78387582889305
O         2.28076183972748    7.42586179281336    5.54260763742039
H         1.35588177374344    7.75339023949261    5.60284407275894
H         2.35303565814863    6.89252277912140    4.72690052400954
O         4.99120338515072    8.05993140594539    3.07810789828100
H         4.46974476893656    8.73264566155080    3.57928708824887
H         5.75923157994799    7.86342378289515    3.61575252805518
O         4.23098660577693   -8.38592533454752   -2.22735890991637
H         3.99572694389601   -7.86410344520232   -3.02044480331412
H         5.18560930417580   -8.53174934220249   -2.20633076243846
O        -5.93249199301277    2.23122135890763   -3.20301078501828
H        -5.34953793132724    1.44249972390556   -3.27249090607400
H        -5.54301427512795    2.86474581332761   -3.82989644200230
O        -4.20877638853694   -0.79803102198296   -9.45352031049107
H        -3.26292008401358   -0.54239879745975   -9.34144060802318
H        -4.33584753943929   -0.96649655101565  -10.38677128634562
O        -1.56617975911726   -4.09083282946413    4.98596619115006
H        -1.71091960750798   -4.83124669814152    4.37483272683127
H        -1.23618411522274   -3.34981880481117    4.43091019584763
O         4.57314208836185    1.62835537701129   10.20717896595549
H         5.02513072937515    1.92305194391524    9.40316951265366
H         3.67808624865661    2.00618487731367   10.16426448127120
O        -4.82013619178586   -1.56057698013867    4.38924199570161
H        -4.80385120779904   -2.50901091090981    4.57146786453193
H        -5.00574803202121   -1.11100610277584    5.23236783095189
O        -1.72153360885421    6.83623563470548    7.45018565877448
H        -2.51889688758606    6.56411964326330    6.94652216219485
H        -1.68712594356538    6.25555586826579    8.22650546429401
O        -2.69693805193750   -0.97340042869648    2.77396024634896
H        -3.40235865808972   -1.08040949687202    3.44068784106821
H        -2.41176040362329   -0.04149677558399    2.78527694786387
O         5.79532250137889   -0.31714264736490    6.90978165894781
H         4.94553370687773   -0.63543554995031    6.55886587559221
H         5.62868399345379    0.58326378732461    7.25959878244919
O         0.63210191189671   -6.49756033397369    4.80976459107828
H         0.53031183098109   -7.23024417315837    5.47701232227535
H        -0.17981976832034   -6.47226383318203    4.28875682566128
O        -0.36467208237044   -0.62358287433685    1.07044036402517
H         0.52712200488715   -0.66374725679965    1.45923494971028
H        -0.50128407378358   -1.52960507509566    0.74453602733310
O        -8.25597255705831    5.56184774096594   -0.37882253939623
H        -7.90296824490164    4.73573634664786   -0.00297901615912
H        -8.55188763956211    5.32347266909657   -1.26751554938356
O         5.63939179449817    1.82751938381233   -2.63206745282709
H         6.43091051669990    2.36947213338243   -2.40794423741905
H         5.90568008787392    0.89637262976067   -2.58439734311086
O        -6.68201904125104   -8.11281043979583    4.57662147421439
H        -6.87169668538215   -8.10026055918964    3.58938147556022
H        -6.76149977158982   -9.02622875830349    4.84892138606878
O        -2.24817071692115    2.80516611431243   -5.80449292345129
H        -2.07981942343002    2.74689926825530   -6.76253660113389
H        -1.67544112165303    3.50917989636552   -5.45163328571216
O        -4.55431029787442   -6.87669587978860   -5.47486563741789
H        -4.45515902286919   -6.54755792941767   -4.56110614929496
H        -5.17115821214688   -6.24996482857605   -5.90812900582394
O        -1.65018022663253    2.64738551136724   -8.48037140528944
H        -0.85636335731824    3.23404347883608   -8.36587335758432
H        -2.35783928578922    3.20350932793467   -8.82066667456045
O         0.88792102847030    2.82003877901793   -2.90475204205108
H         1.66354819048882    2.25665762523950   -3.06068111386226
H         0.42501372128663    2.43116969013800   -2.15496941393867
O         7.64627358109548   -5.06776030976517    4.70697427590607
H         6.89785483535479   -5.53341505382193    5.12432359310621
H         7.43360159456979   -4.12538669131252    4.85354999943739
O         3.38767642097769   -7.64860704968197   -6.72143280920564
H         3.24358346102866   -6.80555377583433   -7.19458987303460
H         3.34424421553789   -7.41921637337181   -5.77387372116937
O         3.04083744383098   -6.90817226774735   -4.13272351433236
H         2.83783358666793   -5.96512639918662   -3.98032900537356
H         2.18826549625708   -7.37730822595156   -4.01117111816694
O         4.05484245488909    4.17588348761637   -1.29856838818347
H         4.57748718975270    3.39091127169541   -1.06473222978387
H         3.54233468059396    4.40533197572612   -0.50207349965956
O         2.23169966649691   -2.56062718748837  -10.98498246436280
H         2.34370084635028   -2.51296467456947  -10.01405348183808
H         3.06216065852734   -2.27722984594181  -11.36811324168548
O         0.27407472494640    4.25950835118596   -7.76286026721144
H        -0.29796561602125    4.84101369152453   -7.24140865277765
H         0.75234750057158    3.66576714335389   -7.14075865679244
O         5.71828982166315    2.78849078081550    0.31122173778244
H         4.98945169885544    2.43222611814542    0.87466433892432
H         5.82811436035937    3.70689195558919    0.64067388998112
O        -1.84397351779648    1.67038283771220    3.11540474871561
H        -2.27366333838614    1.52918244780231    3.98381705737837
H        -2.30367586387370    2.43469234809848    2.72887981879131
O        -7.18131077057546   -5.23872483629620    2.59265689988412
H        -6.40301266429602   -4.97757888816249    3.11205506740033
H        -7.77525794135765   -4.47972937828311    2.60819848400238
O         9.99204888959087   -2.67204842673543   -0.01007509833973
H         9.07304073532836   -2.52283408121611   -0.34518602938520
H        10.50982804522417   -1.94826363223261   -0.36622084499775
O         0.71321191526319   -0.45715279681029  -10.00642924885748
H         0.96882198448490   -1.11973266425958  -10.66432473525109
H         1.20424354596322   -0.71304007445750   -9.21229360932660
O         5.66505219057791    0.03627637222444    2.40788758647175
H         5.17555117706397   -0.78259560108540    2.65700243543884
H         6.26477715702987    0.22065606361854    3.15629963214050
O        -4.17098825709507    0.28582364007795   -3.39408561507603
H        -4.33808107472307   -0.09952217564170   -2.51703930827691
H        -3.30965338842412    0.77047621203620   -3.33533317007300
O        -1.90503387903502   -4.71411527216634   -4.51226921628198
H        -1.93438661680191   -5.37776460529060   -5.22349009539688
H        -2.27447601983952   -3.89210766883728   -4.89230845094160
O         2.39042164514980    5.42714194251900    7.30150878565855
H         2.45990196067290    6.26018136520373    6.79056376006651
H         2.12708854855003    5.62232848279518    8.21161804062109
O        -2.80412598627904    4.66008634637835   -2.75276930377840
H        -2.77108761858847    5.59011215887821   -2.47490434585874
H        -1.99796511334274    4.50836012901225   -3.28055766018782
O         6.56905635295650   -2.66362616401568    5.40304984609377
H         5.66493087727001   -2.77762675385303    5.07970257637251
H         6.51546301335532   -2.92394206814985    6.33801138096678
O        -6.89494063537105    8.06940601168444   -0.29530793639011
H        -6.20947939738590    8.00804232473207    0.38930064135254
H        -7.42160160925373    7.25612338340143   -0.24201999822340
O         0.10869239192976   -3.48623569783817   -7.42433583673668
H        -0.34555096403721   -2.68650498602153   -7.10148939139135
H        -0.54787294081136   -3.96282565901176   -7.94631977020528
O         0.49174028265382    1.59501611664778    6.28780622901535
H         0.60320056949764    0.65722252656538    6.51237053421719
H         0.54807741307195    1.68198294610052    5.30463208557558
O         1.20950548245751   -0.86493384081957    7.29790978642390
H         0.58017243938216   -1.60563415688070    7.19821566960711
H         1.02475855264996   -0.45675318231554    8.17114768843173
O         8.43221098976527    2.63657991587159    0.50127607454055
H         7.45951159056604    2.57747703255040    0.56236111872506
H         8.75436814058947    1.71014269949410    0.42010299464663
O         3.90496293159559   -3.47711763157149    5.42097797832469
H         3.65203212171738   -3.15613981938755    6.30131291809707
H         3.08145048890809   -3.69611512014131    4.95118951325092
O        -5.11675912557851    3.50349704261718   -0.99771739880890
H        -5.45629882914789    3.08951426160690   -1.81728323152852
H        -4.22947199536267    3.11826114766496   -0.85691499032559
O         0.46275499694667   -8.87385896640548    1.52783344428765
H         0.46023204116621   -9.62231364479265    0.92895309477790
H         0.28376218305443   -8.09479927243684    0.94201043375294
O        -3.31826481768017   -8.89330394064849    7.90694039549878
H        -3.18439426168662   -9.62713144258723    8.50666727148942
H        -2.64160151083688   -8.22732882970893    8.12954875024101
O         7.60080740362912   -5.85550891081584   -1.43180857540788
H         7.33055422566322   -6.78934583921295   -1.47193952947361
H         6.97405877427708   -5.40628927244231   -0.82655153055315
O        -4.86285051727887   -6.54691386792664    7.40216169390690
H        -5.82799078795038   -6.49859349303502    7.25567054130089
H        -4.65246632444019   -7.43952547493077    7.69990903386907
O         6.11080734950061   -7.60938806909042    1.14845718972205
H         6.78921244102273   -7.00263081476777    1.50993292366449
H         5.42736474333838   -7.04050504539455    0.72558488794804
O         9.73130868995893   -5.46753115968462    0.35181351771014
H         9.07841011387379   -5.65108900049036   -0.34609115289578
H         9.95386957786000   -4.53071592347014    0.26962831114473
O         7.01397606387474    0.49934327734581    4.68231261920893
H         6.61716015244203    0.04790316821401    5.46530792770413
H         7.96913080402729    0.29326115616569    4.72074537003170
O         0.19013297288487   -6.54169296906085   -8.13077247382816
H        -0.47060685401981   -6.40908692602555   -7.44233205167579
H         0.51847263704192   -7.44937090738058   -8.01426816361578
O         1.20805149033988    5.21803896076613    9.82120702287891
H         1.18733587967506    5.78753149173831   10.58902738935880
H         0.26400711958813    5.06182577195922    9.55974812916161
O         5.22868969802372   -5.80882136839402    5.76258798572819
H         5.00529054204237   -6.34827646840193    4.98397862936313
H         4.73517175260423   -4.97366334866487    5.61373100762861
O         3.48826736042414    9.60546313909966    4.59958379065678
H         2.76103392833966   10.10959131215044    4.23224427541113
H         3.07569312018138    8.85308971563705    5.08668594450401
O         4.44986227625037   -1.01207589276316    9.93560071320038
H         4.50236869911394   -0.03292487325177   10.04130610243977
H         5.38473277439113   -1.29312272524856    9.81244181249943
O         6.21235708148737    0.11614833603356   -0.17868691341516
H         6.05717579910212   -0.00551446066302    0.78376060885834
H         6.12200846720198    1.07032602164769   -0.31707095496634
O         1.61975324171609   -4.02151324783231    4.04598981523359
H         0.91510526147361   -3.37923487800070    3.87968962856870
H         1.22570671632493   -4.80909435771713    4.44908497184240
O         6.61951372483079    3.05056185515278    5.31387794435259
H         7.44011419376148    3.50495831608151    5.05770194633548
H         6.76123151266512    2.10894352669175    5.05267353503237
O        -1.69655409772477   -8.73161336812117    3.11537090612869
H        -0.83650238326437   -8.86049321167370    2.65877992030116
H        -2.34597297766708   -9.10159918073993    2.49628789521332
O        -1.54350492553993   -6.07207846814675    3.02138829991122
H        -1.72735390906047   -7.03256029069010    3.11137403204160
H        -1.99397031891316   -5.82155292618795    2.19248701173323
O        -3.07721973102195   -2.21642795597355    0.45006508195905
H        -2.19578528427566   -2.62679999067676    0.35625363766158
H        -3.01027236240397   -1.71577536827784    1.28928039507866
O         7.72959761683059    4.24324378230926   -4.69481871637276
H         7.27533949213803    5.08572375136004   -4.56750252748184
H         7.92867663845568    3.91257202961194   -3.80584688580433
O        -4.14921833912283    2.78062783609860    6.72124931869514
H        -4.42174940700778    3.26313359575959    5.92654024513049
H        -3.20697483248333    2.97449877565879    6.86489258998061
O        -0.25265933736424   -7.02982899406987   -0.17615791464684
H        -1.06868597753724   -6.58584158171500    0.15319085659220
H         0.30113582318884   -6.30047005590130   -0.50256841841311
O        -6.96177564979122   -8.21259872015660    2.01476681154313
H        -6.11621054369963   -7.75763283255100    1.81966435281866
H        -7.66037398961697   -7.64869571114214    1.65031601133871
O        -0.56857071347190   -3.19640978927379    0.35416245509771
H        -0.65374973254018   -3.62645714687925   -0.51391616105688
H        -0.06420967586661   -3.83357684526694    0.90238612982291
O        -6.12854336288699   -3.81982624062181   -3.79723002015083
H        -6.56649973998788   -3.58988724029281   -2.95542927374918
H        -5.91313253669956   -2.95250201649533   -4.19555976152475
O        -1.71115489544350    0.02578064280528   -9.09777217703990
H        -1.67965280539089    0.98306972164779   -8.90140769447978
H        -0.86190430608926   -0.17203115997114   -9.55491276837614
O         6.84304305093180   -8.46742619424001   -1.22890346976228
H         7.53440922069879   -9.12597849991841   -1.17045127415587
H         6.56640085716398   -8.26960392119477   -0.29152169106026
O        -4.66321037932082    7.80663693713682    1.33595790467700
H        -3.81585919693807    8.17201157200236    1.01848954941872
H        -4.45508355146313    7.48671526892402    2.23207094833882
O        -4.44281771006256   -3.01401418539630   -7.70752414670224
H        -4.45525406125443   -2.24227833038531   -8.29397498232686
H        -3.72635435993525   -3.59657290355037   -8.02138074544974
O         4.74564303279235    3.96153113201979    3.68464044822099
H         5.40068186403630    3.65664783390957    4.35206085898165
H         5.25884055638206    4.38207942946918    2.96693009183118
O         3.45531357086966    0.06092481009764   -0.50953162874401
H         3.17947501355404    0.42605140692135   -1.36113813437812
H         4.41988430074167   -0.01747714010586   -0.53176757466074
O        -0.42797450842755    0.87581394932826   -5.30876938214106
H        -0.19730651321813    0.56667824954575   -4.41993439198777
H        -1.18718864270268    1.49022377957242   -5.22155496813837
O        -3.71965318736353    5.82166616998205    5.99560322191148
H        -4.47959331471902    5.50631900470518    6.50380340305649
H        -3.23373190148773    5.02869374482893    5.64553960317574
O        -1.65278071165298   -9.72507988176235    5.68878732390008
H        -2.42728756473861   -9.45176231587340    6.19824513926989
H        -1.76708581807136   -9.40403226149699    4.77674979785829
O         1.75696195668952   -9.43282370575479   -1.54810672725867
H         1.77997069333335  -10.38243958329022   -1.66013732823844
H         2.66287177167727   -9.10615387343790   -1.68608757394509
O         3.39013499011044   -2.47545062032528    7.94456092624575
H         2.56277305010770   -2.00884180946203    7.75062420704473
H         3.81988875824845   -1.93263454121675    8.63651782067159
O         2.67150870870260    2.78930137759466    7.14679088514020
H         2.62775704421113    3.75801252016090    7.06960745875432
H         1.82202895822189    2.42834300282063    6.79333503667155
O         0.44994812564497   -8.35149214582388    6.64036796168536
H        -0.00745116424586   -7.95330835038123    7.39423243512649
H        -0.18049991730723   -9.01068713647813    6.28022101231515
O        -3.45687471451053    6.97923132640615    3.59125962408922
H        -2.70580003106373    6.44059276488119    3.26528383509045