49
Energy:  -1225.24303211
O   -0.09362862  -0.09445807   0.25374112
H    0.14780477   0.41839429   1.02505443
H   -1.01039043  -0.32857644   0.39854520
O   -3.30685617   1.53200683  -0.96162307
H   -4.11197376   2.04830685  -0.99972549
H   -3.26388905   1.09144948  -1.81032496
O   -2.39437730  -2.28496925  -1.71151858
H   -1.46414937  -2.43252846  -1.88220581
H   -2.79129134  -3.15345535  -1.77802410
O    1.76635859   1.68739897  -1.16274832
H    1.75875687   2.42586707  -0.55378286
H    2.39185366   1.07002189  -0.78349469
O    0.57544108   1.39927640   2.40494381
H    1.34327381   0.93049119   2.73190738
H   -0.16404006   0.99399381   2.85787373
O   -0.73378718   2.43275313  -1.24631733
H   -0.45839902   3.01555759  -0.53869301
H   -1.65075841   2.23749101  -1.05326729
O   -2.66816139   0.03114032  -3.17211137
H   -2.68947399  -0.83453601  -2.76421174
H   -3.08643623  -0.09454087  -4.02386382
O    1.66174155  -2.12821664   0.02663137
H    0.97537286  -1.48911296   0.21814209
H    2.45985338  -1.60609667  -0.05485536
O    0.03089755   0.36209443  -2.66357638
H   -0.86793022   0.35633214  -2.99267711
H    0.25766960  -0.56300475  -2.56871963
O    3.48895813  -0.04009092   0.13001535
H    4.43435533  -0.01170152  -0.01712414
H    3.39085267   0.04874459   1.07802137
O   -2.70331216  -0.67951332   0.58259950
H   -3.06274757   0.10062632   0.16020139
H   -2.73969737  -1.35656019  -0.09305981
O    2.93367439   0.02626487   2.83885224
H    3.49557649   0.18921790   3.59644328
H    2.70939665  -0.90216614   2.90167905
O    0.31418673  -2.36639623  -2.30787594
H    0.84629034  -2.42617271  -1.51445022
H    0.74846403  -2.94741483  -2.93241773
O    0.86456185   3.53044987   0.72326619
H    1.04819528   4.36963764   1.14549185
H    0.76131077   2.91438975   1.44855302
O    2.25599828  -2.58238145   2.66883747
H    2.00330899  -2.63854223   1.74730292
H    2.21849172  -3.48562466   2.98344326
O   -1.69465613   0.03285873   3.12188956
H   -2.22156941  -0.20326956   3.88532762
H   -2.19009150  -0.30334100   2.37506604
H    0.36408806   1.39790662  -1.64439840
