49
Energy:  -1225.51269794
O   -2.32538397   1.42456052  -1.81534203
H   -2.52167157   0.48781377  -1.80090055
H   -3.12599107   1.83246139  -2.14530717
O    1.79520151  -1.38860995  -1.62933137
H    1.15354895  -0.93716475  -1.08096008
H    2.37869287  -0.69483060  -1.93664212
O   -1.81289989  -1.76556115   0.78446977
H   -1.23084422  -2.36484156   1.25170209
H   -2.16108535  -1.18969445   1.46518724
O    2.73966432   1.17616791  -2.32233049
H    2.75604002   1.69390716  -1.51740208
H    3.48594970   1.49651788  -2.82895251
O    1.02456223   1.24773853   1.95481620
H    0.93730401   0.58236190   2.63737886
H    0.24387895   1.79331005   2.05030010
O   -1.40521109   2.52356490   1.72177387
H   -1.82474903   3.24143566   2.19599041
H   -1.85854119   1.73745215   2.02632340
O   -0.30217739  -1.40963943  -3.38707368
H   -0.21814454  -1.96338129  -4.16330836
H    0.48079124  -1.60016778  -2.87045882
O    0.13438504  -3.08542703   2.23212700
H    0.01576379  -3.98992092   2.52204366
H    0.87962888  -3.12138890   1.63250195
O    0.05744012   1.27975503  -2.89902728
H   -0.13498409   0.39896233  -3.22059997
H    1.01014174   1.29935096  -2.80843210
O   -0.35866008   2.84767784  -0.83203511
H   -0.80715675   2.81765320   0.01305725
H    0.56882849   2.92629621  -0.60884025
O   -2.62537957  -1.21516354  -1.83716895
H   -1.89605335  -1.51335722  -2.38067207
H   -2.47894000  -1.63322543  -0.98863400
O    2.28910326   2.67800617  -0.04508283
H    2.06731643   2.16750278   0.73365251
H    2.83716088   3.39077698   0.28328049
O    2.20114517  -3.11303991   0.47705364
H    2.97346362  -3.66397243   0.34965891
H    2.15711135  -2.57502717  -0.31341151
O   -2.25864549   0.10485137   2.78644656
H   -1.46887068  -0.18358207   3.24393290
H   -2.96679713  -0.04389599   3.41304638
O   -0.02788420  -0.01523566  -0.21214080
H   -0.67894353  -0.63389391   0.11894160
H    0.37107343   0.35708269   0.57427112
O    0.20081675  -0.76280908   3.69525653
H    0.25796389  -1.60903125   3.25155157
H    0.57930658  -0.91940875   4.56038880
H   -0.83390047   1.80411745  -1.81176067
