49
Energy:  -1224.10518298
O   -0.23489199   0.22476844   0.14854925
H    0.11612599   0.78189537   0.84326344
H   -1.16850342   0.15299631   0.34717025
O   -3.02656669   1.32997296  -1.57694793
H   -3.76929561   1.78728603  -1.97121987
H   -2.85467687   0.59708810  -2.16818860
O   -2.37379062  -2.67067918  -0.88272155
H   -1.49362686  -2.70734280  -0.50828949
H   -2.71502652  -3.55919613  -0.78109705
O    1.97154972   1.62980388  -1.30923676
H    1.89196443   2.42048124  -0.77563828
H    2.51404958   1.04033241  -0.78535782
O    0.71880413   1.85615287   2.11183509
H   -0.04416521   1.57691406   2.61793323
H    1.42960451   1.29346690   2.41904699
O   -0.47739638   2.30054964  -1.93099015
H   -0.28683527   3.00989343  -1.31719075
H   -1.39170026   2.07450557  -1.76015589
O   -2.10577826  -0.86812243  -2.96999793
H   -2.23135595  -1.53633791  -2.29623969
H   -2.49226671  -1.24751441  -3.75925089
O    0.15949510  -2.42490667   0.28563785
H    0.02243877  -1.47853880   0.24279791
H    0.87602592  -2.59159214  -0.32676021
O    0.49163636  -0.02870871  -2.70414918
H   -0.36866386  -0.40353372  -2.89288602
H    1.02785789  -0.77766372  -2.44383263
O    3.40485394  -0.21853597   0.13208305
H    4.34172695  -0.02991029   0.18613088
H    3.11672517  -0.26647617   1.04362865
O   -2.86296829  -0.15132512   0.78556099
H   -3.22065475   0.41532391   0.10203988
H   -3.22380409  -1.01674736   0.59301561
O    2.43139828  -0.21725868   2.72348964
H    1.71632305  -0.83246067   2.88604971
H    2.91374130  -0.18619265   3.54969299
O    2.15111521  -1.96151533  -1.62246506
H    2.68929228  -1.45775892  -1.01186965
H    2.78048666  -2.47003713  -2.13386413
O    0.88433756   3.71358405   0.10465351
H    1.10009235   4.60635246   0.37418325
H    0.79199180   3.23065074   0.92592054
O    0.24895818  -1.90653289   2.99744005
H    0.20222459  -2.27429464   2.11494409
H    0.13073945  -2.65874333   3.57747077
O   -1.34507498   0.41288936   3.12659595
H   -2.07088624   0.27093444   2.51891293
H   -0.92993594  -0.44562517   3.20932580
H    0.61456511   1.24606059  -1.94237482
