7
Energy:    -92.71227648
C    0.30301476   0.78121718  -0.81058027
H   -0.45944357   1.52653363  -0.90036254
H    0.34598090   0.20466947  -1.71093894
H    1.24778656   1.25557506  -0.64538355
C   -0.02122003  -0.14440603   0.37672486
N   -0.26262757  -0.83357459   1.26072750
Na  -1.15349106  -2.79001471   2.42981293
