7
Energy:    -95.25516289
C   -0.59956628   0.99068202   0.15252161
H   -1.51359196   0.92262420  -0.39958831
H    0.00748341   1.77066492  -0.25737648
H   -0.81720011   1.20922152   1.17710694
C    0.15548104  -0.34849380   0.06245689
N    0.71764810  -1.34557107  -0.00460038
Na   2.04974580  -3.19912778  -0.73052027
