7
Energy:    -92.51386828
C    0.13287697  -0.09528339  -1.16603794
H   -0.50122276  -0.82817136  -1.61957178
H    1.15479424  -0.32061595  -1.38921820
H   -0.11070306   0.87349026  -1.54950302
C   -0.07471760  -0.11047204   0.35983027
N   -0.22928119  -0.12178067   1.49590851
Na  -0.37174660   0.60283315   3.86859215
