
                                 *****************
                                 * O   R   C   A *
                                 *****************

           --- An Ab Initio, DFT and Semiempirical electronic structure package ---

                  #######################################################
                  #                        -***-                        #
                  #          Department of theory and spectroscopy      #
                  #               Directorship: Frank Neese             #
                  #        Max Planck Institute fuer Kohlenforschung    #
                  #                Kaiser Wilhelm Platz 1               #
                  #                 D-45470 Muelheim/Ruhr               #
                  #                      Germany                        #
                  #                                                     #
                  #                  All rights reserved                #
                  #                        -***-                        #
                  #######################################################


                         Program Version 4.2.0 -  RELEASE  -


 With contributions from (in alphabetic order):
   Daniel Aravena         : Magnetic Suceptibility
   Michael Atanasov       : Ab Initio Ligand Field Theory (pilot matlab implementation)
   Alexander A. Auer      : GIAO ZORA, VPT2
   Ute Becker             : Parallelization
   Giovanni Bistoni       : ED, misc. LED, open-shell LED, HFLED
   Martin Brehm           : Molecular dynamics
   Dmytro Bykov           : SCF Hessian
   Vijay G. Chilkuri      : MRCI spin determinant printing, contributions to CSF-ICE
   Dipayan Datta          : RHF DLPNO-CCSD density
   Achintya Kumar Dutta   : EOM-CC, STEOM-CC
   Dmitry Ganyushin       : Spin-Orbit,Spin-Spin,Magnetic field MRCI
   Miquel Garcia          : C-PCM Hessian, Gaussian charge scheme
   Yang Guo               : DLPNO-NEVPT2, CIM, IAO-localization
   Andreas Hansen         : Spin unrestricted coupled pair/coupled cluster methods
   Benjamin Helmich-Paris : CASSCF linear response (MC-RPA)
   Lee Huntington         : MR-EOM, pCC
   Robert Izsak           : Overlap fitted RIJCOSX, COSX-SCS-MP3, EOM
   Christian Kollmar      : KDIIS, OOCD, Brueckner-CCSD(T), CCSD density
   Simone Kossmann        : Meta GGA functionals, TD-DFT gradient, OOMP2, MP2 Hessian
   Martin Krupicka        : AUTO-CI
   Lucas Lang             : DCDCAS
   Dagmar Lenk            : GEPOL surface, SMD
   Dimitrios Liakos       : Extrapolation schemes; Compound Job, initial MDCI parallelization
   Dimitrios Manganas     : Further ROCIS development; embedding schemes
   Dimitrios Pantazis     : SARC Basis sets
   Taras Petrenko         : DFT Hessian,TD-DFT gradient, ASA, ECA, R-Raman, ABS, FL, XAS/XES, NRVS
   Peter Pinski           : DLPNO-MP2, DLPNO-MP2 Gradient
   Christoph Reimann      : Effective Core Potentials
   Marius Retegan         : Local ZFS, SOC
   Christoph Riplinger    : Optimizer, TS searches, QM/MM, DLPNO-CCSD(T), (RO)-DLPNO pert. Triples
   Tobias Risthaus        : Range-separated hybrids, TD-DFT gradient, RPA, STAB
   Michael Roemelt        : Original ROCIS implementation
   Masaaki Saitow         : Open-shell DLPNO-CCSD energy and density
   Barbara Sandhoefer     : DKH picture change effects
   Avijit Sen             : IP-ROCIS
   Kantharuban Sivalingam : CASSCF convergence, NEVPT2, FIC-MRCI
   Bernardo de Souza      : ESD, SOC TD-DFT
   Georgi Stoychev        : AutoAux, RI-MP2 NMR
   Willem Van den Heuvel  : Paramagnetic NMR
   Boris Wezisla          : Elementary symmetry handling
   Frank Wennmohs         : Technical directorship


 We gratefully acknowledge several colleagues who have allowed us to
 interface, adapt or use parts of their codes:
   Stefan Grimme, W. Hujo, H. Kruse,             : VdW corrections, initial TS optimization,
                  C. Bannwarth                     DFT functionals, gCP, sTDA/sTD-DF
   Ed Valeev, F. Pavosevic, A. Kumar             : LibInt (2-el integral package), F12 methods
   Garnet Chan, S. Sharma, J. Yang, R. Olivares  : DMRG
   Ulf Ekstrom                                   : XCFun DFT Library
   Mihaly Kallay                                 : mrcc  (arbitrary order and MRCC methods)
   Andreas Klamt, Michael Diedenhofen            : otool_cosmo (COSMO solvation model)
   Jiri Pittner, Ondrej Demel                    : Mk-CCSD
   Frank Weinhold                                : gennbo (NPA and NBO analysis)
   Christopher J. Cramer and Donald G. Truhlar   : smd solvation model
   Lars Goerigk                                  : TD-DFT with DH, B97 family of functionals
   V. Asgeirsson, H. Jonsson                     : NEB implementation
   FAccTs GmbH                                   : IRC, NEB, NEB-TS, Multilevel, MM, QM/MM, CI optimization
   S Lehtola, MJT Oliveira, MAL Marques          : LibXC Library


 Your calculation uses the libint2 library for the computation of 2-el integrals
 For citations please refer to: http://libint.valeyev.net

 Your ORCA version has been built with support for libXC version: 4.2.3
 For citations please refer to: https://tddft.org/programs/libxc/

 This ORCA versions uses:
   CBLAS   interface :  Fast vector & matrix operations
   LAPACKE interface :  Fast linear algebra routines
   SCALAPACK package :  Parallel linear algebra routines


----- Orbital basis set information -----
Your calculation utilizes the basis: def2-TZVP
   F. Weigend and R. Ahlrichs, Phys. Chem. Chem. Phys. 7, 3297 (2005).

================================================================================
                                        WARNINGS
                       Please study these warnings very carefully!
================================================================================


WARNING: The frozen-core approximation for MP2-gradient calculations is turned on by default.

WARNING: Geometry Optimization
  ===> : Switching off AutoStart
         For restart on a previous wavefunction, please use MOREAD

WARNING: Post HF methods need fully converged wavefunctions
  ===> : Setting SCFConvForced true
         You can overwrite this default with %scf ConvForced false 


INFO   : the flag for use of LIBINT has been found!

================================================================================
                                       INPUT FILE
================================================================================
NAME = input.inp
|  1> # Functional Basis-set
|  2> ! MP2 def2-TZVP
|  3> 
|  4> # Type of calculation
|  5> ! OPT
|  6> 
|  7> # Options
|  8> ! TightSCF Grid4
|  9> 
| 10> %pal nprocs 12 end
| 11> 
| 12> *xyz  0  1
| 13> O                  0.04687300   -0.75769200    0.00000000
| 14> H                 -0.87618500   -1.05160900    0.00000000
| 15> C                  0.04687300    0.66094600    0.00000000
| 16> H                  1.09415100    0.97510200    0.00000000
| 17> H                 -0.43709600    1.08618600    0.89315300
| 18> H                 -0.43709600    1.08618600   -0.89315300
| 19> *
| 20> 
| 21>                          ****END OF INPUT****
================================================================================

                       *****************************
                       * Geometry Optimization Run *
                       *****************************

Geometry optimization settings:
Update method            Update   .... BFGS
Choice of coordinates    CoordSys .... Z-matrix Internals
Initial Hessian          InHess   .... Almoef's Model

Convergence Tolerances:
Energy Change            TolE     ....  5.0000e-06 Eh
Max. Gradient            TolMAXG  ....  3.0000e-04 Eh/bohr
RMS Gradient             TolRMSG  ....  1.0000e-04 Eh/bohr
Max. Displacement        TolMAXD  ....  4.0000e-03 bohr
RMS Displacement         TolRMSD  ....  2.0000e-03 bohr
Strict Convergence                ....  False
------------------------------------------------------------------------------
                        ORCA OPTIMIZATION COORDINATE SETUP
------------------------------------------------------------------------------

The optimization will be done in new redundant internal coordinates
Making redundant internal coordinates   ...  (new redundants) done
Evaluating the initial hessian          ...  (Almloef) done
Evaluating the coordinates              ...  done
Calculating the B-matrix                .... done
Calculating the G-matrix                .... done
Diagonalizing the G-matrix              .... done
The first mode is                       ....    3
The number of degrees of freedom        ....   12

    -----------------------------------------------------------------
                    Redundant Internal Coordinates


    -----------------------------------------------------------------
         Definition                    Initial Value    Approx d2E/dq
    -----------------------------------------------------------------
      1. B(H   1,O   0)                  0.9687         0.503559   
      2. B(C   2,O   0)                  1.4186         0.503716   
      3. B(H   3,C   2)                  1.0934         0.355653   
      4. B(H   4,C   2)                  1.1013         0.345506   
      5. B(H   5,C   2)                  1.1013         0.345506   
      6. A(H   1,O   0,C   2)          107.6623         0.355268   
      7. A(O   0,C   2,H   4)          112.7145         0.336390   
      8. A(H   3,C   2,H   4)          108.0586         0.288397   
      9. A(O   0,C   2,H   5)          112.7145         0.336390   
     10. A(H   3,C   2,H   5)          108.0586         0.288397   
     11. A(H   4,C   2,H   5)          108.3928         0.287095   
     12. A(O   0,C   2,H   3)          106.6979         0.338016   
     13. D(H   4,C   2,O   0,H   1)     61.5483         0.020069   
     14. D(H   5,C   2,O   0,H   1)    -61.5483         0.020069   
     15. D(H   3,C   2,O   0,H   1)    180.0000         0.020069   
    -----------------------------------------------------------------

Number of atoms                         .... 6
Number of degrees of freedom            .... 15

         *************************************************************
         *                GEOMETRY OPTIMIZATION CYCLE   1            *
         *************************************************************
---------------------------------
CARTESIAN COORDINATES (ANGSTROEM)
---------------------------------
  O      0.046873   -0.757692    0.000000
  H     -0.876185   -1.051609    0.000000
  C      0.046873    0.660946    0.000000
  H      1.094151    0.975102    0.000000
  H     -0.437096    1.086186    0.893153
  H     -0.437096    1.086186   -0.893153

----------------------------
CARTESIAN COORDINATES (A.U.)
----------------------------
  NO LB      ZA    FRAG     MASS         X           Y           Z
   0 O     8.0000    0    15.999    0.088577   -1.431830    0.000000
   1 H     1.0000    0     1.008   -1.655750   -1.987253    0.000000
   2 C     6.0000    0    12.011    0.088577    1.249007    0.000000
   3 H     1.0000    0     1.008    2.067646    1.842676    0.000000
   4 H     1.0000    0     1.008   -0.825992    2.052594    1.687815
   5 H     1.0000    0     1.008   -0.825992    2.052594   -1.687815

--------------------------------
INTERNAL COORDINATES (ANGSTROEM)
--------------------------------
 O      0   0   0     0.000000000000     0.00000000     0.00000000
 H      1   0   0     0.968722495998     0.00000000     0.00000000
 C      1   2   0     1.418638000000   107.66233929     0.00000000
 H      3   1   2     1.093382458987   106.69786896   180.00000000
 H      3   1   2     1.101261700038   112.71446383    61.54825402
 H      3   1   2     1.101261700038   112.71446383   298.45174598

---------------------------
INTERNAL COORDINATES (A.U.)
---------------------------
 O      0   0   0     0.000000000000     0.00000000     0.00000000
 H      1   0   0     1.830620217205     0.00000000     0.00000000
 C      1   2   0     2.680837303174   107.66233929     0.00000000
 H      3   1   2     2.066193407118   106.69786896   180.00000000
 H      3   1   2     2.081083014848   112.71446383    61.54825402
 H      3   1   2     2.081083014848   112.71446383   298.45174598

---------------------
BASIS SET INFORMATION
---------------------
There are 3 groups of distinct atoms

 Group   1 Type O   : 11s6p2d1f contracted to 5s3p2d1f pattern {62111/411/11/1}
 Group   2 Type H   : 5s1p contracted to 3s1p pattern {311/1}
 Group   3 Type C   : 11s6p2d1f contracted to 5s3p2d1f pattern {62111/411/11/1}

Atom   0O    basis set group =>   1
Atom   1H    basis set group =>   2
Atom   2C    basis set group =>   3
Atom   3H    basis set group =>   2
Atom   4H    basis set group =>   2
Atom   5H    basis set group =>   2


           ************************************************************
           *        Program running with 12 parallel MPI-processes    *
           *              working on a common directory               *
           ************************************************************
------------------------------------------------------------------------------
                           ORCA GTO INTEGRAL CALCULATION
------------------------------------------------------------------------------

                         BASIS SET STATISTICS AND STARTUP INFO

 # of primitive gaussian shells          ...   64
 # of primitive gaussian functions       ...  124
 # of contracted shells                  ...   38
 # of contracted basis functions         ...   86
 Highest angular momentum                ...    3
 Maximum contraction depth               ...    6
 Integral package used                   ... LIBINT
 Integral threshhold            Thresh   ...  2.500e-11
 Primitive cut-off              TCut     ...  2.500e-12


------------------------------ INTEGRAL EVALUATION ----------------------------


 * One electron integrals 
 Pre-screening matrix                    ... done
 Shell pair data                         ... done (   0.000 sec)



           ************************************************************
           *        Program running with 12 parallel MPI-processes    *
           *              working on a common directory               *
           ************************************************************
-------------------------------------------------------------------------------
                                 ORCA SCF
-------------------------------------------------------------------------------

------------
SCF SETTINGS
------------
Hamiltonian:
 Ab initio Hamiltonian  Method          .... Hartree-Fock(GTOs)


General Settings:
 Integral files         IntName         .... input
 Hartree-Fock type      HFTyp           .... RHF
 Total Charge           Charge          ....    0
 Multiplicity           Mult            ....    1
 Number of Electrons    NEL             ....   18
 Basis Dimension        Dim             ....   86
 Nuclear Repulsion      ENuc            ....     40.2180102887 Eh

Convergence Acceleration:
 DIIS                   CNVDIIS         .... on
   Start iteration      DIISMaxIt       ....    12
   Startup error        DIISStart       ....  0.200000
   # of expansion vecs  DIISMaxEq       ....     5
   Bias factor          DIISBfac        ....   1.050
   Max. coefficient     DIISMaxC        ....  10.000
 Newton-Raphson         CNVNR           .... off
 SOSCF                  CNVSOSCF        .... on
   Start iteration      SOSCFMaxIt      ....   150
   Startup grad/error   SOSCFStart      ....  0.003300
 Level Shifting         CNVShift        .... on
   Level shift para.    LevelShift      ....    0.2500
   Turn off err/grad.   ShiftErr        ....    0.0010
 Zerner damping         CNVZerner       .... off
 Static damping         CNVDamp         .... on
   Fraction old density DampFac         ....    0.7000
   Max. Damping (<1)    DampMax         ....    0.9800
   Min. Damping (>=0)   DampMin         ....    0.0000
   Turn off err/grad.   DampErr         ....    0.1000
 Fernandez-Rico         CNVRico         .... off

SCF Procedure:
 Maximum # iterations   MaxIter         ....   125
 SCF integral mode      SCFMode         .... Direct
   Integral package                     .... LIBINT
 Reset frequency        DirectResetFreq ....    20
 Integral Threshold     Thresh          ....  2.500e-11 Eh
 Primitive CutOff       TCut            ....  2.500e-12 Eh

Convergence Tolerance:
 Convergence Check Mode ConvCheckMode   .... Total+1el-Energy
 Convergence forced     ConvForced      .... 1
 Energy Change          TolE            ....  1.000e-08 Eh
 1-El. energy change                    ....  1.000e-05 Eh
 Orbital Gradient       TolG            ....  1.000e-05
 Orbital Rotation angle TolX            ....  1.000e-05
 DIIS Error             TolErr          ....  5.000e-07


Diagonalization of the overlap matrix:
Smallest eigenvalue                        ... 1.680e-03
Time for diagonalization                   ...    0.040 sec
Threshold for overlap eigenvalues          ... 1.000e-08
Number of eigenvalues below threshold      ... 0
Time for construction of square roots      ...    0.001 sec
Total time needed                          ...    0.041 sec

-------------------
DFT GRID GENERATION
-------------------

General Integration Accuracy     IntAcc      ...  4.670
Radial Grid Type                 RadialGrid  ... Gauss-Chebyshev
Angular Grid (max. acc.)         AngularGrid ... Lebedev-302
Angular grid pruning method      GridPruning ... 3 (G Style)
Weight generation scheme         WeightScheme... Becke
Basis function cutoff            BFCut       ...    1.0000e-11
Integration weight cutoff        WCut        ...    1.0000e-14
Grids for H and He will be reduced by one unit

# of grid points (after initial pruning)     ...  26000 (   0.0 sec)
# of grid points (after weights+screening)   ...  25132 (   0.0 sec)
nearest neighbour list constructed           ...    0.0 sec
Grid point re-assignment to atoms done       ...    0.0 sec
Grid point division into batches done        ...    0.1 sec
Reduced shell lists constructed in    0.1 sec

Total number of grid points                  ...    25132
Total number of batches                      ...      395
Average number of points per batch           ...       63
Average number of grid points per atom       ...     4189
Average number of shells per batch           ...    26.74 (70.36%)
Average number of basis functions per batch  ...    62.62 (72.81%)
Average number of large shells per batch     ...    22.53 (84.27%)
Average number of large basis fcns per batch ...    53.41 (85.30%)
Maximum spatial batch extension              ...  14.43, 15.39, 14.58 au
Average spatial batch extension              ...   0.33,  0.36,  0.40 au

Time for grid setup =    0.100 sec

------------------------------
INITIAL GUESS: MODEL POTENTIAL
------------------------------
Loading Hartree-Fock densities                     ... done
Calculating cut-offs                               ... done
Setting up the integral package                    ... done
Initializing the effective Hamiltonian             ... done
Starting the Coulomb interaction                   ... done (   0.0 sec)
Reading the grid                                   ... done
Mapping shells                                     ... done
Starting the XC term evaluation                    ... done (   0.0 sec)
Transforming the Hamiltonian                       ... done (   0.0 sec)
Diagonalizing the Hamiltonian                      ... done (   0.0 sec)
Back transforming the eigenvectors                 ... done (   0.0 sec)
Now organizing SCF variables                       ... done
                      ------------------
                      INITIAL GUESS DONE (   0.2 sec)
                      ------------------
--------------
SCF ITERATIONS
--------------
ITER       Energy         Delta-E        Max-DP      RMS-DP      [F,P]     Damp
               ***  Starting incremental Fock matrix formation  ***
  0   -114.9709013732   0.000000000000 0.03697577  0.00133404  0.2878776 0.7000
  1   -115.0147710282  -0.043869655013 0.02558868  0.00098670  0.2174124 0.7000
                               ***Turning on DIIS***
  2   -115.0400779455  -0.025306917284 0.01523755  0.00060737  0.1626357 0.7000
  3   -115.3317292965  -0.291651351001 0.00780183  0.00033537  0.1198939 0.7000
  4   -115.2814367195   0.050292577003 0.01711011  0.00079498  0.0845409 0.0000
  5   -115.1013603708   0.180076348650 0.00217928  0.00010438  0.0061245 0.0000
                      *** Initiating the SOSCF procedure ***
                           *** Shutting down DIIS ***
                      *** Re-Reading the Fockian *** 
                      *** Removing any level shift *** 
ITER      Energy       Delta-E        Grad      Rot      Max-DP    RMS-DP
  6   -115.09308152   0.0082788554  0.000769  0.000769  0.000822  0.000052
               *** Restarting incremental Fock matrix formation ***
  7   -115.09141168   0.0016698396  0.000338  0.000326  0.000475  0.000029
  8   -115.09141372  -0.0000020446  0.000182  0.000183  0.000362  0.000020
  9   -115.09141420  -0.0000004816  0.000030  0.000027  0.000046  0.000003
 10   -115.09141422  -0.0000000140  0.000006  0.000012  0.000013  0.000001
                 **** Energy Check signals convergence ****
              ***Rediagonalizing the Fockian in SOSCF/NRSCF***

               *****************************************************
               *                     SUCCESS                       *
               *           SCF CONVERGED AFTER  11 CYCLES          *
               *****************************************************


----------------
TOTAL SCF ENERGY
----------------

Total Energy       :         -115.09141422 Eh           -3131.79660 eV

Components:
Nuclear Repulsion  :           40.21801029 Eh            1094.38770 eV
Electronic Energy  :         -155.30942451 Eh           -4226.18430 eV
One Electron Energy:         -236.70956561 Eh           -6441.19474 eV
Two Electron Energy:           81.40014110 Eh            2215.01045 eV

Virial components:
Potential Energy   :         -230.01213780 Eh           -6258.94847 eV
Kinetic Energy     :          114.92072358 Eh            3127.15187 eV
Virial Ratio       :            2.00148529


---------------
SCF CONVERGENCE
---------------

  Last Energy change         ...   -1.0318e-09  Tolerance :   1.0000e-08
  Last MAX-Density change    ...    4.1427e-06  Tolerance :   1.0000e-07
  Last RMS-Density change    ...    2.1397e-07  Tolerance :   5.0000e-09
  Last Orbital Gradient      ...    2.0949e-06  Tolerance :   1.0000e-05
  Last Orbital Rotation      ...    4.6895e-06  Tolerance :   1.0000e-05

             **** THE GBW FILE WAS UPDATED (input.gbw) ****
             **** DENSITY FILE WAS UPDATED (input.scfp) ****
             **** ENERGY FILE WAS UPDATED (input.en.tmp) ****
             **** THE GBW FILE WAS UPDATED (input.gbw) ****
             **** DENSITY FILE WAS UPDATED (input.scfp) ****
----------------
ORBITAL ENERGIES
----------------

  NO   OCC          E(Eh)            E(eV) 
   0   2.0000     -20.556329      -559.3662 
   1   2.0000     -11.271937      -306.7250 
   2   2.0000      -1.354724       -36.8639 
   3   2.0000      -0.921592       -25.0778 
   4   2.0000      -0.688635       -18.7387 
   5   2.0000      -0.617349       -16.7989 
   6   2.0000      -0.591689       -16.1007 
   7   2.0000      -0.502159       -13.6644 
   8   2.0000      -0.450225       -12.2512 
   9   0.0000       0.136620         3.7176 
  10   0.0000       0.176557         4.8044 
  11   0.0000       0.229185         6.2365 
  12   0.0000       0.230433         6.2704 
  13   0.0000       0.255950         6.9648 
  14   0.0000       0.330932         9.0051 
  15   0.0000       0.340832         9.2745 
  16   0.0000       0.462844        12.5946 
  17   0.0000       0.522082        14.2066 
  18   0.0000       0.581734        15.8298 
  19   0.0000       0.608685        16.5632 
  20   0.0000       0.619155        16.8481 
  21   0.0000       0.656331        17.8597 
  22   0.0000       0.683781        18.6066 
  23   0.0000       0.703970        19.1560 
  24   0.0000       0.769475        20.9385 
  25   0.0000       0.878360        23.9014 
  26   0.0000       0.925801        25.1923 
  27   0.0000       0.948278        25.8040 
  28   0.0000       1.093061        29.7437 
  29   0.0000       1.118288        30.4302 
  30   0.0000       1.246538        33.9200 
  31   0.0000       1.539481        41.8914 
  32   0.0000       1.662208        45.2310 
  33   0.0000       1.711838        46.5815 
  34   0.0000       1.776306        48.3357 
  35   0.0000       1.793101        48.7928 
  36   0.0000       1.795966        48.8707 
  37   0.0000       1.828595        49.7586 
  38   0.0000       1.855805        50.4990 
  39   0.0000       1.963580        53.4317 
  40   0.0000       2.136996        58.1506 
  41   0.0000       2.219330        60.3910 
  42   0.0000       2.248081        61.1734 
  43   0.0000       2.281784        62.0905 
  44   0.0000       2.308875        62.8277 
  45   0.0000       2.452991        66.7493 
  46   0.0000       2.547109        69.3104 
  47   0.0000       2.554926        69.5231 
  48   0.0000       2.592820        70.5542 
  49   0.0000       2.635621        71.7189 
  50   0.0000       2.691925        73.2510 
  51   0.0000       2.788143        75.8692 
  52   0.0000       2.839056        77.2546 
  53   0.0000       2.925220        79.5993 
  54   0.0000       3.059005        83.2398 
  55   0.0000       3.130096        85.1743 
  56   0.0000       3.131987        85.2257 
  57   0.0000       3.248100        88.3853 
  58   0.0000       3.354514        91.2810 
  59   0.0000       3.423863        93.1680 
  60   0.0000       3.543447        96.4221 
  61   0.0000       3.631988        98.8314 
  62   0.0000       3.670732        99.8857 
  63   0.0000       3.730541       101.5132 
  64   0.0000       3.862607       105.1069 
  65   0.0000       3.889674       105.8434 
  66   0.0000       3.909952       106.3952 
  67   0.0000       4.276837       116.3787 
  68   0.0000       4.491388       122.2169 
  69   0.0000       4.540409       123.5508 
  70   0.0000       4.706757       128.0774 
  71   0.0000       4.868298       132.4731 
  72   0.0000       5.695651       154.9865 
  73   0.0000       5.778520       157.2415 
  74   0.0000       5.896099       160.4410 
  75   0.0000       6.177473       168.0976 
  76   0.0000       6.177804       168.1066 
  77   0.0000       6.343956       172.6278 
  78   0.0000       6.741221       183.4379 
  79   0.0000       6.950761       189.1398 
  80   0.0000       7.161545       194.8756 
  81   0.0000       7.216044       196.3585 
  82   0.0000       7.461567       203.0395 
  83   0.0000       7.610629       207.0957 
  84   0.0000      23.365326       635.8028 
  85   0.0000      45.143235      1228.4099 

                    ********************************
                    * MULLIKEN POPULATION ANALYSIS *
                    ********************************

-----------------------
MULLIKEN ATOMIC CHARGES
-----------------------
   0 O :   -0.539766
   1 H :    0.326823
   2 C :   -0.076174
   3 H :    0.107872
   4 H :    0.090623
   5 H :    0.090623
Sum of atomic charges:    0.0000000

--------------------------------
MULLIKEN REDUCED ORBITAL CHARGES
--------------------------------
  0 O s       :     3.800477  s :     3.800477
      pz      :     1.924002  p :     4.704393
      px      :     1.440328
      py      :     1.340062
      dz2     :     0.005374  d :     0.033099
      dxz     :     0.001177
      dyz     :     0.003359
      dx2y2   :     0.017348
      dxy     :     0.005840
      f0      :     0.000186  f :     0.001797
      f+1     :     0.000389
      f-1     :     0.000404
      f+2     :     0.000097
      f-2     :     0.000026
      f+3     :     0.000251
      f-3     :     0.000444
  1 H s       :     0.627765  s :     0.627765
      pz      :     0.015613  p :     0.045413
      px      :     0.018703
      py      :     0.011096
  2 C s       :     3.192869  s :     3.192869
      pz      :     1.025555  p :     2.759272
      px      :     1.069878
      py      :     0.663839
      dz2     :     0.010720  d :     0.115039
      dxz     :     0.010643
      dyz     :     0.038829
      dx2y2   :     0.022667
      dxy     :     0.032180
      f0      :     0.001071  f :     0.008995
      f+1     :     0.001115
      f-1     :     0.001331
      f+2     :     0.001660
      f-2     :     0.000147
      f+3     :     0.002090
      f-3     :     0.001580
  3 H s       :     0.870897  s :     0.870897
      pz      :     0.003667  p :     0.021231
      px      :     0.014223
      py      :     0.003342
  4 H s       :     0.889367  s :     0.889367
      pz      :     0.010773  p :     0.020011
      px      :     0.005336
      py      :     0.003902
  5 H s       :     0.889367  s :     0.889367
      pz      :     0.010773  p :     0.020011
      px      :     0.005336
      py      :     0.003902


                     *******************************
                     * LOEWDIN POPULATION ANALYSIS *
                     *******************************

----------------------
LOEWDIN ATOMIC CHARGES
----------------------
   0 O :   -0.113079
   1 H :    0.174526
   2 C :   -0.339289
   3 H :    0.101693
   4 H :    0.088075
   5 H :    0.088075

-------------------------------
LOEWDIN REDUCED ORBITAL CHARGES
-------------------------------
  0 O s       :     3.380109  s :     3.380109
      pz      :     1.812118  p :     4.658633
      px      :     1.440789
      py      :     1.405726
      dz2     :     0.008933  d :     0.070032
      dxz     :     0.000413
      dyz     :     0.012369
      dx2y2   :     0.028649
      dxy     :     0.019668
      f0      :     0.000358  f :     0.004305
      f+1     :     0.000458
      f-1     :     0.000581
      f+2     :     0.000537
      f-2     :     0.000005
      f+3     :     0.001406
      f-3     :     0.000959
  1 H s       :     0.670215  s :     0.670215
      pz      :     0.044631  p :     0.155259
      px      :     0.080154
      py      :     0.030474
  2 C s       :     2.860950  s :     2.860950
      pz      :     1.079981  p :     2.993502
      px      :     1.098093
      py      :     0.815428
      dz2     :     0.051151  d :     0.426785
      dxz     :     0.031680
      dyz     :     0.142042
      dx2y2   :     0.104300
      dxy     :     0.097612
      f0      :     0.007093  f :     0.058052
      f+1     :     0.003392
      f-1     :     0.008202
      f+2     :     0.011081
      f-2     :     0.002959
      f+3     :     0.013706
      f-3     :     0.011619
  3 H s       :     0.839626  s :     0.839626
      pz      :     0.012201  p :     0.058681
      px      :     0.037104
      py      :     0.009376
  4 H s       :     0.853727  s :     0.853727
      pz      :     0.029515  p :     0.058198
      px      :     0.016934
      py      :     0.011750
  5 H s       :     0.853727  s :     0.853727
      pz      :     0.029515  p :     0.058198
      px      :     0.016934
      py      :     0.011750


                      *****************************
                      * MAYER POPULATION ANALYSIS *
                      *****************************

  NA   - Mulliken gross atomic population
  ZA   - Total nuclear charge
  QA   - Mulliken gross atomic charge
  VA   - Mayer's total valence
  BVA  - Mayer's bonded valence
  FA   - Mayer's free valence

  ATOM       NA         ZA         QA         VA         BVA        FA
  0 O      8.5398     8.0000    -0.5398     1.8012     1.8012     0.0000
  1 H      0.6732     1.0000     0.3268     0.9019     0.9019     0.0000
  2 C      6.0762     6.0000    -0.0762     3.8999     3.8999    -0.0000
  3 H      0.8921     1.0000     0.1079     0.9624     0.9624     0.0000
  4 H      0.9094     1.0000     0.0906     0.9607     0.9607    -0.0000
  5 H      0.9094     1.0000     0.0906     0.9607     0.9607     0.0000

  Mayer bond orders larger than 0.100000
B(  0-O ,  1-H ) :   0.8922 B(  0-O ,  2-C ) :   0.9349 B(  2-C ,  3-H ) :   0.9846 
B(  2-C ,  4-H ) :   0.9866 B(  2-C ,  5-H ) :   0.9866 

-------
TIMINGS
-------

Total SCF time: 0 days 0 hours 0 min 1 sec 

Total time                  ....       1.590 sec
Sum of individual times     ....       1.393 sec  ( 87.6%)

Fock matrix formation       ....       1.189 sec  ( 74.7%)
Diagonalization             ....       0.007 sec  (  0.4%)
Density matrix formation    ....       0.002 sec  (  0.1%)
Population analysis         ....       0.002 sec  (  0.1%)
Initial guess               ....       0.089 sec  (  5.6%)
Orbital Transformation      ....       0.000 sec  (  0.0%)
Orbital Orthonormalization  ....       0.000 sec  (  0.0%)
DIIS solution               ....       0.003 sec  (  0.2%)
SOSCF solution              ....       0.003 sec  (  0.2%)


           ************************************************************
           *        Program running with 12 parallel MPI-processes    *
           *              working on a common directory               *
           ************************************************************

------------------------------------------------------------------------------
                                ORCA  MP2 
------------------------------------------------------------------------------

Freezing NCore=4 chemical core electrons
MP2 will be done in the AO integral direct mode
The Q1-step will be done using symmetric double matrices
Dimension of the basis                    ...   86
Memory devoted for MP2                    ...  256 MB   
Memory needed for all in one shot         ...    3 MB
Number of MOs that can be treated together...  103      
MP2 density construction                  ... relaxed
The MP2 gradient is requested => amplitudes will be stored on disk
Total number of MOs              ...    7
Number of MOs treated per batch  ...    1 
Number of batches necessary      ...    1 
OPERATORS   0/  0 PASS   0
-----------------------------------------------
 MP2 CORRELATION ENERGY   :     -0.416094342 Eh
-----------------------------------------------


---------------------
MP2 DENSITY FORMATION
---------------------

Completing the external part of the density      ... done
Storing the unrelaxed density                    ... done

Calculating G(D)                                 ... done
Completing the Lagrangian                        ... done
Solving the Z-vector equations                   ... 

------------------------------------------------------------------------------
                           ORCA CP-SCF CALCULATION
------------------------------------------------------------------------------

Input orbitals are from        ... input.gbw
Input Perturbation             ... input.pin.tmp
Wavefunction output            ... input.pout.tmp
Perturbation mode              ... Real perturbation (singlet)
Solver                         ... POPLE
Max. number of iterations      ... 128
Convergence tolerance          ... 1.000e-08
Integral handling              ... Direct
Number of perturbations        ... 1
Number of operators            ... 1
Orbital ranges used for CP-SCF:
 Operator 0:  Orbitals   0...  8  to   9... 85
Variables per vector in CP-SCF ... 693
Number of vectors sought       ... 1
     CP-SCF ITERATION   0: 
     CP-SCF ITERATION   1:      0.000109452810
     CP-SCF ITERATION   2:      0.000005363717
     CP-SCF ITERATION   3:      0.000000829177
     CP-SCF ITERATION   4:      0.000000047363
     CP-SCF ITERATION   5:      0.000000001489
                                                 ... done
Finalizing the relaxed density                   ... done
Transforming P to the AO basis                   ... done
Storing the relaxed density                      ... done

------------------------------------
ENERGY WEIGHTED DENSITY FINALIZATION
------------------------------------

Gathering the parts of the W-matrix              ...                                                      done
Forming the Z-density                            ... done
Transforming Z to the AO basis                   ... done
Calculating G(Z)                                 ... done
Finalizing the W-matrix                          ...                                                      done
Transforming W to the AO basis and storing       ... done

                *********************************************
                * UNRELAXED MP2 DENSITY POPULATION ANALYSIS *
                *********************************************

------------------------------------------------------------------------------
                           ORCA POPULATION ANALYSIS
------------------------------------------------------------------------------
Input electron density              ... input.pmp2ur
BaseName (.gbw .S,...)              ... input

                    ********************************
                    * MULLIKEN POPULATION ANALYSIS *
                    ********************************

-----------------------
MULLIKEN ATOMIC CHARGES
-----------------------
   0 O :   -0.529065
   1 H :    0.324451
   2 C :   -0.092091
   3 H :    0.110655
   4 H :    0.093025
   5 H :    0.093025
Sum of atomic charges:    0.0000000

--------------------------------
MULLIKEN REDUCED ORBITAL CHARGES
--------------------------------
  0 O s       :     3.795330  s :     3.795330
      pz      :     1.910009  p :     4.668919
      px      :     1.430236
      py      :     1.328674
      dz2     :     0.010860  d :     0.060348
      dxz     :     0.006911
      dyz     :     0.009094
      dx2y2   :     0.022246
      dxy     :     0.011237
      f0      :     0.000561  f :     0.004468
      f+1     :     0.000749
      f-1     :     0.000772
      f+2     :     0.000493
      f-2     :     0.000399
      f+3     :     0.000659
      f-3     :     0.000834
  1 H s       :     0.628403  s :     0.628403
      pz      :     0.016549  p :     0.047146
      px      :     0.018794
      py      :     0.011803
  2 C s       :     3.190986  s :     3.190986
      pz      :     1.021306  p :     2.753123
      px      :     1.065035
      py      :     0.666783
      dz2     :     0.014929  d :     0.135650
      dxz     :     0.015446
      dyz     :     0.042918
      dx2y2   :     0.025700
      dxy     :     0.036657
      f0      :     0.001610  f :     0.012332
      f+1     :     0.001548
      f-1     :     0.001762
      f+2     :     0.002206
      f-2     :     0.000646
      f+3     :     0.002595
      f-3     :     0.001966
  3 H s       :     0.865024  s :     0.865024
      pz      :     0.004789  p :     0.024321
      px      :     0.015056
      py      :     0.004476
  4 H s       :     0.883777  s :     0.883777
      pz      :     0.011722  p :     0.023198
      px      :     0.006440
      py      :     0.005036
  5 H s       :     0.883777  s :     0.883777
      pz      :     0.011722  p :     0.023198
      px      :     0.006440
      py      :     0.005036


                     *******************************
                     * LOEWDIN POPULATION ANALYSIS *
                     *******************************

----------------------
LOEWDIN ATOMIC CHARGES
----------------------
   0 O :   -0.105629
   1 H :    0.173040
   2 C :   -0.349916
   3 H :    0.103435
   4 H :    0.089535
   5 H :    0.089535

-------------------------------
LOEWDIN REDUCED ORBITAL CHARGES
-------------------------------
  0 O s       :     3.376752  s :     3.376752
      pz      :     1.798955  p :     4.623002
      px      :     1.430633
      py      :     1.393415
      dz2     :     0.015155  d :     0.098640
      dxz     :     0.005990
      dyz     :     0.017925
      dx2y2   :     0.034748
      dxy     :     0.024822
      f0      :     0.000744  f :     0.007234
      f+1     :     0.000860
      f-1     :     0.001006
      f+2     :     0.000941
      f-2     :     0.000385
      f+3     :     0.001842
      f-3     :     0.001457
  1 H s       :     0.668200  s :     0.668200
      pz      :     0.045431  p :     0.158760
      px      :     0.082023
      py      :     0.031306
  2 C s       :     2.859817  s :     2.859817
      pz      :     1.073804  p :     2.979653
      px      :     1.091403
      py      :     0.814446
      dz2     :     0.055901  d :     0.447505
      dxz     :     0.036820
      dyz     :     0.145344
      dx2y2   :     0.108384
      dxy     :     0.101056
      f0      :     0.007624  f :     0.062941
      f+1     :     0.004143
      f-1     :     0.009106
      f+2     :     0.011589
      f-2     :     0.003674
      f+3     :     0.014228
      f-3     :     0.012577
  3 H s       :     0.832858  s :     0.832858
      pz      :     0.013422  p :     0.063707
      px      :     0.039434
      py      :     0.010851
  4 H s       :     0.847045  s :     0.847045
      pz      :     0.031593  p :     0.063421
      px      :     0.018440
      py      :     0.013388
  5 H s       :     0.847045  s :     0.847045
      pz      :     0.031593  p :     0.063421
      px      :     0.018440
      py      :     0.013388


                      *****************************
                      * MAYER POPULATION ANALYSIS *
                      *****************************

  NA   - Mulliken gross atomic population
  ZA   - Total nuclear charge
  QA   - Mulliken gross atomic charge
  VA   - Mayer's total valence
  BVA  - Mayer's bonded valence
  FA   - Mayer's free valence

  ATOM       NA         ZA         QA         VA         BVA        FA
  0 O      8.5291     8.0000    -0.5291     2.0969     1.6976     0.3993
  1 H      0.6755     1.0000     0.3245     0.9083     0.8576     0.0506
  2 C      6.0921     6.0000    -0.0921     4.0047     3.7267     0.2781
  3 H      0.8893     1.0000     0.1107     0.9714     0.9244     0.0470
  4 H      0.9070     1.0000     0.0930     0.9707     0.9214     0.0493
  5 H      0.9070     1.0000     0.0930     0.9707     0.9214     0.0493

  Mayer bond orders larger than 0.100000
B(  0-O ,  1-H ) :   0.8488 B(  0-O ,  2-C ) :   0.8764 B(  2-C ,  3-H ) :   0.9471 
B(  2-C ,  4-H ) :   0.9482 B(  2-C ,  5-H ) :   0.9482 


                *******************************************
                * RELAXED MP2 DENSITY POPULATION ANALYSIS *
                *******************************************

------------------------------------------------------------------------------
                           ORCA POPULATION ANALYSIS
------------------------------------------------------------------------------
Input electron density              ... input.pmp2re
BaseName (.gbw .S,...)              ... input

                    ********************************
                    * MULLIKEN POPULATION ANALYSIS *
                    ********************************

-----------------------
MULLIKEN ATOMIC CHARGES
-----------------------
   0 O :   -0.491546
   1 H :    0.318972
   2 C :   -0.173842
   3 H :    0.128916
   4 H :    0.108749
   5 H :    0.108749
Sum of atomic charges:    0.0000000

--------------------------------
MULLIKEN REDUCED ORBITAL CHARGES
--------------------------------
  0 O s       :     3.796585  s :     3.796585
      pz      :     1.896730  p :     4.632373
      px      :     1.413957
      py      :     1.321686
      dz2     :     0.010392  d :     0.058183
      dxz     :     0.007021
      dyz     :     0.009479
      dx2y2   :     0.019831
      dxy     :     0.011461
      f0      :     0.000568  f :     0.004405
      f+1     :     0.000735
      f-1     :     0.000754
      f+2     :     0.000499
      f-2     :     0.000398
      f+3     :     0.000658
      f-3     :     0.000793
  1 H s       :     0.633199  s :     0.633199
      pz      :     0.017754  p :     0.047829
      px      :     0.017953
      py      :     0.012122
  2 C s       :     3.212755  s :     3.212755
      pz      :     1.049652  p :     2.823124
      px      :     1.091736
      py      :     0.681736
      dz2     :     0.012238  d :     0.126173
      dxz     :     0.012402
      dyz     :     0.042132
      dx2y2   :     0.022331
      dxy     :     0.037069
      f0      :     0.001564  f :     0.011790
      f+1     :     0.001450
      f-1     :     0.001675
      f+2     :     0.002126
      f-2     :     0.000589
      f+3     :     0.002522
      f-3     :     0.001864
  3 H s       :     0.847928  s :     0.847928
      pz      :     0.005033  p :     0.023156
      px      :     0.013614
      py      :     0.004508
  4 H s       :     0.869164  s :     0.869164
      pz      :     0.010767  p :     0.022087
      px      :     0.006354
      py      :     0.004965
  5 H s       :     0.869164  s :     0.869164
      pz      :     0.010767  p :     0.022087
      px      :     0.006354
      py      :     0.004965


                     *******************************
                     * LOEWDIN POPULATION ANALYSIS *
                     *******************************

----------------------
LOEWDIN ATOMIC CHARGES
----------------------
   0 O :   -0.092720
   1 H :    0.175565
   2 C :   -0.384732
   3 H :    0.110712
   4 H :    0.095588
   5 H :    0.095588

-------------------------------
LOEWDIN REDUCED ORBITAL CHARGES
-------------------------------
  0 O s       :     3.379482  s :     3.379482
      pz      :     1.789177  p :     4.607810
      px      :     1.429150
      py      :     1.389483
      dz2     :     0.014997  d :     0.098088
      dxz     :     0.006050
      dyz     :     0.018514
      dx2y2   :     0.033388
      dxy     :     0.025137
      f0      :     0.000756  f :     0.007340
      f+1     :     0.000868
      f-1     :     0.001023
      f+2     :     0.000962
      f-2     :     0.000384
      f+3     :     0.001861
      f-3     :     0.001487
  1 H s       :     0.665109  s :     0.665109
      pz      :     0.046418  p :     0.159326
      px      :     0.081659
      py      :     0.031248
  2 C s       :     2.865645  s :     2.865645
      pz      :     1.090214  p :     3.019347
      px      :     1.106540
      py      :     0.822593
      dz2     :     0.052237  d :     0.438341
      dxz     :     0.033916
      dyz     :     0.147535
      dx2y2   :     0.104284
      dxy     :     0.100369
      f0      :     0.007373  f :     0.061399
      f+1     :     0.004014
      f-1     :     0.008998
      f+2     :     0.011120
      f-2     :     0.003652
      f+3     :     0.013865
      f-3     :     0.012378
  3 H s       :     0.825225  s :     0.825225
      pz      :     0.013925  p :     0.064063
      px      :     0.038904
      py      :     0.011233
  4 H s       :     0.840277  s :     0.840277
      pz      :     0.031432  p :     0.064135
      px      :     0.018755
      py      :     0.013949
  5 H s       :     0.840277  s :     0.840277
      pz      :     0.031432  p :     0.064135
      px      :     0.018755
      py      :     0.013949


                      *****************************
                      * MAYER POPULATION ANALYSIS *
                      *****************************

  NA   - Mulliken gross atomic population
  ZA   - Total nuclear charge
  QA   - Mulliken gross atomic charge
  VA   - Mayer's total valence
  BVA  - Mayer's bonded valence
  FA   - Mayer's free valence

  ATOM       NA         ZA         QA         VA         BVA        FA
  0 O      8.4915     8.0000    -0.4915     2.1521     1.7591     0.3931
  1 H      0.6810     1.0000     0.3190     0.9108     0.8600     0.0508
  2 C      6.1738     6.0000    -0.1738     4.0260     3.7501     0.2759
  3 H      0.8711     1.0000     0.1289     0.9628     0.9164     0.0464
  4 H      0.8913     1.0000     0.1087     0.9634     0.9147     0.0487
  5 H      0.8913     1.0000     0.1087     0.9634     0.9147     0.0487

  Mayer bond orders larger than 0.100000
B(  0-O ,  1-H ) :   0.8492 B(  0-O ,  2-C ) :   0.9281 B(  2-C ,  3-H ) :   0.9390 
B(  2-C ,  4-H ) :   0.9375 B(  2-C ,  5-H ) :   0.9375 


----------------------------------
MP2 DERIVATIVE INTEGRAL GENERATION
----------------------------------


Input Wavefunction Amplitudes       ... input.mp2tsaa.tmp
Input Correlated Electron Density   ... input.pmp2re
Input Energy Weighted Density       ... input.wmp2.tmp
Input SCF Electron Density          ... input.scfp

One-Electron Terms    ...
                        ... One-Electron Terms done
Prescreening matrices              ... done

Batch handling in the gradient evaluation:
Memory available                      ...  256.0 MB
Memory per occupied orbital in Q2     ...    0.4 MB
Memory per occupied orbital in Q3     ...    0.0 MB
Total memory requirement per |i>      ...    0.4 MB
Max. Number of orbitals possible      ...    599
Number of orbitals treated per batch  ...      7
Number of batches to be done          ...      1
Batch   0: i=    2 ...     8

---------------------------------------
MP2 TOTAL ENERGY:     -115.507508560 Eh
---------------------------------------

-----------------------------------
NORM OF THE MP2 GRADIENT:  0.012883
-----------------------------------

-------------------------   --------------------
FINAL SINGLE POINT ENERGY      -115.507508559512
-------------------------   --------------------

------------------------------------------------------------------------------
                         ORCA GEOMETRY RELAXATION STEP
------------------------------------------------------------------------------

Reading the OPT-File                    .... done
Getting information on internals        .... done
Copying old internal coords+grads       .... done
Making the new internal coordinates     .... (new redundants).... done
Validating the new internal coordinates .... (new redundants).... done
Calculating the B-matrix                .... done
Calculating the G,G- and P matrices     .... done
Transforming gradient to internals      .... done
Projecting the internal gradient        .... done
Number of atoms                         ....   6
Number of internal coordinates          ....  15
Current Energy                          ....  -115.507508560 Eh
Current gradient norm                   ....     0.012883336 Eh/bohr
Maximum allowed component of the step   ....  0.300
Current trust radius                    ....  0.300
Evaluating the initial hessian          ....  (Almloef) done
Projecting the Hessian                  .... done
Forming the augmented Hessian           .... done
Diagonalizing the augmented Hessian     .... done
Last element of RFO vector              ....  0.999662757
Lowest eigenvalues of augmented Hessian:
 -0.000248166  0.020068798  0.178834290  0.190828697  0.311173082
Length of the computed step             ....  0.025977457
The final length of the internal step   ....  0.025977457
Converting the step to cartesian space:
 Initial RMS(Int)=    0.0067073506
Transforming coordinates:
 Iter   0:  RMS(Cart)=    0.0061375494 RMS(Int)=    0.0067054376
 Iter   1:  RMS(Cart)=    0.0000150272 RMS(Int)=    0.0000136902
 Iter   2:  RMS(Cart)=    0.0000000688 RMS(Int)=    0.0000000812
done
Storing new coordinates                 .... done

                                .--------------------.
          ----------------------|Geometry convergence|-------------------------
          Item                value                   Tolerance       Converged
          ---------------------------------------------------------------------
          RMS gradient        0.0025062297            0.0001000000      NO
          MAX gradient        0.0053479542            0.0003000000      NO
          RMS step            0.0067073506            0.0020000000      NO
          MAX step            0.0135007582            0.0040000000      NO
          ........................................................
          Max(Bonds)      0.0071      Max(Angles)    0.29
          Max(Dihed)        0.10      Max(Improp)    0.00
          ---------------------------------------------------------------------

The optimization has not yet converged - more geometry cycles are needed


    ---------------------------------------------------------------------------
                         Redundant Internal Coordinates
                            (Angstroem and degrees)

        Definition                    Value    dE/dq     Step     New-Value
    ----------------------------------------------------------------------------
     1. B(H   1,O   0)                0.9687  0.005348 -0.0056    0.9631   
     2. B(C   2,O   0)                1.4186  0.000742 -0.0008    1.4179   
     3. B(H   3,C   2)                1.0934  0.003644 -0.0054    1.0880   
     4. B(H   4,C   2)                1.1013  0.004668 -0.0071    1.0941   
     5. B(H   5,C   2)                1.1013  0.004668 -0.0071    1.0941   
     6. A(H   1,O   0,C   2)          107.66  0.000172   -0.03    107.63   
     7. A(O   0,C   2,H   4)          112.71  0.001555   -0.29    112.42   
     8. A(H   3,C   2,H   4)          108.06 -0.000826    0.18    108.24   
     9. A(O   0,C   2,H   5)          112.71  0.001555   -0.29    112.42   
    10. A(H   3,C   2,H   5)          108.06 -0.000826    0.18    108.24   
    11. A(H   4,C   2,H   5)          108.39 -0.001257    0.18    108.57   
    12. A(O   0,C   2,H   3)          106.70 -0.000370    0.08    106.78   
    13. D(H   4,C   2,O   0,H   1)     61.55  0.000364   -0.10     61.44   
    14. D(H   5,C   2,O   0,H   1)    -61.55 -0.000364    0.10    -61.44   
    15. D(H   3,C   2,O   0,H   1)    180.00 -0.000000   -0.00    180.00   
    ----------------------------------------------------------------------------

         *************************************************************
         *                GEOMETRY OPTIMIZATION CYCLE   2            *
         *************************************************************
---------------------------------
CARTESIAN COORDINATES (ANGSTROEM)
---------------------------------
  O      0.044738   -0.755127   -0.000000
  H     -0.873652   -1.045181   -0.000000
  C      0.047387    0.662729    0.000000
  H      1.089637    0.974791   -0.000000
  H     -0.435295    1.080954    0.888369
  H     -0.435295    1.080954   -0.888369

----------------------------
CARTESIAN COORDINATES (A.U.)
----------------------------
  NO LB      ZA    FRAG     MASS         X           Y           Z
   0 O     8.0000    0    15.999    0.084542   -1.426984   -0.000000
   1 H     1.0000    0     1.008   -1.650963   -1.975106   -0.000000
   2 C     6.0000    0    12.011    0.089548    1.252377    0.000000
   3 H     1.0000    0     1.008    2.059116    1.842087   -0.000000
   4 H     1.0000    0     1.008   -0.822588    2.042707    1.678774
   5 H     1.0000    0     1.008   -0.822588    2.042707   -1.678774

--------------------------------
INTERNAL COORDINATES (ANGSTROEM)
--------------------------------
 O      0   0   0     0.000000000000     0.00000000     0.00000000
 H      1   0   0     0.963105239434     0.00000000     0.00000000
 C      1   2   0     1.417859209324   107.63465216     0.00000000
 H      3   1   2     1.087964919497   106.77532641   180.00000000
 H      3   1   2     1.094117406690   112.42187196    61.44439236
 H      3   1   2     1.094117406678   112.42187196   298.55560764

---------------------------
INTERNAL COORDINATES (A.U.)
---------------------------
 O      0   0   0     0.000000000000     0.00000000     0.00000000
 H      1   0   0     1.820005140675     0.00000000     0.00000000
 C      1   2   0     2.679365602080   107.63465216     0.00000000
 H      3   1   2     2.055955741163   106.77532641   180.00000000
 H      3   1   2     2.067582257000   112.42187196    61.44439236
 H      3   1   2     2.067582256977   112.42187196   298.55560764



           ************************************************************
           *        Program running with 12 parallel MPI-processes    *
           *              working on a common directory               *
           ************************************************************


           ************************************************************
           *        Program running with 12 parallel MPI-processes    *
           *              working on a common directory               *
           ************************************************************

Diagonalization of the overlap matrix:
Smallest eigenvalue                        ... 1.640e-03
Time for diagonalization                   ...    0.002 sec
Threshold for overlap eigenvalues          ... 1.000e-08
Number of eigenvalues below threshold      ... 0
Time for construction of square roots      ...    0.001 sec
Total time needed                          ...    0.003 sec

--------------
SCF ITERATIONS
--------------
ITER       Energy         Delta-E        Max-DP      RMS-DP      [F,P]     Damp
               ***  Starting incremental Fock matrix formation  ***
                      *** Initiating the SOSCF procedure ***
                      *** Re-Reading the Fockian *** 
                      *** Removing any level shift *** 
ITER      Energy       Delta-E        Grad      Rot      Max-DP    RMS-DP
  0   -115.09201762 -115.0920176250  0.001334  0.001334  0.001754  0.000065
               *** Restarting incremental Fock matrix formation ***
  1   -115.09204912  -0.0000314957  0.000411  0.000254  0.000373  0.000024
  2   -115.09205189  -0.0000027736  0.000100  0.000168  0.000165  0.000012
  3   -115.09205222  -0.0000003253  0.000051  0.000039  0.000066  0.000002
  4   -115.09205224  -0.0000000247  0.000009  0.000010  0.000017  0.000001
  5   -115.09205225  -0.0000000025  0.000004  0.000004  0.000007  0.000000
                 **** Energy Check signals convergence ****
              ***Rediagonalizing the Fockian in SOSCF/NRSCF***

               *****************************************************
               *                     SUCCESS                       *
               *           SCF CONVERGED AFTER   6 CYCLES          *
               *****************************************************

Total Energy       :         -115.09205225 Eh           -3131.81396 eV
  Last Energy change         ...   -3.9503e-10  Tolerance :   1.0000e-08
  Last MAX-Density change    ...    1.2409e-06  Tolerance :   1.0000e-07
             **** THE GBW FILE WAS UPDATED (input.gbw) ****
             **** DENSITY FILE WAS UPDATED (input.scfp) ****
             **** ENERGY FILE WAS UPDATED (input.en.tmp) ****
             **** THE GBW FILE WAS UPDATED (input.gbw) ****
             **** DENSITY FILE WAS UPDATED (input.scfp) ****
Total SCF time: 0 days 0 hours 0 min 0 sec 


           ************************************************************
           *        Program running with 12 parallel MPI-processes    *
           *              working on a common directory               *
           ************************************************************

------------------------------------------------------------------------------
                                ORCA  MP2 
------------------------------------------------------------------------------

Freezing NCore=4 chemical core electrons
MP2 will be done in the AO integral direct mode
The Q1-step will be done using symmetric double matrices
Dimension of the basis                    ...   86
Memory devoted for MP2                    ...  256 MB   
Memory needed for all in one shot         ...    3 MB
Number of MOs that can be treated together...  103      
MP2 density construction                  ... relaxed
The MP2 gradient is requested => amplitudes will be stored on disk
Total number of MOs              ...    7
Number of MOs treated per batch  ...    1 
Number of batches necessary      ...    1 
OPERATORS   0/  0 PASS   0
-----------------------------------------------
 MP2 CORRELATION ENERGY   :     -0.415590488 Eh
-----------------------------------------------


---------------------
MP2 DENSITY FORMATION
---------------------

Completing the external part of the density      ... done
Storing the unrelaxed density                    ... done

Calculating G(D)                                 ... done
Completing the Lagrangian                        ... done
Solving the Z-vector equations                   ... 

------------------------------------------------------------------------------
                           ORCA CP-SCF CALCULATION
------------------------------------------------------------------------------

Input orbitals are from        ... input.gbw
Input Perturbation             ... input.pin.tmp
Wavefunction output            ... input.pout.tmp
Perturbation mode              ... Real perturbation (singlet)
Solver                         ... POPLE
Max. number of iterations      ... 128
Convergence tolerance          ... 1.000e-08
Integral handling              ... Direct
Number of perturbations        ... 1
Number of operators            ... 1
Orbital ranges used for CP-SCF:
 Operator 0:  Orbitals   0...  8  to   9... 85
Variables per vector in CP-SCF ... 693
Number of vectors sought       ... 1
     CP-SCF ITERATION   0: 
     CP-SCF ITERATION   1:      0.000105607508
     CP-SCF ITERATION   2:      0.000005183001
     CP-SCF ITERATION   3:      0.000000807117
     CP-SCF ITERATION   4:      0.000000045275
     CP-SCF ITERATION   5:      0.000000001417
                                                 ... done
Finalizing the relaxed density                   ... done
Transforming P to the AO basis                   ... done
Storing the relaxed density                      ... done

------------------------------------
ENERGY WEIGHTED DENSITY FINALIZATION
------------------------------------

Gathering the parts of the W-matrix              ...                                                      done
Forming the Z-density                            ... done
Transforming Z to the AO basis                   ... done
Calculating G(Z)                                 ... done
Finalizing the W-matrix                          ...                                                      done
Transforming W to the AO basis and storing       ... done

----------------------------------
MP2 DERIVATIVE INTEGRAL GENERATION
----------------------------------


Input Wavefunction Amplitudes       ... input.mp2tsaa.tmp
Input Correlated Electron Density   ... input.pmp2re
Input Energy Weighted Density       ... input.wmp2.tmp
Input SCF Electron Density          ... input.scfp

One-Electron Terms    ...
                        ... One-Electron Terms done
Prescreening matrices              ... done

Batch handling in the gradient evaluation:
Memory available                      ...  256.0 MB
Memory per occupied orbital in Q2     ...    0.4 MB
Memory per occupied orbital in Q3     ...    0.0 MB
Total memory requirement per |i>      ...    0.4 MB
Max. Number of orbitals possible      ...    599
Number of orbitals treated per batch  ...      7
Number of batches to be done          ...      1
Batch   0: i=    2 ...     8

---------------------------------------
MP2 TOTAL ENERGY:     -115.507642735 Eh
---------------------------------------

-----------------------------------
NORM OF THE MP2 GRADIENT:  0.002868
-----------------------------------

-------------------------   --------------------
FINAL SINGLE POINT ENERGY      -115.507642735160
-------------------------   --------------------

------------------------------------------------------------------------------
                         ORCA GEOMETRY RELAXATION STEP
------------------------------------------------------------------------------

Reading the OPT-File                    .... done
Getting information on internals        .... done
Copying old internal coords+grads       .... done
Making the new internal coordinates     .... (new redundants).... done
Validating the new internal coordinates .... (new redundants).... done
Calculating the B-matrix                .... done
Calculating the G,G- and P matrices     .... done
Transforming gradient to internals      .... done
Projecting the internal gradient        .... done
Number of atoms                         ....   6
Number of internal coordinates          ....  15
Current Energy                          ....  -115.507642735 Eh
Current gradient norm                   ....     0.002868197 Eh/bohr
Maximum allowed component of the step   ....  0.300
Current trust radius                    ....  0.300
Updating the Hessian (BFGS)             .... done
Forming the augmented Hessian           .... done
Diagonalizing the augmented Hessian     .... done
Last element of RFO vector              ....  0.999979700
Lowest eigenvalues of augmented Hessian:
 -0.000011117  0.020068798  0.177693602  0.190828697  0.260678813
Length of the computed step             ....  0.006371837
The final length of the internal step   ....  0.006371837
Converting the step to cartesian space:
 Initial RMS(Int)=    0.0016452012
Transforming coordinates:
 Iter   0:  RMS(Cart)=    0.0014204108 RMS(Int)=    1.6223123032
 Iter   1:  RMS(Cart)=    0.0000026220 RMS(Int)=    0.0000030917
 Iter   2:  RMS(Cart)=    0.0000000058 RMS(Int)=    0.0000000055
done
Storing new coordinates                 .... done

                                .--------------------.
          ----------------------|Geometry convergence|-------------------------
          Item                value                   Tolerance       Converged
          ---------------------------------------------------------------------
          Energy change      -0.0001341756            0.0000050000      NO
          RMS gradient        0.0004642543            0.0001000000      NO
          MAX gradient        0.0008484150            0.0003000000      NO
          RMS step            0.0016452012            0.0020000000      YES
          MAX step            0.0031512576            0.0040000000      YES
          ........................................................
          Max(Bonds)      0.0008      Max(Angles)    0.18
          Max(Dihed)        0.04      Max(Improp)    0.00
          ---------------------------------------------------------------------

The optimization has not yet converged - more geometry cycles are needed


    ---------------------------------------------------------------------------
                         Redundant Internal Coordinates
                            (Angstroem and degrees)

        Definition                    Value    dE/dq     Step     New-Value
    ----------------------------------------------------------------------------
     1. B(H   1,O   0)                0.9631 -0.000085 -0.0001    0.9630   
     2. B(C   2,O   0)                1.4179 -0.000767  0.0008    1.4187   
     3. B(H   3,C   2)                1.0880  0.000126 -0.0004    1.0876   
     4. B(H   4,C   2)                1.0941  0.000181 -0.0006    1.0935   
     5. B(H   5,C   2)                1.0941  0.000181 -0.0006    1.0935   
     6. A(H   1,O   0,C   2)          107.63 -0.000173    0.03    107.66   
     7. A(O   0,C   2,H   4)          112.42  0.000848   -0.18    112.24   
     8. A(H   3,C   2,H   4)          108.24 -0.000456    0.11    108.35   
     9. A(O   0,C   2,H   5)          112.42  0.000848   -0.18    112.24   
    10. A(H   3,C   2,H   5)          108.24 -0.000456    0.11    108.35   
    11. A(H   4,C   2,H   5)          108.57 -0.000801    0.15    108.73   
    12. A(O   0,C   2,H   3)          106.78 -0.000062    0.02    106.79   
    13. D(H   4,C   2,O   0,H   1)     61.44  0.000114   -0.04     61.41   
    14. D(H   5,C   2,O   0,H   1)    -61.44 -0.000114    0.04    -61.41   
    15. D(H   3,C   2,O   0,H   1)    180.00 -0.000000    0.00    180.00   
    ----------------------------------------------------------------------------

         *************************************************************
         *                GEOMETRY OPTIMIZATION CYCLE   3            *
         *************************************************************
---------------------------------
CARTESIAN COORDINATES (ANGSTROEM)
---------------------------------
  O      0.044236   -0.754614    0.000000
  H     -0.874119   -1.044376   -0.000000
  C      0.048003    0.664081    0.000000
  H      1.090018    0.975492   -0.000000
  H     -0.435309    1.079268    0.888742
  H     -0.435309    1.079268   -0.888742

----------------------------
CARTESIAN COORDINATES (A.U.)
----------------------------
  NO LB      ZA    FRAG     MASS         X           Y           Z
   0 O     8.0000    0    15.999    0.083595   -1.426013    0.000000
   1 H     1.0000    0     1.008   -1.651846   -1.973585   -0.000000
   2 C     6.0000    0    12.011    0.090713    1.254932    0.000000
   3 H     1.0000    0     1.008    2.059835    1.843412   -0.000000
   4 H     1.0000    0     1.008   -0.822615    2.039521    1.679479
   5 H     1.0000    0     1.008   -0.822615    2.039521   -1.679479

--------------------------------
INTERNAL COORDINATES (ANGSTROEM)
--------------------------------
 O      0   0   0     0.000000000000     0.00000000     0.00000000
 H      1   0   0     0.962984429328     0.00000000     0.00000000
 C      1   2   0     1.418699969026   107.66383277     0.00000000
 H      3   1   2     1.087552686318   106.79113556   180.00000085
 H      3   1   2     1.093541912065   112.24060422    61.40719862
 H      3   1   2     1.093541912069   112.24060422   298.59280139

---------------------------
INTERNAL COORDINATES (A.U.)
---------------------------
 O      0   0   0     0.000000000000     0.00000000     0.00000000
 H      1   0   0     1.819776842661     0.00000000     0.00000000
 C      1   2   0     2.680954407661   107.66383277     0.00000000
 H      3   1   2     2.055176733351   106.79113556   180.00000085
 H      3   1   2     2.066494729768   112.24060422    61.40719862
 H      3   1   2     2.066494729774   112.24060422   298.59280139



           ************************************************************
           *        Program running with 12 parallel MPI-processes    *
           *              working on a common directory               *
           ************************************************************


           ************************************************************
           *        Program running with 12 parallel MPI-processes    *
           *              working on a common directory               *
           ************************************************************

Diagonalization of the overlap matrix:
Smallest eigenvalue                        ... 1.637e-03
Time for diagonalization                   ...    0.002 sec
Threshold for overlap eigenvalues          ... 1.000e-08
Number of eigenvalues below threshold      ... 0
Time for construction of square roots      ...    0.001 sec
Total time needed                          ...    0.003 sec

--------------
SCF ITERATIONS
--------------
ITER       Energy         Delta-E        Max-DP      RMS-DP      [F,P]     Damp
               ***  Starting incremental Fock matrix formation  ***
                      *** Initiating the SOSCF procedure ***
                      *** Re-Reading the Fockian *** 
                      *** Removing any level shift *** 
ITER      Energy       Delta-E        Grad      Rot      Max-DP    RMS-DP
  0   -115.09207895 -115.0920789486  0.000183  0.000183  0.000196  0.000013
               *** Restarting incremental Fock matrix formation ***
  1   -115.09208016  -0.0000012129  0.000088  0.000107  0.000097  0.000006
  2   -115.09208033  -0.0000001714  0.000028  0.000056  0.000055  0.000003
  3   -115.09208035  -0.0000000198  0.000014  0.000007  0.000017  0.000001
  4   -115.09208036  -0.0000000028  0.000003  0.000002  0.000003  0.000000
                 **** Energy Check signals convergence ****
              ***Rediagonalizing the Fockian in SOSCF/NRSCF***

               *****************************************************
               *                     SUCCESS                       *
               *           SCF CONVERGED AFTER   5 CYCLES          *
               *****************************************************

Total Energy       :         -115.09208036 Eh           -3131.81472 eV
  Last Energy change         ...   -1.5453e-10  Tolerance :   1.0000e-08
  Last MAX-Density change    ...    1.3835e-06  Tolerance :   1.0000e-07
             **** THE GBW FILE WAS UPDATED (input.gbw) ****
             **** DENSITY FILE WAS UPDATED (input.scfp) ****
             **** ENERGY FILE WAS UPDATED (input.en.tmp) ****
             **** THE GBW FILE WAS UPDATED (input.gbw) ****
             **** DENSITY FILE WAS UPDATED (input.scfp) ****
Total SCF time: 0 days 0 hours 0 min 0 sec 


           ************************************************************
           *        Program running with 12 parallel MPI-processes    *
           *              working on a common directory               *
           ************************************************************

------------------------------------------------------------------------------
                                ORCA  MP2 
------------------------------------------------------------------------------

Freezing NCore=4 chemical core electrons
MP2 will be done in the AO integral direct mode
The Q1-step will be done using symmetric double matrices
Dimension of the basis                    ...   86
Memory devoted for MP2                    ...  256 MB   
Memory needed for all in one shot         ...    3 MB
Number of MOs that can be treated together...  103      
MP2 density construction                  ... relaxed
The MP2 gradient is requested => amplitudes will be stored on disk
Total number of MOs              ...    7
Number of MOs treated per batch  ...    1 
Number of batches necessary      ...    1 
OPERATORS   0/  0 PASS   0
-----------------------------------------------
 MP2 CORRELATION ENERGY   :     -0.415570293 Eh
-----------------------------------------------


---------------------
MP2 DENSITY FORMATION
---------------------

Completing the external part of the density      ... done
Storing the unrelaxed density                    ... done

Calculating G(D)                                 ... done
Completing the Lagrangian                        ... done
Solving the Z-vector equations                   ... 

------------------------------------------------------------------------------
                           ORCA CP-SCF CALCULATION
------------------------------------------------------------------------------

Input orbitals are from        ... input.gbw
Input Perturbation             ... input.pin.tmp
Wavefunction output            ... input.pout.tmp
Perturbation mode              ... Real perturbation (singlet)
Solver                         ... POPLE
Max. number of iterations      ... 128
Convergence tolerance          ... 1.000e-08
Integral handling              ... Direct
Number of perturbations        ... 1
Number of operators            ... 1
Orbital ranges used for CP-SCF:
 Operator 0:  Orbitals   0...  8  to   9... 85
Variables per vector in CP-SCF ... 693
Number of vectors sought       ... 1
     CP-SCF ITERATION   0: 
     CP-SCF ITERATION   1:      0.000105311871
     CP-SCF ITERATION   2:      0.000005194445
     CP-SCF ITERATION   3:      0.000000812849
     CP-SCF ITERATION   4:      0.000000045233
     CP-SCF ITERATION   5:      0.000000001411
                                                 ... done
Finalizing the relaxed density                   ... done
Transforming P to the AO basis                   ... done
Storing the relaxed density                      ... done

------------------------------------
ENERGY WEIGHTED DENSITY FINALIZATION
------------------------------------

Gathering the parts of the W-matrix              ...                                                      done
Forming the Z-density                            ... done
Transforming Z to the AO basis                   ... done
Calculating G(Z)                                 ... done
Finalizing the W-matrix                          ...                                                      done
Transforming W to the AO basis and storing       ... done

----------------------------------
MP2 DERIVATIVE INTEGRAL GENERATION
----------------------------------


Input Wavefunction Amplitudes       ... input.mp2tsaa.tmp
Input Correlated Electron Density   ... input.pmp2re
Input Energy Weighted Density       ... input.wmp2.tmp
Input SCF Electron Density          ... input.scfp

One-Electron Terms    ...
                        ... One-Electron Terms done
Prescreening matrices              ... done

Batch handling in the gradient evaluation:
Memory available                      ...  256.0 MB
Memory per occupied orbital in Q2     ...    0.4 MB
Memory per occupied orbital in Q3     ...    0.0 MB
Total memory requirement per |i>      ...    0.4 MB
Max. Number of orbitals possible      ...    599
Number of orbitals treated per batch  ...      7
Number of batches to be done          ...      1
Batch   0: i=    2 ...     8

---------------------------------------
MP2 TOTAL ENERGY:     -115.507650648 Eh
---------------------------------------

-----------------------------------
NORM OF THE MP2 GRADIENT:  0.001454
-----------------------------------

-------------------------   --------------------
FINAL SINGLE POINT ENERGY      -115.507650648162
-------------------------   --------------------

------------------------------------------------------------------------------
                         ORCA GEOMETRY RELAXATION STEP
------------------------------------------------------------------------------

Reading the OPT-File                    .... done
Getting information on internals        .... done
Copying old internal coords+grads       .... done
Making the new internal coordinates     .... (new redundants).... done
Validating the new internal coordinates .... (new redundants).... done
Calculating the B-matrix                .... done
Calculating the G,G- and P matrices     .... done
Transforming gradient to internals      .... done
Projecting the internal gradient        .... done
Number of atoms                         ....   6
Number of internal coordinates          ....  15
Current Energy                          ....  -115.507650648 Eh
Current gradient norm                   ....     0.001453661 Eh/bohr
Maximum allowed component of the step   ....  0.300
Current trust radius                    ....  0.300
Updating the Hessian (BFGS)             .... done
Forming the augmented Hessian           .... done
Diagonalizing the augmented Hessian     .... done
Last element of RFO vector              ....  0.999984044
Lowest eigenvalues of augmented Hessian:
 -0.000005076  0.020068798  0.147454228  0.181337380  0.190828697
Length of the computed step             ....  0.005649167
The final length of the internal step   ....  0.005649167
Converting the step to cartesian space:
 Initial RMS(Int)=    0.0014586087
Transforming coordinates:
 Iter   0:  RMS(Cart)=    0.0012029316 RMS(Int)=    1.6223121250
 Iter   1:  RMS(Cart)=    0.0000021978 RMS(Int)=    0.0000026598
 Iter   2:  RMS(Cart)=    0.0000000043 RMS(Int)=    0.0000000048
done
Storing new coordinates                 .... done

                                .--------------------.
          ----------------------|Geometry convergence|-------------------------
          Item                value                   Tolerance       Converged
[...]
Max. number of iterations      ... 128
Convergence tolerance          ... 1.000e-08
Integral handling              ... Direct
Number of perturbations        ... 1
Number of operators            ... 1
Orbital ranges used for CP-SCF:
 Operator 0:  Orbitals   0...  8  to   9... 85
Variables per vector in CP-SCF ... 693
Number of vectors sought       ... 1
     CP-SCF ITERATION   0: 
     CP-SCF ITERATION   1:      0.000105314493
     CP-SCF ITERATION   2:      0.000005248098
     CP-SCF ITERATION   3:      0.000000828484
     CP-SCF ITERATION   4:      0.000000045475
     CP-SCF ITERATION   5:      0.000000001415
                                                 ... done
Finalizing the relaxed density                   ... done
Transforming P to the AO basis                   ... done
Storing the relaxed density                      ... done

------------------------------------
ENERGY WEIGHTED DENSITY FINALIZATION
------------------------------------

Gathering the parts of the W-matrix              ...                                                      done
Forming the Z-density                            ... done
Transforming Z to the AO basis                   ... done
Calculating G(Z)                                 ... done
Finalizing the W-matrix                          ...                                                      done
Transforming W to the AO basis and storing       ... done

                *********************************************
                * UNRELAXED MP2 DENSITY POPULATION ANALYSIS *
                *********************************************

------------------------------------------------------------------------------
                           ORCA POPULATION ANALYSIS
------------------------------------------------------------------------------
Input electron density              ... input.pmp2ur
BaseName (.gbw .S,...)              ... input

                    ********************************
                    * MULLIKEN POPULATION ANALYSIS *
                    ********************************

-----------------------
MULLIKEN ATOMIC CHARGES
-----------------------
   0 O :   -0.530642
   1 H :    0.323216
   2 C :   -0.088623
   3 H :    0.110242
   4 H :    0.092904
   5 H :    0.092904
Sum of atomic charges:   -0.0000000

--------------------------------
MULLIKEN REDUCED ORBITAL CHARGES
--------------------------------
  0 O s       :     3.794332  s :     3.794332
      pz      :     1.910796  p :     4.671554
      px      :     1.429999
      py      :     1.330760
      dz2     :     0.010849  d :     0.060275
      dxz     :     0.006921
      dyz     :     0.009098
      dx2y2   :     0.022267
      dxy     :     0.011140
      f0      :     0.000561  f :     0.004480
      f+1     :     0.000755
      f-1     :     0.000771
      f+2     :     0.000494
      f-2     :     0.000399
      f+3     :     0.000666
      f-3     :     0.000833
  1 H s       :     0.628999  s :     0.628999
      pz      :     0.016839  p :     0.047785
      px      :     0.018980
      py      :     0.011966
  2 C s       :     3.188500  s :     3.188500
      pz      :     1.021897  p :     2.753053
      px      :     1.065093
      py      :     0.666062
      dz2     :     0.014979  d :     0.134764
      dxz     :     0.015440
      dyz     :     0.042354
      dx2y2   :     0.025750
      dxy     :     0.036241
      f0      :     0.001609  f :     0.012306
      f+1     :     0.001578
      f-1     :     0.001739
      f+2     :     0.002203
      f-2     :     0.000631
      f+3     :     0.002587
      f-3     :     0.001959
  3 H s       :     0.865275  s :     0.865275
      pz      :     0.004833  p :     0.024484
      px      :     0.015143
      py      :     0.004507
  4 H s       :     0.883673  s :     0.883673
      pz      :     0.011873  p :     0.023423
      px      :     0.006537
      py      :     0.005014
  5 H s       :     0.883673  s :     0.883673
      pz      :     0.011873  p :     0.023423
      px      :     0.006537
      py      :     0.005014


                     *******************************
                     * LOEWDIN POPULATION ANALYSIS *
                     *******************************

----------------------
LOEWDIN ATOMIC CHARGES
----------------------
   0 O :   -0.104873
   1 H :    0.169168
   2 C :   -0.344298
   3 H :    0.102590
   4 H :    0.088706
   5 H :    0.088706

-------------------------------
LOEWDIN REDUCED ORBITAL CHARGES
-------------------------------
  0 O s       :     3.374283  s :     3.374283
      pz      :     1.799280  p :     4.624817
      px      :     1.431638
      py      :     1.393899
      dz2     :     0.015132  d :     0.098521
      dxz     :     0.005981
      dyz     :     0.017947
      dx2y2   :     0.034849
      dxy     :     0.024612
      f0      :     0.000746  f :     0.007252
      f+1     :     0.000872
      f-1     :     0.000999
      f+2     :     0.000943
      f-2     :     0.000384
      f+3     :     0.001854
      f-3     :     0.001453
  1 H s       :     0.669451  s :     0.669451
      pz      :     0.046535  p :     0.161382
      px      :     0.082861
      py      :     0.031985
  2 C s       :     2.856259  s :     2.856259
      pz      :     1.074734  p :     2.979276
      px      :     1.091751
      py      :     0.812790
      dz2     :     0.056423  d :     0.445713
      dxz     :     0.037281
      dyz     :     0.143492
      dx2y2   :     0.108510
      dxy     :     0.100007
      f0      :     0.007639  f :     0.063050
      f+1     :     0.004275
      f-1     :     0.009082
      f+2     :     0.011623
      f-2     :     0.003662
      f+3     :     0.014182
      f-3     :     0.012586
  3 H s       :     0.832960  s :     0.832960
      pz      :     0.013698  p :     0.064450
      px      :     0.039729
      py      :     0.011023
  4 H s       :     0.846869  s :     0.846869
      pz      :     0.032065  p :     0.064424
      px      :     0.018875
      py      :     0.013484
  5 H s       :     0.846869  s :     0.846869
      pz      :     0.032065  p :     0.064424
      px      :     0.018875
      py      :     0.013484


                      *****************************
                      * MAYER POPULATION ANALYSIS *
                      *****************************

  NA   - Mulliken gross atomic population
  ZA   - Total nuclear charge
  QA   - Mulliken gross atomic charge
  VA   - Mayer's total valence
  BVA  - Mayer's bonded valence
  FA   - Mayer's free valence

  ATOM       NA         ZA         QA         VA         BVA        FA
  0 O      8.5306     8.0000    -0.5306     2.0951     1.6965     0.3986
  1 H      0.6768     1.0000     0.3232     0.9096     0.8594     0.0502
  2 C      6.0886     6.0000    -0.0886     4.0045     3.7282     0.2763
  3 H      0.8898     1.0000     0.1102     0.9716     0.9250     0.0466
  4 H      0.9071     1.0000     0.0929     0.9713     0.9225     0.0488
  5 H      0.9071     1.0000     0.0929     0.9713     0.9225     0.0488

  Mayer bond orders larger than 0.100000
B(  0-O ,  1-H ) :   0.8507 B(  0-O ,  2-C ) :   0.8745 B(  2-C ,  3-H ) :   0.9476 
B(  2-C ,  4-H ) :   0.9498 B(  2-C ,  5-H ) :   0.9498 


                *******************************************
                * RELAXED MP2 DENSITY POPULATION ANALYSIS *
                *******************************************

------------------------------------------------------------------------------
                           ORCA POPULATION ANALYSIS
------------------------------------------------------------------------------
Input electron density              ... input.pmp2re
BaseName (.gbw .S,...)              ... input

                    ********************************
                    * MULLIKEN POPULATION ANALYSIS *
                    ********************************

-----------------------
MULLIKEN ATOMIC CHARGES
-----------------------
   0 O :   -0.493023
   1 H :    0.317805
   2 C :   -0.171173
   3 H :    0.128576
   4 H :    0.108908
   5 H :    0.108908
Sum of atomic charges:    0.0000000

--------------------------------
MULLIKEN REDUCED ORBITAL CHARGES
--------------------------------
  0 O s       :     3.795485  s :     3.795485
      pz      :     1.897886  p :     4.634993
      px      :     1.413914
      py      :     1.323193
      dz2     :     0.010387  d :     0.058129
      dxz     :     0.007031
      dyz     :     0.009479
      dx2y2   :     0.019863
      dxy     :     0.011370
      f0      :     0.000568  f :     0.004417
      f+1     :     0.000740
      f-1     :     0.000754
      f+2     :     0.000500
      f-2     :     0.000399
      f+3     :     0.000664
      f-3     :     0.000793
  1 H s       :     0.633706  s :     0.633706
      pz      :     0.018046  p :     0.048489
      px      :     0.018152
      py      :     0.012290
  2 C s       :     3.210722  s :     3.210722
      pz      :     1.050030  p :     2.823255
      px      :     1.091780
      py      :     0.681445
      dz2     :     0.012270  d :     0.125433
      dxz     :     0.012424
      dyz     :     0.041696
      dx2y2   :     0.022367
      dxy     :     0.036675
      f0      :     0.001564  f :     0.011764
      f+1     :     0.001477
      f-1     :     0.001653
      f+2     :     0.002122
      f-2     :     0.000575
      f+3     :     0.002513
      f-3     :     0.001859
  3 H s       :     0.848101  s :     0.848101
      pz      :     0.005079  p :     0.023324
      px      :     0.013697
      py      :     0.004547
  4 H s       :     0.868773  s :     0.868773
      pz      :     0.010902  p :     0.022319
      px      :     0.006445
      py      :     0.004972
  5 H s       :     0.868773  s :     0.868773
      pz      :     0.010902  p :     0.022319
      px      :     0.006445
      py      :     0.004972


                     *******************************
                     * LOEWDIN POPULATION ANALYSIS *
                     *******************************

----------------------
LOEWDIN ATOMIC CHARGES
----------------------
   0 O :   -0.091948
   1 H :    0.171723
   2 C :   -0.378959
   3 H :    0.109767
   4 H :    0.094709
   5 H :    0.094709

-------------------------------
LOEWDIN REDUCED ORBITAL CHARGES
-------------------------------
  0 O s       :     3.376961  s :     3.376961
      pz      :     1.789796  p :     4.609634
      px      :     1.430261
      py      :     1.389577
      dz2     :     0.014980  d :     0.097996
      dxz     :     0.006042
      dyz     :     0.018531
      dx2y2   :     0.033512
      dxy     :     0.024931
      f0      :     0.000758  f :     0.007358
      f+1     :     0.000880
      f-1     :     0.001017
      f+2     :     0.000963
      f-2     :     0.000384
      f+3     :     0.001873
      f-3     :     0.001483
  1 H s       :     0.666338  s :     0.666338
      pz      :     0.047514  p :     0.161939
      px      :     0.082511
      py      :     0.031914
  2 C s       :     2.862062  s :     2.862062
      pz      :     1.090851  p :     3.018918
      px      :     1.106724
      py      :     0.821342
      dz2     :     0.052714  d :     0.436458
      dxz     :     0.034353
      dyz     :     0.145669
      dx2y2   :     0.104368
      dxy     :     0.099353
      f0      :     0.007394  f :     0.061522
      f+1     :     0.004142
      f-1     :     0.008972
      f+2     :     0.011168
      f-2     :     0.003640
      f+3     :     0.013823
      f-3     :     0.012383
  3 H s       :     0.825393  s :     0.825393
      pz      :     0.014210  p :     0.064840
      px      :     0.039208
      py      :     0.011422
  4 H s       :     0.840104  s :     0.840104
      pz      :     0.031907  p :     0.065187
      px      :     0.019197
      py      :     0.014083
  5 H s       :     0.840104  s :     0.840104
      pz      :     0.031907  p :     0.065187
      px      :     0.019197
      py      :     0.014083


                      *****************************
                      * MAYER POPULATION ANALYSIS *
                      *****************************

  NA   - Mulliken gross atomic population
  ZA   - Total nuclear charge
  QA   - Mulliken gross atomic charge
  VA   - Mayer's total valence
  BVA  - Mayer's bonded valence
  FA   - Mayer's free valence

  ATOM       NA         ZA         QA         VA         BVA        FA
  0 O      8.4930     8.0000    -0.4930     2.1497     1.7573     0.3924
  1 H      0.6822     1.0000     0.3178     0.9120     0.8617     0.0503
  2 C      6.1712     6.0000    -0.1712     4.0263     3.7521     0.2742
  3 H      0.8714     1.0000     0.1286     0.9629     0.9169     0.0460
  4 H      0.8911     1.0000     0.1089     0.9641     0.9159     0.0482
  5 H      0.8911     1.0000     0.1089     0.9641     0.9159     0.0482

  Mayer bond orders larger than 0.100000
B(  0-O ,  1-H ) :   0.8511 B(  0-O ,  2-C ) :   0.9260 B(  2-C ,  3-H ) :   0.9395 
B(  2-C ,  4-H ) :   0.9393 B(  2-C ,  5-H ) :   0.9393 


----------------------------------
MP2 DERIVATIVE INTEGRAL GENERATION
----------------------------------


Input Wavefunction Amplitudes       ... input.mp2tsaa.tmp
Input Correlated Electron Density   ... input.pmp2re
Input Energy Weighted Density       ... input.wmp2.tmp
Input SCF Electron Density          ... input.scfp

One-Electron Terms    ...
                        ... One-Electron Terms done
Prescreening matrices              ... done

Batch handling in the gradient evaluation:
Memory available                      ...  256.0 MB
Memory per occupied orbital in Q2     ...    0.4 MB
Memory per occupied orbital in Q3     ...    0.0 MB
Total memory requirement per |i>      ...    0.4 MB
Max. Number of orbitals possible      ...    599
Number of orbitals treated per batch  ...      7
Number of batches to be done          ...      1
Batch   0: i=    2 ...     8

---------------------------------------
MP2 TOTAL ENERGY:     -115.507653539 Eh
---------------------------------------

-----------------------------------
NORM OF THE MP2 GRADIENT:  0.000158
-----------------------------------

-------------------------   --------------------
FINAL SINGLE POINT ENERGY      -115.507653539284
-------------------------   --------------------

                                *** OPTIMIZATION RUN DONE ***

                            ***************************************
                            *     ORCA property calculations      *
                            ***************************************

                                    ---------------------
                                    Active property flags
                                    ---------------------
   (+) Dipole Moment


------------------------------------------------------------------------------
                       ORCA ELECTRIC PROPERTIES CALCULATION
------------------------------------------------------------------------------

Dipole Moment Calculation                       ... on
Quadrupole Moment Calculation                   ... off
Polarizability Calculation                      ... off
GBWName                                         ... input.gbw
Electron density file                           ... input.scfp
The origin for moment calculation is the CENTER OF MASS  = ( 0.036928, -0.116288 -0.000000)

-------------
DIPOLE MOMENT
-------------
                                X             Y             Z
Electronic contribution:      0.09732      -1.75013      -0.00000
Nuclear contribution   :     -0.68738       2.17961       0.00000
                        -----------------------------------------
Total Dipole Moment    :     -0.59006       0.42948       0.00000
                        -----------------------------------------
Magnitude (a.u.)       :      0.72981
Magnitude (Debye)      :      1.85503



--------------------
Rotational spectrum 
--------------------
 
Rotational constants in cm-1:     4.276637     0.828149     0.798738 
Rotational constants in MHz : 128210.343149 24827.282259 23945.559790 

 Dipole components along the rotational axes: 
x,y,z [a.u.] :     0.395055    -0.613639     0.000000 
x,y,z [Debye]:     1.004151    -1.559745     0.000000 

 

                         *** MP2 UNRELAXED DENSITY ***

------------------------------------------------------------------------------
                       ORCA ELECTRIC PROPERTIES CALCULATION
------------------------------------------------------------------------------

Dipole Moment Calculation                       ... on
Quadrupole Moment Calculation                   ... off
Polarizability Calculation                      ... off
GBWName                                         ... input.gbw
Electron density file                           ... input.pmp2ur
The origin for moment calculation is the CENTER OF MASS  = ( 0.036928, -0.116288 -0.000000)

-------------
DIPOLE MOMENT
-------------
                                X             Y             Z
Electronic contribution:      0.10648      -1.76232      -0.00000
Nuclear contribution   :     -0.68738       2.17961       0.00000
                        -----------------------------------------
Total Dipole Moment    :     -0.58090       0.41729       0.00000
                        -----------------------------------------
Magnitude (a.u.)       :      0.71524
Magnitude (Debye)      :      1.81801



--------------------
Rotational spectrum 
--------------------
 
Rotational constants in cm-1:     4.276637     0.828149     0.798738 
Rotational constants in MHz : 128210.343149 24827.282259 23945.559790 

 Dipole components along the rotational axes: 
x,y,z [a.u.] :     0.383409    -0.603798     0.000000 
x,y,z [Debye]:     0.974548    -1.534732     0.000000 

 

                           *** MP2 RELAXED DENSITY ***

------------------------------------------------------------------------------
                       ORCA ELECTRIC PROPERTIES CALCULATION
------------------------------------------------------------------------------

Dipole Moment Calculation                       ... on
Quadrupole Moment Calculation                   ... off
Polarizability Calculation                      ... off
GBWName                                         ... input.gbw
Electron density file                           ... input.pmp2re
The origin for moment calculation is the CENTER OF MASS  = ( 0.036928, -0.116288 -0.000000)

-------------
DIPOLE MOMENT
-------------
                                X             Y             Z
Electronic contribution:      0.11740      -1.78230      -0.00000
Nuclear contribution   :     -0.68738       2.17961       0.00000
                        -----------------------------------------
Total Dipole Moment    :     -0.56998       0.39731       0.00000
                        -----------------------------------------
Magnitude (a.u.)       :      0.69479
Magnitude (Debye)      :      1.76602



--------------------
Rotational spectrum 
--------------------
 
Rotational constants in cm-1:     4.276637     0.828149     0.798738 
Rotational constants in MHz : 128210.343149 24827.282259 23945.559790 

 Dipole components along the rotational axes: 
x,y,z [a.u.] :     0.364085    -0.591756     0.000000 
x,y,z [Debye]:     0.925430    -1.504124     0.000000 

 

Timings for individual modules:

Sum of individual times         ...       25.246 sec (=   0.421 min)
GTO integral calculation        ...        4.564 sec (=   0.076 min)  18.1 %
SCF iterations                  ...        7.882 sec (=   0.131 min)  31.2 %
MP2 module                      ...       12.467 sec (=   0.208 min)  49.4 %
Geometry relaxation             ...        0.333 sec (=   0.006 min)   1.3 %
                             ****ORCA TERMINATED NORMALLY****
TOTAL RUN TIME: 0 days 0 hours 0 minutes 26 seconds 165 msec
