90
Energy:   -421.11765299
C   -0.77125173  -4.54987689  -3.35719184
H   -1.31728657  -3.85549814  -3.96099998
H   -0.45392805  -5.37460294  -3.96054225
H    0.08523897  -4.06297927  -2.93975503
C   -1.67478657  -5.06304375  -2.22058084
N   -2.34750933  -5.44511980  -1.37432229
C    3.93823682   2.90303930  -0.22167736
H    4.05858136   3.88773236   0.17931760
H    4.81506351   2.32495774  -0.01699287
H    3.08890274   2.43509311   0.23060252
C    3.72546142   2.99131558  -1.74435065
N    3.56704047   3.05704128  -2.87805012
C    0.08535615   0.38522640   1.37294551
H    0.74458754   1.22748759   1.40311571
H    0.63583081  -0.48872268   1.09350010
H   -0.35034109   0.23852684   2.33914748
C   -1.02863994   0.64197144   0.34110507
N   -1.85806067   0.83312980  -0.42714704
C    0.19376811  -0.59856906  -3.07940540
H    0.00126086  -1.63932121  -2.92231911
H    0.57440060  -0.45158101  -4.06855276
H   -0.71481720  -0.04596128  -2.96109875
C    1.23069388  -0.10755813  -2.05213074
N    2.00273224   0.25802182  -1.28727806
C    3.17940841  -2.97639288  -0.18441366
H    2.52384030  -2.25263367   0.25296860
H    4.19482710  -2.67252184  -0.03783131
H    3.02118826  -3.92744719   0.27965657
C    2.88921082  -3.08660516  -1.69280307
N    2.67314553  -3.16866321  -2.81586755
C    0.62269802   4.03495170   3.48024009
H    1.12580257   4.07007483   4.42393091
H    0.28644839   5.01646182   3.21856632
H    1.29638058   3.67690675   2.73000365
C   -0.58704978   3.08707515   3.57842520
N   -1.48776200   2.38133797   3.65152847
C   -4.30235151   1.40804072  -2.90940080
H   -3.24103933   1.30815369  -2.81699293
H   -4.53739809   2.38066797  -3.28841062
H   -4.67338189   0.66368262  -3.58257728
C   -4.95755110   1.22326613  -1.52803486
N   -5.44537697   1.08569305  -0.49954514
C   -0.03607374   3.25841895  -2.49930053
H   -0.32097392   4.17436314  -2.97340844
H   -0.83905739   2.55487583  -2.57101819
H    0.83100559   2.86062773  -2.98389797
C    0.28172026   3.52524267  -1.01625903
N    0.51833234   3.72390505   0.08793278
C    4.11031877  -0.14078297   1.94241241
H    3.65956159  -0.13437567   0.97201192
H    4.15288791  -1.14502048   2.30928294
H    5.10125101   0.25772241   1.87802421
C    3.27160123   0.72179830   2.90371696
N    2.64713790   1.36402927   3.61945190
C   -3.22458868   3.82055724   0.83318055
H   -3.20651819   4.72829871   1.39937757
H   -2.38442319   3.21527864   1.10273361
H   -4.12912388   3.28825143   1.04142487
C   -3.15795231   4.15135985  -0.66939365
N   -3.10833851   4.39765744  -1.78812844
C   -4.09928725   0.44991268   2.59287674
H   -4.06154184   1.12467543   3.42243729
H   -5.09394170   0.06992948   2.48716777
H   -3.81822933   0.96712445   1.69934581
C   -3.12656511  -0.71874989   2.83708861
N   -2.40232927  -1.58887230   3.01891545
C    4.67819370  -0.26440567  -3.61280198
H    4.64460736   0.74358835  -3.97018158
H    3.69723132  -0.68986481  -3.65275725
H    5.34113097  -0.83833318  -4.22600708
C    5.18425224  -0.27679390  -2.15837725
N    5.56103582  -0.28601750  -1.07549194
C   -3.68817712  -2.17771775  -0.51176877
H   -2.92907510  -1.78022676   0.12906289
H   -3.79546024  -3.22662484  -0.32960577
H   -4.61672822  -1.68444501  -0.31334005
C   -3.28988893  -1.95010915  -1.98185748
N   -2.99334527  -1.78064420  -3.07640535
C    0.37610189  -1.06585851   4.98247538
H   -0.59121289  -1.50150621   5.12180728
H    0.26746028  -0.04426349   4.68341063
H    0.92383749  -1.11243879   5.90047053
C    1.13634634  -1.84214522   3.89114256
N    1.70238289  -2.42012596   3.07859567
C   -0.77212256  -4.42686841   1.66885013
H    0.11633396  -4.62849447   2.23000263
H   -1.13221647  -5.33509588   1.23255398
H   -1.52000201  -4.02212912   2.31828182
C   -0.45618183  -3.41202920   0.55445216
N   -0.22094960  -2.65643528  -0.27526778
