90
Energy:   -419.18332179
C   -0.32287505  -3.65001622  -4.22580661
H   -0.00786055  -2.77904348  -3.69001510
H   -0.94608210  -3.35864387  -5.04532733
H    0.53528745  -4.16988195  -4.59755361
C   -1.11442206  -4.57470784  -3.28240917
N   -1.70376479  -5.26318279  -2.58000689
C    3.66743616   2.96530857   0.53042503
H    4.20983907   3.85659569   0.76771504
H    4.30768383   2.11613073   0.64823418
H    2.82803541   2.87300941   1.18752954
C    3.17341212   3.03754464  -0.92639417
N    2.80558876   3.09132768  -2.01106229
C   -0.06975330   0.33528762   1.17732957
H    0.05440563   0.10110519   2.21397963
H   -0.80310686  -0.31614326   0.74986091
H   -0.39274946   1.35044608   1.07720031
C    1.27190701   0.14883909   0.44467374
N    2.27083409   0.01001969  -0.10082183
C    0.41665676   0.22719778  -3.13493006
H   -0.01484531  -0.15737454  -4.03538011
H    0.86794800  -0.57259727  -2.58578237
H    1.16057821   0.95649534  -3.37907149
C   -0.68251759   0.88215927  -2.27793462
N   -1.50090285   1.36980788  -1.63986256
C    3.32523753  -3.16658135  -0.53883357
H    2.57973335  -2.71588925   0.08245567
H    4.28471893  -2.75920329  -0.29730165
H    3.33499487  -4.22383220  -0.37444219
C    3.00322647  -2.87990953  -2.01725440
N    2.76347459  -2.66646934  -3.11800591
C    0.42636311   3.29524400   4.04413298
H    0.00809846   4.27637730   3.95850405
H    1.05876156   3.10244196   3.20282527
H    1.00073988   3.22971420   4.94451971
C   -0.70850467   2.25494839   4.08234509
N   -1.55346531   1.48040103   4.11079574
C   -4.57839823   1.81553914  -3.04437071
H   -3.71439896   1.33669410  -3.45560406
H   -4.37870119   2.85823186  -2.91090881
H   -5.40557220   1.69341116  -3.71202860
C   -4.91881417   1.17979187  -1.68365679
N   -5.17226931   0.70644912  -0.67054342
C   -0.36119246   4.66125080  -1.82340972
H   -0.62949781   5.69666723  -1.85213646
H   -1.17970849   4.07071418  -2.17865203
H    0.49365474   4.49692290  -2.44560881
C   -0.02732243   4.25746505  -0.37527717
N    0.22125898   3.95682821   0.70292333
C    4.53304458  -0.75613477   2.49441656
H    4.19589053  -1.09544688   1.53728824
H    4.68905049  -1.59770636   3.13653688
H    5.45190384  -0.22006171   2.37942773
C    3.47129015   0.17191217   3.11329165
N    2.68076571   0.86288531   3.57407229
C   -3.12388189   2.79003750   1.17668639
H   -2.27547036   3.13120426   1.73229714
H   -2.91208262   1.82907031   0.75646951
H   -3.97009544   2.71613960   1.82734822
C   -3.43187849   3.78844629   0.04535179
N   -3.66119596   4.53180701  -0.79697825
C   -4.43381675  -0.27676186   2.81659679
H   -4.03436812   0.53698899   3.38506010
H   -5.18367311  -0.77911395   3.39127661
H   -4.86824148   0.09833926   1.91356114
C   -3.30424265  -1.26481027   2.47102088
N   -2.46322339  -2.00045723   2.21372391
C    4.50759964   0.26285846  -2.86260008
H    4.75462334   1.21058732  -3.29351709
H    3.45488406   0.21938270  -2.67605555
H    4.78251804  -0.51912932  -3.53921968
C    5.27151805   0.08688746  -1.53705760
N    5.84029003  -0.04413094  -0.55013096
C   -3.47156154  -2.17219409  -1.31083026
H   -2.94195411  -1.59812989  -0.57948462
H   -3.21512357  -3.20581073  -1.20702611
H   -4.52464277  -2.04971516  -1.16619996
C   -3.08722888  -1.68705935  -2.72098369
N   -2.80107575  -1.32585448  -3.77090702
C    0.20874990  -1.60291079   4.59865095
H    0.06783669  -2.26974511   5.42349981
H   -0.74322331  -1.33355176   4.19110733
H    0.71506277  -0.72214783   4.93451248
C    1.05297884  -2.29848503   3.51465188
N    1.68154566  -2.81637167   2.70756530
C   -0.53860890  -4.58806945   0.77518155
H   -0.94092626  -5.40066154   0.20708384
H   -1.22079097  -4.32740351   1.55721735
H    0.39812223  -4.88042234   1.20175356
C   -0.32593261  -3.37293661  -0.14667580
N   -0.16758545  -2.46821498  -0.83304050
