90
Energy:   -415.77629902
C    0.09348164  -4.82105005  -2.84013034
H    0.67949756  -3.95553022  -3.06895547
H   -0.86791567  -4.73302668  -3.30150457
H    0.58807434  -5.69470867  -3.21026246
C   -0.07809382  -4.93602436  -1.31404293
N   -0.20583955  -5.02162796  -0.17780149
C    2.97125795   1.95609644  -0.43912604
H    2.72749913   0.99136785  -0.04570442
H    2.35346566   2.69673515   0.02421627
H    3.99965855   2.17344817  -0.23900229
C    2.73111896   1.96579435  -1.96025694
N    2.55232458   1.97301488  -3.09280804
C   -0.23929140   0.83131492   0.68253571
H    0.51771318   0.07872369   0.60870691
H   -1.01234794   0.49612278   1.34202711
H    0.19047569   1.73308184   1.06596207
C   -0.83473295   1.09904003  -0.71223044
N   -1.27806626   1.29837354  -1.75069724
C    0.32424454  -0.56622172  -4.16379110
H    0.35285772  -1.38708846  -4.84954563
H    0.91830628   0.23791017  -4.54505433
H   -0.68671479  -0.23696236  -4.04358874
C    0.88308482  -1.01602419  -2.80108230
N    1.29916681  -1.35092257  -1.78648366
C    3.09803900  -3.64345542   0.22602919
H    2.67218711  -2.66276507   0.26841746
H    4.04270072  -3.64411674   0.72853581
H    2.43975130  -4.33908004   0.70316940
C    3.29878326  -4.05278592  -1.24493998
N    3.44824648  -4.35755108  -2.34014339
C    0.56489216   4.48951068   2.79517017
H    1.06396209   4.49397411   3.74164229
H    0.32236364   5.49332407   2.51510286
H    1.20659919   4.05803107   2.05561860
C   -0.72791642   3.65935241   2.90044702
N   -1.69047118   3.04126185   2.97883042
C   -4.31526829   0.71844100  -3.23960351
H   -3.44550357   1.29085121  -3.48609094
H   -5.18164838   1.18927133  -3.65505920
H   -4.21841433  -0.26848708  -3.64146340
C   -4.45953720   0.63739299  -1.70851968
N   -4.56695197   0.57704906  -0.56855817
C   -0.08774740   4.23975123  -3.25016369
H   -0.69167407   5.05940632  -3.57931151
H   -0.56726998   3.31807825  -3.50604667
H    0.86926765   4.28808966  -3.72627783
C    0.09422368   4.31700966  -1.72290547
N    0.22970941   4.37453207  -0.58579230
C    3.70188126  -0.70428113   2.90893094
H    3.67400305  -1.12608936   1.92597580
H    3.26555672  -1.39073431   3.60413020
H    4.71744694  -0.51296374   3.18628107
C    2.90832938   0.61543518   2.92390745
N    2.31749394   1.59802395   2.93505814
C   -3.30885003   3.86743634  -0.03758814
H   -3.30222979   4.83603491   0.41702507
H   -2.40444835   3.35152486   0.20897229
H   -4.14748332   3.30963872   0.32359756
C   -3.41303572   4.01871720  -1.56659417
N   -3.49060670   4.13135268  -2.70500866
C   -4.40173977   0.96948032   2.73190503
H   -4.56564977   1.40792890   3.69408825
H   -5.33771490   0.65672507   2.31834271
H   -3.94859830   1.69039923   2.08395610
C   -3.47091070  -0.24901061   2.87486343
N   -2.77786615  -1.15623249   2.98130245
C    4.60195347  -1.11273436  -3.16498623
H    4.39738590  -0.16512951  -3.61786296
H    3.78087981  -1.77621982  -3.33969792
H    5.49196920  -1.52682745  -3.59077725
C    4.79715316  -0.92566904  -1.64890455
N    4.94248820  -0.78639040  -0.52011283
C   -2.12512453  -2.16415937  -0.24008855
H   -1.09057216  -2.04963944   0.00787668
H   -2.49951511  -3.06522467   0.19901521
H   -2.67674607  -1.32807078   0.13616753
C   -2.28134163  -2.23546471  -1.77048450
N   -2.39765236  -2.28855477  -2.90993385
C   -0.29123336   0.35593319   4.76849229
H   -1.26378570   0.26515447   5.20530045
H   -0.37185394   0.29741150   3.70314041
H    0.13638961   1.29768174   5.04262248
C    0.60909253  -0.78460177   5.27858374
N    1.27942608  -1.63378189   5.65837001
C   -0.69117996  -4.01574361   3.20637616
H   -0.35379569  -4.19786455   4.20532761
H   -0.57927689  -4.90647224   2.62415687
H   -1.72181724  -3.72877934   3.22474429
C    0.14553087  -2.88465425   2.58015588
N    0.76850012  -2.04250681   2.11390641
