90
Energy:   -415.99598288
C   -0.34072872  -4.31905600  -2.76515157
H   -1.11475898  -4.84132643  -3.28765606
H    0.60999009  -4.58354425  -3.17876830
H   -0.49206081  -3.26449680  -2.86466331
C   -0.37722315  -4.70448926  -1.27461161
N   -0.40439491  -4.99146184  -0.16483686
C    2.58882528   1.22233128  -0.24115082
H    3.49858595   1.59936161   0.17727940
H    2.48590806   0.18597820   0.00436789
H    1.75950490   1.76763082   0.15856808
C    2.62117534   1.38643975  -1.77204006
N    2.64526142   1.50862597  -2.91185669
C   -1.30322982   0.83019207  -0.04303615
H   -0.64872757   1.45346294   0.52972944
H   -2.14937094   0.55870243   0.55298204
H   -1.63393226   1.36228488  -0.91045313
C   -0.55144746  -0.44192810  -0.47677981
N    0.00828869  -1.38907938  -0.79972169
C    0.75053666  -0.93546293  -4.25359487
H    1.17566949  -1.35366659  -3.36518733
H    1.51142264  -0.42672614  -4.80779566
H    0.33574647  -1.71853867  -4.85329526
C   -0.35945798   0.06128252  -3.87148181
N   -1.18589945   0.80340482  -3.58698127
C    2.73624950  -3.11159053   0.32462686
H    3.71768004  -3.06785267   0.74863307
H    2.24076731  -3.99760202   0.66282818
H    2.17724299  -2.25176798   0.62977598
C    2.84139882  -3.13684792  -1.21157160
N    2.91968727  -3.15565319  -2.35534117
C    1.14467797   3.82094604   2.51721013
H    1.13232470   4.57933331   1.76249408
H    1.72865203   2.99061412   2.17894648
H    1.57370146   4.21701714   3.41385143
C   -0.29550434   3.35444539   2.79979117
N   -1.36778554   3.00711446   3.01018560
C   -4.49832872   0.73550175  -3.20908693
H   -3.96868030   1.61474098  -3.51126419
H   -5.48611585   0.75529304  -3.61992022
H   -3.98173869  -0.13171705  -3.56400296
C   -4.58245511   0.68971655  -1.67206824
N   -4.64509102   0.65562739  -0.52768795
C   -0.06979538   3.92479938  -3.43231987
H   -1.06398803   3.65340436  -3.72011475
H    0.62767331   3.24370163  -3.87338946
H    0.14033208   4.91842458  -3.76914996
C    0.05483907   3.86559933  -1.89851362
N    0.14763508   3.82152220  -0.75652515
C    4.41148831  -0.53094861   2.90261016
H    3.69747986  -0.87695891   2.18471811
H    4.47898221  -1.23432989   3.70610156
H    5.36845654  -0.43136979   2.43442756
C    3.96466626   0.83607419   3.45324501
N    3.63198694   1.85388479   3.86321768
C   -3.28242047   3.96331302   0.36316460
H   -4.03825015   4.58644023   0.79366913
H   -2.31719898   4.31437347   0.66316980
H   -3.41609842   2.95637246   0.69946805
C   -3.39139203   4.01045280  -1.17225165
N   -3.47252631   4.04555050  -2.31543883
C   -4.38950530   1.15636383   3.06239829
H   -3.89009168   2.08668272   3.23558309
H   -5.11089750   0.98960572   3.83485161
H   -4.88352568   1.18793350   2.11379599
C   -3.35900022   0.01196833   3.06666451
N   -2.59174234  -0.84008614   3.06984090
C    5.32725288  -0.78931691  -3.11584714
H    5.95550399  -1.58056228  -3.46817012
H    5.69723702   0.14752628  -3.47686746
H    4.32978374  -0.94018537  -3.47248860
C    5.32615023  -0.78173109  -1.57586622
N    5.32532925  -0.77608311  -0.42928043
C   -3.27524439  -2.69418277   0.20767804
H   -2.27324858  -2.68477540   0.58293272
H   -3.75706588  -3.60373159   0.50002731
H   -3.81380606  -1.86068196   0.60783653
C   -3.24878032  -2.59826990  -1.32910444
N   -3.22907662  -2.52685841  -2.47330884
C    0.18792047   0.31511321   4.91811960
H    0.17818561  -0.64472986   5.39088454
H   -0.79232240   0.74224463   4.95789088
H    0.87724537   0.95623790   5.42673479
C    0.62063657   0.15907922   3.44842229
N    0.94281337   0.04290481   2.35416584
C   -0.20401437  -3.36228041   2.77355484
H   -0.31254089  -4.39496902   2.51533707
H   -0.24899615  -2.76611275   1.88616549
H   -0.99355837  -3.07547356   3.43632267
C    1.15327839  -3.14680364   3.46848371
N    2.16384454  -2.98637139   3.98588984
