90
Energy:   -416.06306243
C   -0.91398745  -1.85400047  -2.72975872
H   -1.64389302  -1.87648071  -3.51182820
H    0.03458602  -1.56994732  -3.13524763
H   -1.21049990  -1.14480867  -1.98542918
C   -0.80194931  -3.25117846  -2.09183934
N   -0.71853182  -4.29144098  -1.61687938
C    3.58731354   2.42612688   0.52269957
H    3.84851426   1.39710961   0.65610808
H    2.67516901   2.63285085   1.04246553
H    4.36799683   3.04564757   0.91209245
C    3.40058535   2.71796837  -0.97782071
N    3.26155773   2.93525763  -2.09502627
C   -0.21755469   1.01041598   0.29115331
H    0.19247509   1.57757267   1.10054138
H   -0.92205312   0.30150511   0.67328735
H   -0.71013765   1.66962247  -0.39273844
C    0.91521330   0.26567015  -0.43945626
N    1.75861055  -0.28882697  -0.98342829
C    1.67159975   0.97255988  -4.59392552
H    2.00190646  -0.00875655  -4.32408162
H    2.44721595   1.67971555  -4.38596046
H    1.43825790   0.99584113  -5.63791242
C    0.41573307   1.33363949  -3.77905105
N   -0.51931675   1.60247967  -3.17233996
C    2.66005271  -3.65821538  -1.26217376
H    1.90824954  -3.19182366  -0.66036735
H    3.61687474  -3.52934559  -0.80088937
H    2.44618669  -4.70258416  -1.35412084
C    2.67278603  -3.01183546  -2.65989721
N    2.68226657  -2.53057623  -3.70056586
C    0.94284960   3.56736669   3.78920250
H    0.76678967   4.48696435   4.30712453
H    1.28563502   3.77656946   2.79742054
H    1.68535965   3.00059928   4.31107663
C   -0.36577222   2.75845788   3.72009779
N   -1.34010064   2.15618849   3.66864620
C   -3.86768919   1.06446021  -3.13776005
H   -3.56788977   0.26972768  -3.78846789
H   -3.30421398   1.94476301  -3.36680540
H   -4.91027934   1.26285921  -3.27393164
C   -3.60960841   0.65575604  -1.67558523
N   -3.41745554   0.35145721  -0.58692961
C    0.20907266   4.83082580  -2.34216305
H    0.14415447   5.88872018  -2.48894615
H   -0.68014452   4.36424781  -2.71161790
H    1.05790867   4.44893835  -2.86993051
C    0.36062528   4.52940412  -0.83957303
N    0.47346309   4.30498199   0.27917354
C    2.99954895  -1.83980946   2.10351599
H    2.92005990  -1.86649923   1.03680641
H    2.41264915  -2.62910997   2.52476701
H    4.02329562  -1.96562192   2.38814397
C    2.48521993  -0.48431512   2.62284322
N    2.10227859   0.52491202   3.00950595
C   -2.97589097   3.53450174   1.05598612
H   -2.11660557   4.01530035   1.47474796
H   -2.87695271   2.47409089   1.15913240
H   -3.85455075   3.86251086   1.57102602
C   -3.09040368   3.89662278  -0.43644652
N   -3.17566359   4.16623835  -1.54763046
C   -3.58456768  -0.18062618   2.69625948
H   -2.69427010   0.12681443   2.18856798
H   -3.67429032   0.35769827   3.61661579
H   -4.43507390   0.02281215   2.07969552
C   -3.51270386  -1.69069741   2.98972238
N   -3.45919798  -2.81501408   3.20821884
C    4.89636205  -0.11586850  -2.68428954
H    5.50218553   0.74935390  -2.85536938
H    3.86537755   0.13924246  -2.81424507
H    5.16462417  -0.88251526  -3.38084340
C    5.12217960  -0.62491369  -1.24850424
N    5.29031104  -1.00392098  -0.17949683
C   -3.87820093  -3.24962792  -0.26717133
H   -4.78045818  -3.28301927   0.30703861
H   -3.19230710  -2.56458930   0.18578655
H   -3.43940696  -4.22499630  -0.29903767
C   -4.19833521  -2.78371068  -1.69966397
N   -4.43668973  -2.43681411  -2.76621985
C   -0.48495462  -0.99871106   4.77701946
H   -1.43890515  -1.16917142   5.23069538
H   -0.62389492  -0.62384213   3.78451356
H    0.06220933  -0.28358605   5.35503928
C    0.30048553  -2.32215443   4.72061531
N    0.88528143  -3.30751817   4.67861985
C   -0.79749388  -4.81299707   1.90549010
H   -0.71917828  -5.40529944   1.01782758
H   -1.77249642  -4.93313206   2.32956170
H   -0.05954287  -5.13038439   2.61230881
C   -0.56903240  -3.33081672   1.55542329
N   -0.39893244  -2.22726608   1.29478263
