25
Energy:   -377.36657773
Na  -0.22554009  -0.95497682   0.42190127
O   -2.01855733  -1.25862228   1.89280765
H   -1.91789676  -1.21542588   2.84371952
H   -2.96382670  -1.31707569   1.75395207
O    1.71152607  -1.35561414   1.64877274
H    2.46017350  -0.79810958   1.86078108
H    1.90009135  -2.18665406   2.08471728
C    0.07661811   3.10339040  -2.31663998
H    1.10737402   3.38681243  -2.27065769
H   -0.51165603   3.80687235  -1.76532720
H   -0.24490962   3.09177020  -3.33712221
C   -0.09746563   1.69970831  -1.70756572
N   -0.22707888   0.65460319  -1.25408226
C    0.76753967   4.16993455   2.19166584
H    1.61348943   4.44623230   1.59758778
H    0.97064130   4.38003561   3.22098910
H   -0.08819413   4.72915432   1.87560888
C    0.48930635   2.66502277   2.02012357
N    0.28214901   1.54454754   1.89240256
C   -0.46237538  -4.67389169  -3.12269320
H   -1.38943687  -4.62050507  -3.65430119
H   -0.33760313  -5.65783263  -2.72120695
H    0.34477962  -4.45617742  -3.79052581
C   -0.46937847  -3.64793309  -1.97423341
N   -0.47459258  -2.88406028  -1.11915289
