25
Energy:   -379.78914074
Na  -0.35646039  -1.15190922  -1.23728216
O    0.92799063  -0.46067430  -3.09226645
H    0.73394947  -0.27623206  -4.01126641
H    1.87433316  -0.33789735  -3.01747687
O   -1.19460213  -3.08671959  -2.09705953
H   -0.83598460  -3.96683757  -2.21115449
H   -2.13399214  -3.18865786  -2.24998712
C   -3.01119798   1.27826105   1.77336938
H   -3.95943262   1.72804649   1.56493643
H   -2.26527855   2.04087616   1.85656485
H   -3.06897905   0.73404529   2.69282011
C   -2.63685308   0.31657270   0.63029395
N   -2.35813629  -0.39944798  -0.22077766
C    1.76217799  -1.06934926   2.92018014
H    1.48070352  -1.72650206   3.71630984
H    1.30499825  -0.11334395   3.06830048
H    2.82630213  -0.95793027   2.90901227
C    1.29374376  -1.65983455   1.57723692
N    0.94497318  -2.09947769   0.57735465
C    1.71494280   3.47329391   0.10267333
H    2.75536743   3.40243270  -0.13690020
H    1.60367665   3.77078328   1.12444581
H    1.25127972   4.19882651  -0.53255741
C    1.04497622   2.10289176  -0.10885142
N    0.54615565   1.08256506  -0.26634122
