25
Energy:   -378.73301089
Na   0.79804473   0.45722284  -0.96806533
O    2.97609980   0.31910561  -2.05493191
H    3.80829108   0.34023000  -1.58244564
H    3.22518731   0.25670784  -2.97704567
O   -0.19532639  -0.45943082  -2.86825863
H    0.23048899  -1.18142819  -3.33046303
H   -1.01781201  -0.32494366  -3.33906905
C    2.21933522  -2.02276816   3.26191537
H    1.26592397  -2.12899370   3.73585978
H    2.90885511  -1.57204086   3.94478161
H    2.58288850  -2.98645790   2.97203577
C    2.07589629  -1.13159873   2.01418049
N    1.96909948  -0.46808259   1.08518515
C   -1.90575174   4.56399151   0.30639289
H   -2.74700485   4.25307970   0.88993999
H   -2.24505248   5.13486814  -0.53257908
H   -1.25696647   5.16550512   0.90818866
C   -1.14040111   3.32410435  -0.19212316
N   -0.57056279   2.40095200  -0.56329103
C   -2.95704468  -2.68433428   0.86963401
H   -2.38662563  -3.58763696   0.92935464
H   -3.72907557  -2.79777315   0.13751446
H   -3.39697835  -2.47664991   1.82264222
C   -2.03369711  -1.51989467   0.46576565
N   -1.34622286  -0.65291645   0.16506730
