25
Energy:   -375.26649120
Na   0.09290257  -0.88187970  -0.08624051
O   -2.13382535  -1.54324224   0.11523595
H   -2.29078960  -2.00799311   0.93718528
H   -2.98395734  -1.16807974  -0.11446068
O    1.76988947  -2.21970796   0.78894567
H    2.20919025  -2.88682145   0.26149306
H    2.32342831  -2.12358825   1.56392154
C    1.75742922   3.82398329   0.45798331
H    0.90822889   4.39357287   0.77314469
H    2.17376320   4.26298835  -0.42453562
H    2.49269371   3.82005534   1.23533123
C    1.32220116   2.37801173   0.15575364
N    0.99815408   1.30142018  -0.06927010
C   -1.84006076   2.75932999   3.38475744
H   -1.01663862   3.40976952   3.59405289
H   -2.32006070   2.48543138   4.30098813
H   -2.54051573   3.26299370   2.75183976
C   -1.32619952   1.49249105   2.67576820
N   -0.94360647   0.54927187   2.14789349
C    0.28792310  -3.08368838  -4.72726448
H   -0.24589698  -4.01099503  -4.72104522
H    1.29765218  -3.25548140  -5.03683425
H   -0.18323880  -2.40546793  -5.40764863
C    0.28109080  -2.47793584  -3.31141944
N    0.27600385  -2.02692554  -2.25725845
