25
Energy:   -376.51510554
Na   0.30742155  -0.26622597   0.14105054
O    1.12935824  -1.20323593   2.14595335
H    2.08416951  -1.25560614   2.10323751
H    0.92413570  -1.31552772   3.07412688
O   -0.24150442  -1.53053363  -1.83126491
H   -0.49455888  -2.43261163  -1.63517674
H   -0.00215528  -1.54446267  -2.75795246
C    3.94817521  -1.58857123  -2.83770003
H    4.24742417  -0.83843579  -3.53958824
H    3.25053174  -2.25369019  -3.30225300
H    4.80726483  -2.13991773  -2.51694913
C    3.28511742  -0.91740342  -1.62053606
N    2.79144076  -0.41768847  -0.71430215
C   -4.28517734  -0.80197158   2.35415793
H   -4.33107667  -0.38513358   3.33855597
H   -4.49709453  -1.84976135   2.40027504
H   -5.00664493  -0.31936532   1.72847845
C   -2.87573774  -0.58846456   1.77149613
N   -1.82634589  -0.42949887   1.33767793
C   -0.84434981   4.66412513   0.00543288
H   -0.04857228   5.26227665   0.39767395
H   -1.71507749   4.78441586   0.61556610
H   -1.06406744   4.97430424  -0.99477318
C   -0.42024774   3.18367665   0.00231227
N   -0.10448447   2.08141546  -0.00001118
