25
Energy:   -384.42257434
Na   0.03252820   1.08716335  -1.05444521
O   -1.86575907   0.89530416   0.21520058
H   -2.03706109   0.01566476   0.55153671
H   -2.54550450   1.44036838   0.61153754
O   -0.57303247   0.80649303  -3.27053705
H   -1.44497318   0.55507676  -3.57507132
H   -0.06021895   0.91226633  -4.07182735
C    3.07435876   5.03076851  -0.14846814
H    3.16657975   5.13723984   0.91222000
H    2.67441969   5.93205123  -0.56396456
H    4.03776376   4.83922045  -0.57280202
C    2.13065808   3.85603994  -0.46633887
N    1.42803003   2.98140111  -0.70300808
C   -3.53261081  -3.87071411   2.15024090
H   -4.56733601  -3.84050772   1.87944300
H   -3.44227861  -3.85360196   3.21628328
H   -3.09022634  -4.76735812   1.76915745
C   -2.81009248  -2.64831814   1.55415754
N   -2.27214475  -1.73818878   1.11034638
C    2.63207763  -2.81291333   0.80560299
H    3.52068273  -2.47476561   1.29645661
H    2.89272206  -3.50845465   0.03541739
H    1.99191488  -3.29169030   1.51684371
C    1.89937194  -1.60945065   0.18397615
N    1.35383924  -0.71341797  -0.27885328
