25
Energy:   -373.83233818
Na   1.59630945   0.47682464   0.29639425
O    3.18916417  -0.80455413   1.63301824
H    3.77339779  -1.48184273   1.29216186
H    3.47498821  -0.67384917   2.53714914
O    3.23515218   2.03587700  -0.61165079
H    3.52406982   2.93907561  -0.48130234
H    3.54182146   1.81018477  -1.48985852
C   -2.90581090  -2.37189603   1.25427977
H   -2.88982086  -2.37865944   2.32413899
H   -2.91137927  -3.37842636   0.89128558
H   -3.78457435  -1.86512432   0.91390305
C   -1.65604561  -1.64288166   0.72680961
N   -0.72553854  -1.10009732   0.33408410
C   -2.66040434   2.62357690   1.69060391
H   -3.19276769   2.89433297   0.80280855
H   -2.67874371   3.44103081   2.38077191
H   -3.12368157   1.76891452   2.13762238
C   -1.20102862   2.28744235   1.33166649
N   -0.11445706   2.03717491   1.06442128
C   -0.54501575  -1.54305538  -3.64159275
H   -0.07091479  -2.27069087  -4.26663279
H   -1.02430099  -0.80648142  -4.25203813
H   -1.27455461  -2.02423071  -3.02422541
C    0.51243824  -0.86338609  -2.75196320
N    1.29976079  -0.35734142  -2.08959356
