25
Energy:   -384.32627997
Na   0.21293252  -0.38260995   0.53221969
O    0.64958700  -0.48406231  -1.71565509
H    1.35058436  -0.60316062  -2.35647499
H   -0.11678199  -0.24967824  -2.23908084
O   -2.02903601  -0.75813009   0.98977217
H   -2.79417757  -0.47479432   0.48926135
H   -2.39066723  -1.27966410   1.70633130
C   -3.46005516   0.94363606  -4.89570069
H   -2.88765040   1.37673947  -5.68922095
H   -4.18441836   1.65164396  -4.55085022
H   -3.95967860   0.06762104  -5.25329432
C   -2.52226265   0.56209486  -3.73528200
N   -1.82403350   0.27802010  -2.87129754
C    2.80671979  -3.84885068   3.17049118
H    2.16135357  -4.66759524   3.41144753
H    3.20045294  -3.42779334   4.07192561
H    3.61200283  -4.19764799   2.55831575
C    2.00987631  -2.77446908   2.40737610
N    1.41659011  -1.97454314   1.83920223
C    1.89686734   4.03555311   2.35997685
H    1.72261672   4.82625559   1.66045809
H    2.94744387   3.94518348   2.54169468
H    1.39357413   4.25456118   3.27847046
C    1.35997814   2.71238709   1.78327791
N    0.96023973   1.72722984   1.35389934
