25
Energy:   -385.16172043
Na   0.33347776   0.47581424  -0.63253363
O   -1.73500847  -0.43255470  -1.06597648
H   -2.30914124  -0.37540545  -0.30221122
H   -2.25675160  -0.89100453  -1.72464158
O   -0.53110340   2.19010518   0.71711357
H   -0.22955067   3.08312841   0.88386879
H   -1.30316963   2.08960474   1.27393064
C    2.96119172   1.80589067  -4.75970154
H    3.97254913   1.46059918  -4.70650246
H    2.95325542   2.86817890  -4.88768525
H    2.46945215   1.34297097  -5.58963927
C    2.22475146   1.44020904  -3.45757532
N    1.67643822   1.16794243  -2.48808316
C    3.58161669  -2.76058788   1.44922071
H    3.87324130  -3.39332438   0.63712478
H    3.16976143  -3.35725866   2.23615039
H    4.43691521  -2.23084874   1.81355568
C    2.52366654  -1.75358700   0.96107040
N    1.73597457  -1.00382908   0.59762030
C   -4.45922063  -0.72675601   3.63877448
H   -4.75535670  -1.75141066   3.55341374
H   -5.32973701  -0.10858887   3.70927068
H   -3.86013719  -0.60055080   4.51631101
C   -3.64234409  -0.32335829   2.39716947
N   -3.03414237  -0.02301035   1.47273811
