25
Energy:   -377.65765730
Na   0.42691125  -0.29818387   0.89825332
O    2.77703946  -0.41853330   1.21390169
H    3.37333004  -1.15679676   1.33894742
H    3.35035386   0.34571692   1.15504548
O   -0.53111342  -1.49663867   2.64038135
H   -1.28323378  -1.22008738   3.16389467
H   -0.20305998  -2.27791104   3.08560746
C    0.24058718   4.74033874   0.02870841
H   -0.21144854   5.25934404   0.84797478
H   -0.48129229   4.60441677  -0.74931110
H    1.06423783   5.31211580  -0.34488186
C    0.74470715   3.36605114   0.50703530
N    1.12004739   2.34283154   0.86317142
C   -3.76467815   1.27410184  -1.64783446
H   -4.09075092   0.42400632  -2.20989703
H   -3.67845018   2.11969222  -2.29778889
H   -4.47662326   1.48711275  -0.87799058
C   -2.39480975   0.97400890  -1.01143461
N   -1.37488045   0.75057606  -0.53760599
C    1.36135749  -4.39494142  -2.00107917
H    0.69092275  -5.22873207  -2.01559121
H    2.32384807  -4.71704757  -1.66231877
H    1.44772338  -3.98950788  -2.98751907
C    0.81671211  -3.31483342  -1.04801667
N    0.41119887  -2.51064392  -0.33841833
