25
Energy:   -384.78476467
Na  -0.49188665   0.45836420  -0.69319074
O    1.22258957   0.22486216  -2.24661245
H    2.12716558   0.11159603  -1.95481650
H    1.27414453   0.20298894  -3.20217276
O    0.93890324   1.21742284   0.93332461
H    1.03158453   1.94064157   1.55348322
H    1.82240225   0.85888436   0.84899482
C    5.67957559  -0.87680594   1.83860142
H    5.42403429  -1.73413904   2.42560974
H    6.05582234  -0.10590416   2.47816997
H    6.42927902  -1.14462726   1.12367793
C    4.42683526  -0.36694601   1.10220173
N    3.49411313   0.01266787   0.55391868
C   -4.79139987   2.61689626  -2.31787399
H   -5.22169405   3.17220083  -1.51079040
H   -5.46533017   1.84125307  -2.61636131
H   -4.61180459   3.27124921  -3.14519910
C   -3.46062261   1.99223893  -1.85914190
N   -2.46979846   1.52715316  -1.51759500
C   -2.90348382  -3.13536401   1.87372220
H   -3.10019696  -2.73512866   2.84635563
H   -2.32271102  -4.02921563   1.96662721
H   -3.82926665  -3.36054287   1.38677281
C   -2.12380600  -2.10083453   1.04098500
N   -1.54330042  -1.33058030   0.42097431
