
                                 *****************
                                 * O   R   C   A *
                                 *****************

           --- An Ab Initio, DFT and Semiempirical electronic structure package ---

                  #######################################################
                  #                        -***-                        #
                  #          Department of theory and spectroscopy      #
                  #               Directorship: Frank Neese             #
                  #        Max Planck Institute fuer Kohlenforschung    #
                  #                Kaiser Wilhelm Platz 1               #
                  #                 D-45470 Muelheim/Ruhr               #
                  #                      Germany                        #
                  #                                                     #
                  #                  All rights reserved                #
                  #                        -***-                        #
                  #######################################################


                         Program Version 4.2.0 -  RELEASE  -


 With contributions from (in alphabetic order):
   Daniel Aravena         : Magnetic Suceptibility
   Michael Atanasov       : Ab Initio Ligand Field Theory (pilot matlab implementation)
   Alexander A. Auer      : GIAO ZORA, VPT2
   Ute Becker             : Parallelization
   Giovanni Bistoni       : ED, misc. LED, open-shell LED, HFLED
   Martin Brehm           : Molecular dynamics
   Dmytro Bykov           : SCF Hessian
   Vijay G. Chilkuri      : MRCI spin determinant printing, contributions to CSF-ICE
   Dipayan Datta          : RHF DLPNO-CCSD density
   Achintya Kumar Dutta   : EOM-CC, STEOM-CC
   Dmitry Ganyushin       : Spin-Orbit,Spin-Spin,Magnetic field MRCI
   Miquel Garcia          : C-PCM Hessian, Gaussian charge scheme
   Yang Guo               : DLPNO-NEVPT2, CIM, IAO-localization
   Andreas Hansen         : Spin unrestricted coupled pair/coupled cluster methods
   Benjamin Helmich-Paris : CASSCF linear response (MC-RPA)
   Lee Huntington         : MR-EOM, pCC
   Robert Izsak           : Overlap fitted RIJCOSX, COSX-SCS-MP3, EOM
   Christian Kollmar      : KDIIS, OOCD, Brueckner-CCSD(T), CCSD density
   Simone Kossmann        : Meta GGA functionals, TD-DFT gradient, OOMP2, MP2 Hessian
   Martin Krupicka        : AUTO-CI
   Lucas Lang             : DCDCAS
   Dagmar Lenk            : GEPOL surface, SMD
   Dimitrios Liakos       : Extrapolation schemes; Compound Job, initial MDCI parallelization
   Dimitrios Manganas     : Further ROCIS development; embedding schemes
   Dimitrios Pantazis     : SARC Basis sets
   Taras Petrenko         : DFT Hessian,TD-DFT gradient, ASA, ECA, R-Raman, ABS, FL, XAS/XES, NRVS
   Peter Pinski           : DLPNO-MP2, DLPNO-MP2 Gradient
   Christoph Reimann      : Effective Core Potentials
   Marius Retegan         : Local ZFS, SOC
   Christoph Riplinger    : Optimizer, TS searches, QM/MM, DLPNO-CCSD(T), (RO)-DLPNO pert. Triples
   Tobias Risthaus        : Range-separated hybrids, TD-DFT gradient, RPA, STAB
   Michael Roemelt        : Original ROCIS implementation
   Masaaki Saitow         : Open-shell DLPNO-CCSD energy and density
   Barbara Sandhoefer     : DKH picture change effects
   Avijit Sen             : IP-ROCIS
   Kantharuban Sivalingam : CASSCF convergence, NEVPT2, FIC-MRCI
   Bernardo de Souza      : ESD, SOC TD-DFT
   Georgi Stoychev        : AutoAux, RI-MP2 NMR
   Willem Van den Heuvel  : Paramagnetic NMR
   Boris Wezisla          : Elementary symmetry handling
   Frank Wennmohs         : Technical directorship


 We gratefully acknowledge several colleagues who have allowed us to
 interface, adapt or use parts of their codes:
   Stefan Grimme, W. Hujo, H. Kruse,             : VdW corrections, initial TS optimization,
                  C. Bannwarth                     DFT functionals, gCP, sTDA/sTD-DF
   Ed Valeev, F. Pavosevic, A. Kumar             : LibInt (2-el integral package), F12 methods
   Garnet Chan, S. Sharma, J. Yang, R. Olivares  : DMRG
   Ulf Ekstrom                                   : XCFun DFT Library
   Mihaly Kallay                                 : mrcc  (arbitrary order and MRCC methods)
   Andreas Klamt, Michael Diedenhofen            : otool_cosmo (COSMO solvation model)
   Jiri Pittner, Ondrej Demel                    : Mk-CCSD
   Frank Weinhold                                : gennbo (NPA and NBO analysis)
   Christopher J. Cramer and Donald G. Truhlar   : smd solvation model
   Lars Goerigk                                  : TD-DFT with DH, B97 family of functionals
   V. Asgeirsson, H. Jonsson                     : NEB implementation
   FAccTs GmbH                                   : IRC, NEB, NEB-TS, Multilevel, MM, QM/MM, CI optimization
   S Lehtola, MJT Oliveira, MAL Marques          : LibXC Library


 Your calculation uses the libint2 library for the computation of 2-el integrals
 For citations please refer to: http://libint.valeyev.net

 Your ORCA version has been built with support for libXC version: 4.2.3
 For citations please refer to: https://tddft.org/programs/libxc/

 This ORCA versions uses:
   CBLAS   interface :  Fast vector & matrix operations
   LAPACKE interface :  Fast linear algebra routines
   SCALAPACK package :  Parallel linear algebra routines


----- Orbital basis set information -----
Your calculation utilizes the basis: def2-TZVP
   F. Weigend and R. Ahlrichs, Phys. Chem. Chem. Phys. 7, 3297 (2005).

================================================================================
                                        WARNINGS
                       Please study these warnings very carefully!
================================================================================


WARNING: The frozen-core approximation for MP2-gradient calculations is turned on by default.

INFO   : the flag for use of LIBINT has been found!

================================================================================
                                       INPUT FILE
================================================================================
NAME = 12h2o.su.etal.mol1,2,3,4,5,6,7,10,11-orca.engrad-mp2.def2tzvp.frozencore.inp
|  1> # 12h2o.su.etal.mol1,2,3,4,5,6,7,10,11
|  2> ! MP2 def2-TZVP EnGrad TightSCF
|  3> 
|  4> %pal
|  5>     nprocs 6
|  6> end
|  7> 
|  8> %maxcore 8000
|  9> 
| 10> %scf
| 11>     ConvForced true
| 12> end
| 13> 
| 14> *xyz 0 1
| 15> O  -1.794470000  -0.923410000   2.768350000
| 16> H  -2.338250000  -1.359750000   3.430940000
| 17> H  -0.879480000  -1.303000000   2.865760000
| 18> O   0.923410000  -1.794470000  -2.768350000
| 19> H   1.359750000  -2.338250000  -3.430940000
| 20> H   1.303000000  -0.879480000  -2.865760000
| 21> O  -1.752130000  -0.741530000  -2.896280000
| 22> H  -2.036450000  -0.920500000  -1.984040000
| 23> H  -0.921210000  -1.242140000  -2.984230000
| 24> O  -0.885520000   1.737840000   0.052730000
| 25> H  -1.032320000   2.090180000  -0.841890000
| 26> H  -1.284090000   0.839590000   0.017130000
| 27> O   0.885520000  -1.737840000   0.052730000
| 28> H   1.284090000  -0.839590000   0.017130000
| 29> H   1.032320000  -2.090180000  -0.841890000
| 30> O   1.737840000   0.885520000  -0.052730000
| 31> H   2.090180000   1.032320000   0.841890000
| 32> H   0.839590000   1.284090000  -0.017130000
| 33> O  -1.737840000  -0.885520000  -0.052730000
| 34> H  -2.090180000  -1.032320000   0.841890000
| 35> H  -0.839590000  -1.284090000  -0.017130000
| 36> O  -0.923410000   1.794470000  -2.768350000
| 37> H  -1.359750000   2.338250000  -3.430940000
| 38> H  -1.303000000   0.879480000  -2.865760000
| 39> O  -0.741530000   1.752130000   2.896280000
| 40> H  -0.920500000   2.036450000   1.984040000
| 41> H  -1.242140000   0.921210000   2.984230000
| 42> *
| 43> 
| 44>                          ****END OF INPUT****
================================================================================

                     *******************************
                     * Energy+Gradient Calculation *
                     *******************************

---------------------------------
CARTESIAN COORDINATES (ANGSTROEM)
---------------------------------
  O     -1.794470   -0.923410    2.768350
  H     -2.338250   -1.359750    3.430940
  H     -0.879480   -1.303000    2.865760
  O      0.923410   -1.794470   -2.768350
  H      1.359750   -2.338250   -3.430940
  H      1.303000   -0.879480   -2.865760
  O     -1.752130   -0.741530   -2.896280
  H     -2.036450   -0.920500   -1.984040
  H     -0.921210   -1.242140   -2.984230
  O     -0.885520    1.737840    0.052730
  H     -1.032320    2.090180   -0.841890
  H     -1.284090    0.839590    0.017130
  O      0.885520   -1.737840    0.052730
  H      1.284090   -0.839590    0.017130
  H      1.032320   -2.090180   -0.841890
  O      1.737840    0.885520   -0.052730
  H      2.090180    1.032320    0.841890
  H      0.839590    1.284090   -0.017130
  O     -1.737840   -0.885520   -0.052730
  H     -2.090180   -1.032320    0.841890
  H     -0.839590   -1.284090   -0.017130
  O     -0.923410    1.794470   -2.768350
  H     -1.359750    2.338250   -3.430940
  H     -1.303000    0.879480   -2.865760
  O     -0.741530    1.752130    2.896280
  H     -0.920500    2.036450    1.984040
  H     -1.242140    0.921210    2.984230

----------------------------
CARTESIAN COORDINATES (A.U.)
----------------------------
  NO LB      ZA    FRAG     MASS         X           Y           Z
   0 O     8.0000    0    15.999   -3.391057   -1.744992    5.231423
   1 H     1.0000    0     1.008   -4.418652   -2.569555    6.483537
   2 H     1.0000    0     1.008   -1.661976   -2.462313    5.415502
   3 O     8.0000    0    15.999    1.744992   -3.391057   -5.231423
   4 H     1.0000    0     1.008    2.569555   -4.418652   -6.483537
   5 H     1.0000    0     1.008    2.462313   -1.661976   -5.415502
   6 O     8.0000    0    15.999   -3.311046   -1.401289   -5.473176
   7 H     1.0000    0     1.008   -3.848333   -1.739493   -3.749292
   8 H     1.0000    0     1.008   -1.740835   -2.347304   -5.639377
   9 O     8.0000    0    15.999   -1.673390    3.284042    0.099645
  10 H     1.0000    0     1.008   -1.950802    3.949868   -1.590942
  11 H     1.0000    0     1.008   -2.426578    1.586595    0.032371
  12 O     8.0000    0    15.999    1.673390   -3.284042    0.099645
  13 H     1.0000    0     1.008    2.426578   -1.586595    0.032371
  14 H     1.0000    0     1.008    1.950802   -3.949868   -1.590942
  15 O     8.0000    0    15.999    3.284042    1.673390   -0.099645
  16 H     1.0000    0     1.008    3.949868    1.950802    1.590942
  17 H     1.0000    0     1.008    1.586595    2.426578   -0.032371
  18 O     8.0000    0    15.999   -3.284042   -1.673390   -0.099645
  19 H     1.0000    0     1.008   -3.949868   -1.950802    1.590942
  20 H     1.0000    0     1.008   -1.586595   -2.426578   -0.032371
  21 O     8.0000    0    15.999   -1.744992    3.391057   -5.231423
  22 H     1.0000    0     1.008   -2.569555    4.418652   -6.483537
  23 H     1.0000    0     1.008   -2.462313    1.661976   -5.415502
  24 O     8.0000    0    15.999   -1.401289    3.311046    5.473176
  25 H     1.0000    0     1.008   -1.739493    3.848333    3.749292
  26 H     1.0000    0     1.008   -2.347304    1.740835    5.639377

--------------------------------
INTERNAL COORDINATES (ANGSTROEM)
--------------------------------
 O      0   0   0     0.000000000000     0.00000000     0.00000000
 H      1   0   0     0.961828878803     0.00000000     0.00000000
 H      1   2   0     0.995381322057   106.21731035     0.00000000
 O      3   1   2     5.935920367146   102.58474291   140.89009172
 H      4   3   1     0.961828878803   146.97742434   224.01286022
 H      4   3   1     0.995381322057    97.62005672    87.72090689
 O      4   3   1     2.878117964938    74.30903121   359.04191204
 H      7   4   3     0.972136791249    99.37069922   345.64431536
 H      7   4   3     0.974050112161    12.30570018   233.12878636
 O      8   7   4     3.541164138161   107.84672602    83.70571148
 H     10   8   7     0.972645187106    72.17296994    29.09453504
 H     10   8   7     0.983350632989    33.04029707   190.88793319
 O      4   3   1     2.821902722526    17.32744736   169.52589616
 H     13   4   3     0.983350632989    88.66470709   258.45499027
 H     13   4   3     0.972645187106    21.75017499   124.29821266
 O     14  13   4     1.785153773264   170.81379649    89.95043540
 H     16  14  13     0.972645187106   101.65007623   109.44492584
 H     16  14  13     0.983350632989    99.09581498     3.33484705
 O     12  10   8     1.785153773264   170.81379649    88.00403199
 H     19  12  10     0.972645187106   101.65007623   109.44492584
 H     19  12  10     0.983350632989    99.09581498     3.33484705
 O     11  10   8     1.952064016317   147.60984291   322.52183969
 H     22  11  10     0.961828878803   124.67322417   165.49513251
 H     22  11  10     0.995381322057   102.38931089    45.51897547
 O     10   8   7     2.847229166523   126.48630953   195.00328214
 H     25  10   8     0.972136791249    19.08819947   226.21746260
 H     25  10   8     0.974050112161    93.43428486   350.31374249

---------------------------
INTERNAL COORDINATES (A.U.)
---------------------------
 O      0   0   0     0.000000000000     0.00000000     0.00000000
 H      1   0   0     1.817593168635     0.00000000     0.00000000
 H      1   2   0     1.880998097508   106.21731035     0.00000000
 O      3   1   2    11.217263846671   102.58474291   140.89009172
 H      4   3   1     1.817593168635   146.97742434   224.01286022
 H      4   3   1     1.880998097508    97.62005672    87.72090689
 O      4   3   1     5.438854734852    74.30903121   359.04191204
 H      7   4   3     1.837072300170    99.37069922   345.64431536
 H      7   4   3     1.840687952699    12.30570018   233.12878636
 O      8   7   4     6.691830416388   107.84672602    83.70571148
 H     10   8   7     1.838033029106    72.17296994    29.09453504
 H     10   8   7     1.858263389967    33.04029707   190.88793319
 O      4   3   1     5.332623322141    17.32744736   169.52589616
 H     13   4   3     1.858263389967    88.66470709   258.45499027
 H     13   4   3     1.838033029106    21.75017499   124.29821266
 O     14  13   4     3.373451738406   170.81379649    89.95043540
 H     16  14  13     1.838033029106   101.65007623   109.44492584
 H     16  14  13     1.858263389967    99.09581498     3.33484705
 O     12  10   8     3.373451738406   170.81379649    88.00403199
 H     19  12  10     1.838033029106   101.65007623   109.44492584
 H     19  12  10     1.858263389967    99.09581498     3.33484705
 O     11  10   8     3.688866386722   147.60984291   322.52183969
 H     22  11  10     1.817593168635   124.67322417   165.49513251
 H     22  11  10     1.880998097508   102.38931089    45.51897547
 O     10   8   7     5.380483365242   126.48630953   195.00328214
 H     25  10   8     1.837072300170    19.08819947   226.21746260
 H     25  10   8     1.840687952699    93.43428486   350.31374249

---------------------
BASIS SET INFORMATION
---------------------
There are 2 groups of distinct atoms

 Group   1 Type O   : 11s6p2d1f contracted to 5s3p2d1f pattern {62111/411/11/1}
 Group   2 Type H   : 5s1p contracted to 3s1p pattern {311/1}

Atom   0O    basis set group =>   1
Atom   1H    basis set group =>   2
Atom   2H    basis set group =>   2
Atom   3O    basis set group =>   1
Atom   4H    basis set group =>   2
Atom   5H    basis set group =>   2
Atom   6O    basis set group =>   1
Atom   7H    basis set group =>   2
Atom   8H    basis set group =>   2
Atom   9O    basis set group =>   1
Atom  10H    basis set group =>   2
Atom  11H    basis set group =>   2
Atom  12O    basis set group =>   1
Atom  13H    basis set group =>   2
Atom  14H    basis set group =>   2
Atom  15O    basis set group =>   1
Atom  16H    basis set group =>   2
Atom  17H    basis set group =>   2
Atom  18O    basis set group =>   1
Atom  19H    basis set group =>   2
Atom  20H    basis set group =>   2
Atom  21O    basis set group =>   1
Atom  22H    basis set group =>   2
Atom  23H    basis set group =>   2
Atom  24O    basis set group =>   1
Atom  25H    basis set group =>   2
Atom  26H    basis set group =>   2


           ************************************************************
           *        Program running with 6 parallel MPI-processes     *
           *              working on a common directory               *
           ************************************************************
------------------------------------------------------------------------------
                           ORCA GTO INTEGRAL CALCULATION
------------------------------------------------------------------------------

                         BASIS SET STATISTICS AND STARTUP INFO

 # of primitive gaussian shells          ...  288
 # of primitive gaussian functions       ...  558
 # of contracted shells                  ...  171
 # of contracted basis functions         ...  387
 Highest angular momentum                ...    3
 Maximum contraction depth               ...    6
 Integral package used                   ... LIBINT
 Integral threshhold            Thresh   ...  2.500e-11
 Primitive cut-off              TCut     ...  2.500e-12


------------------------------ INTEGRAL EVALUATION ----------------------------


 * One electron integrals 
 Pre-screening matrix                    ... done
 Shell pair data                         ... done (   0.003 sec)



           ************************************************************
           *        Program running with 6 parallel MPI-processes     *
           *              working on a common directory               *
           ************************************************************
-------------------------------------------------------------------------------
                                 ORCA SCF
-------------------------------------------------------------------------------

------------
SCF SETTINGS
------------
Hamiltonian:
 Ab initio Hamiltonian  Method          .... Hartree-Fock(GTOs)


General Settings:
 Integral files         IntName         .... 12h2o.su.etal.mol1,2,3,4,5,6,7,10,11-orca.engrad-mp2.def2tzvp.frozencore
 Hartree-Fock type      HFTyp           .... RHF
 Total Charge           Charge          ....    0
 Multiplicity           Mult            ....    1
 Number of Electrons    NEL             ....   90
 Basis Dimension        Dim             ....  387
 Nuclear Repulsion      ENuc            ....    591.3050880679 Eh

Convergence Acceleration:
 DIIS                   CNVDIIS         .... on
   Start iteration      DIISMaxIt       ....    12
   Startup error        DIISStart       ....  0.200000
   # of expansion vecs  DIISMaxEq       ....     5
   Bias factor          DIISBfac        ....   1.050
   Max. coefficient     DIISMaxC        ....  10.000
 Newton-Raphson         CNVNR           .... off
 SOSCF                  CNVSOSCF        .... on
   Start iteration      SOSCFMaxIt      ....   150
   Startup grad/error   SOSCFStart      ....  0.003300
 Level Shifting         CNVShift        .... on
   Level shift para.    LevelShift      ....    0.2500
   Turn off err/grad.   ShiftErr        ....    0.0010
 Zerner damping         CNVZerner       .... off
 Static damping         CNVDamp         .... on
   Fraction old density DampFac         ....    0.7000
   Max. Damping (<1)    DampMax         ....    0.9800
   Min. Damping (>=0)   DampMin         ....    0.0000
   Turn off err/grad.   DampErr         ....    0.1000
 Fernandez-Rico         CNVRico         .... off

SCF Procedure:
 Maximum # iterations   MaxIter         ....   125
 SCF integral mode      SCFMode         .... Direct
   Integral package                     .... LIBINT
 Reset frequency        DirectResetFreq ....    20
 Integral Threshold     Thresh          ....  2.500e-11 Eh
 Primitive CutOff       TCut            ....  2.500e-12 Eh

Convergence Tolerance:
 Convergence Check Mode ConvCheckMode   .... Total+1el-Energy
 Convergence forced     ConvForced      .... 1
 Energy Change          TolE            ....  1.000e-08 Eh
 1-El. energy change                    ....  1.000e-05 Eh
 Orbital Gradient       TolG            ....  1.000e-05
 Orbital Rotation angle TolX            ....  1.000e-05
 DIIS Error             TolErr          ....  5.000e-07


Diagonalization of the overlap matrix:
Smallest eigenvalue                        ... 2.783e-03
Time for diagonalization                   ...    0.023 sec
Threshold for overlap eigenvalues          ... 1.000e-08
Number of eigenvalues below threshold      ... 0
Time for construction of square roots      ...    0.011 sec
Total time needed                          ...    0.035 sec

-------------------
DFT GRID GENERATION
-------------------

General Integration Accuracy     IntAcc      ...  4.340
Radial Grid Type                 RadialGrid  ... Gauss-Chebyshev
Angular Grid (max. acc.)         AngularGrid ... Lebedev-110
Angular grid pruning method      GridPruning ... 3 (G Style)
Weight generation scheme         WeightScheme... Becke
Basis function cutoff            BFCut       ...    1.0000e-11
Integration weight cutoff        WCut        ...    1.0000e-14
Grids for H and He will be reduced by one unit

# of grid points (after initial pruning)     ...  29736 (   0.0 sec)
# of grid points (after weights+screening)   ...  27423 (   0.0 sec)
nearest neighbour list constructed           ...    0.0 sec
Grid point re-assignment to atoms done       ...    0.0 sec
Grid point division into batches done        ...    0.0 sec
Reduced shell lists constructed in    0.1 sec

Total number of grid points                  ...    27423
Total number of batches                      ...      444
Average number of points per batch           ...       61
Average number of grid points per atom       ...     1016
Average number of shells per batch           ...    71.45 (41.79%)
Average number of basis functions per batch  ...   138.41 (35.77%)
Average number of large shells per batch     ...    46.11 (64.53%)
Average number of large basis fcns per batch ...    87.89 (63.50%)
Maximum spatial batch extension              ...  16.16, 15.25, 13.95 au
Average spatial batch extension              ...   0.67,  0.65,  0.60 au

Time for grid setup =    0.113 sec

------------------------------
INITIAL GUESS: MODEL POTENTIAL
------------------------------
Loading Hartree-Fock densities                     ... done
Calculating cut-offs                               ... done
Setting up the integral package                    ... done
Initializing the effective Hamiltonian             ... done
Starting the Coulomb interaction                   ... done (   0.1 sec)
Reading the grid                                   ... done
Mapping shells                                     ... done
Starting the XC term evaluation                    ... done (   0.1 sec)
Transforming the Hamiltonian                       ... done (   0.0 sec)
Diagonalizing the Hamiltonian                      ... done (   0.0 sec)
Back transforming the eigenvectors                 ... done (   0.0 sec)
Now organizing SCF variables                       ... done
                      ------------------
                      INITIAL GUESS DONE (   0.3 sec)
                      ------------------
--------------
SCF ITERATIONS
--------------
ITER       Energy         Delta-E        Max-DP      RMS-DP      [F,P]     Damp
               ***  Starting incremental Fock matrix formation  ***
  0   -683.8473090205   0.000000000000 0.04386621  0.00077197  0.3390448 0.7000
  1   -684.1365695431  -0.289260522604 0.02908925  0.00053647  0.2167457 0.7000
                               ***Turning on DIIS***
  2   -684.2911360157  -0.154566472569 0.01610525  0.00030318  0.1634241 0.7000
  3   -685.7575020695  -1.466366053879 0.00755741  0.00014241  0.1217546 0.7000
  4   -685.4643651049   0.293136964618 0.01721913  0.00033115  0.0861300 0.0000
  5   -684.6442628795   0.820102225391 0.00217674  0.00005312  0.0052704 0.0000
                      *** Initiating the SOSCF procedure ***
                           *** Shutting down DIIS ***
                      *** Re-Reading the Fockian *** 
                      *** Removing any level shift *** 
ITER      Energy       Delta-E        Grad      Rot      Max-DP    RMS-DP
  6   -684.60359887   0.0406640060  0.000984  0.000984  0.001501  0.000033
               *** Restarting incremental Fock matrix formation ***
  7   -684.59117627   0.0124225994  0.000360  0.000493  0.000716  0.000014
  8   -684.59118930  -0.0000130222  0.000137  0.000379  0.000625  0.000012
  9   -684.59119252  -0.0000032224  0.000053  0.000051  0.000103  0.000002
 10   -684.59119278  -0.0000002602  0.000010  0.000012  0.000019  0.000000
                  ***Gradient check signals convergence***
              ***Rediagonalizing the Fockian in SOSCF/NRSCF***

               *****************************************************
               *                     SUCCESS                       *
               *           SCF CONVERGED AFTER  11 CYCLES          *
               *****************************************************


----------------
TOTAL SCF ENERGY
----------------

Total Energy       :         -684.59119279 Eh          -18628.67342 eV

Components:
Nuclear Repulsion  :          591.30508807 Eh           16090.22946 eV
Electronic Energy  :        -1275.89628085 Eh          -34718.90288 eV
One Electron Energy:        -2124.99162795 Eh          -57823.96191 eV
Two Electron Energy:          849.09534710 Eh           23105.05903 eV

Virial components:
Potential Energy   :        -1368.34276530 Eh          -37234.49961 eV
Kinetic Energy     :          683.75157251 Eh           18605.82619 eV
Virial Ratio       :            2.00122796


---------------
SCF CONVERGENCE
---------------

  Last Energy change         ...   -7.6811e-09  Tolerance :   1.0000e-08
  Last MAX-Density change    ...    6.1480e-06  Tolerance :   1.0000e-07
  Last RMS-Density change    ...    1.2145e-07  Tolerance :   5.0000e-09
  Last Orbital Gradient      ...    2.2445e-06  Tolerance :   1.0000e-05
  Last Orbital Rotation      ...    2.2606e-06  Tolerance :   1.0000e-05

             **** THE GBW FILE WAS UPDATED (12h2o.su.etal.mol1,2,3,4,5,6,7,10,11-orca.engrad-mp2.def2tzvp.frozencore.gbw) ****
             **** DENSITY FILE WAS UPDATED (12h2o.su.etal.mol1,2,3,4,5,6,7,10,11-orca.engrad-mp2.def2tzvp.frozencore.scfp) ****
             **** ENERGY FILE WAS UPDATED (12h2o.su.etal.mol1,2,3,4,5,6,7,10,11-orca.engrad-mp2.def2tzvp.frozencore.en.tmp) ****
             **** THE GBW FILE WAS UPDATED (12h2o.su.etal.mol1,2,3,4,5,6,7,10,11-orca.engrad-mp2.def2tzvp.frozencore.gbw) ****
             **** DENSITY FILE WAS UPDATED (12h2o.su.etal.mol1,2,3,4,5,6,7,10,11-orca.engrad-mp2.def2tzvp.frozencore.scfp) ****
----------------
ORBITAL ENERGIES
----------------

  NO   OCC          E(Eh)            E(eV) 
   0   2.0000     -20.616290      -560.9978 
   1   2.0000     -20.609740      -560.8195 
   2   2.0000     -20.558041      -559.4127 
   3   2.0000     -20.554152      -559.3069 
   4   2.0000     -20.550693      -559.2128 
   5   2.0000     -20.546986      -559.1119 
   6   2.0000     -20.539593      -558.9107 
   7   2.0000     -20.539503      -558.9083 
   8   2.0000     -20.507456      -558.0363 
   9   2.0000      -1.396915       -38.0120 
  10   2.0000      -1.390304       -37.8321 
  11   2.0000      -1.358589       -36.9691 
  12   2.0000      -1.347542       -36.6685 
  13   2.0000      -1.340848       -36.4863 
  14   2.0000      -1.334066       -36.3018 
  15   2.0000      -1.323808       -36.0227 
  16   2.0000      -1.316322       -35.8189 
  17   2.0000      -1.292415       -35.1684 
  18   2.0000      -0.762227       -20.7412 
  19   2.0000      -0.755625       -20.5616 
  20   2.0000      -0.724373       -19.7112 
  21   2.0000      -0.710909       -19.3448 
  22   2.0000      -0.709973       -19.3194 
  23   2.0000      -0.706402       -19.2222 
  24   2.0000      -0.702569       -19.1179 
  25   2.0000      -0.700836       -19.0707 
  26   2.0000      -0.671895       -18.2832 
  27   2.0000      -0.644771       -17.5451 
  28   2.0000      -0.632856       -17.2209 
  29   2.0000      -0.609168       -16.5763 
  30   2.0000      -0.603027       -16.4092 
  31   2.0000      -0.595366       -16.2007 
  32   2.0000      -0.575654       -15.6643 
  33   2.0000      -0.575197       -15.6519 
  34   2.0000      -0.561784       -15.2869 
  35   2.0000      -0.546212       -14.8632 
  36   2.0000      -0.539220       -14.6729 
  37   2.0000      -0.522916       -14.2293 
  38   2.0000      -0.505482       -13.7549 
  39   2.0000      -0.497740       -13.5442 
  40   2.0000      -0.496424       -13.5084 
  41   2.0000      -0.494173       -13.4471 
  42   2.0000      -0.489170       -13.3110 
  43   2.0000      -0.486163       -13.2292 
  44   2.0000      -0.457268       -12.4429 
  45   0.0000       0.096357         2.6220 
  46   0.0000       0.107298         2.9197 
  47   0.0000       0.147966         4.0264 
  48   0.0000       0.159675         4.3450 
  49   0.0000       0.184761         5.0276 
  50   0.0000       0.194787         5.3004 
  51   0.0000       0.198887         5.4120 
  52   0.0000       0.228109         6.2072 
  53   0.0000       0.243096         6.6150 
  54   0.0000       0.256557         6.9813 
  55   0.0000       0.270380         7.3574 
  56   0.0000       0.308033         8.3820 
  57   0.0000       0.315162         8.5760 
  58   0.0000       0.328347         8.9348 
  59   0.0000       0.340304         9.2602 
  60   0.0000       0.344661         9.3787 
  61   0.0000       0.349985         9.5236 
  62   0.0000       0.362941         9.8761 
  63   0.0000       0.412948        11.2369 
  64   0.0000       0.468062        12.7366 
  65   0.0000       0.489952        13.3323 
  66   0.0000       0.495736        13.4897 
  67   0.0000       0.504362        13.7244 
  68   0.0000       0.514168        13.9912 
  69   0.0000       0.523423        14.2431 
  70   0.0000       0.528181        14.3725 
  71   0.0000       0.542250        14.7554 
  72   0.0000       0.543171        14.7804 
  73   0.0000       0.552795        15.0423 
  74   0.0000       0.559077        15.2133 
  75   0.0000       0.560297        15.2465 
  76   0.0000       0.569213        15.4891 
  77   0.0000       0.578557        15.7433 
  78   0.0000       0.604300        16.4438 
  79   0.0000       0.616645        16.7798 
  80   0.0000       0.618923        16.8417 
  81   0.0000       0.637178        17.3385 
  82   0.0000       0.637812        17.3557 
  83   0.0000       0.641283        17.4502 
  84   0.0000       0.659727        17.9521 
  85   0.0000       0.680502        18.5174 
  86   0.0000       0.690667        18.7940 
  87   0.0000       0.705612        19.2007 
  88   0.0000       0.714796        19.4506 
  89   0.0000       0.717834        19.5333 
  90   0.0000       0.731356        19.9012 
  91   0.0000       0.741186        20.1687 
  92   0.0000       0.756916        20.5967 
  93   0.0000       0.770470        20.9655 
  94   0.0000       0.773998        21.0615 
  95   0.0000       0.789268        21.4771 
  96   0.0000       0.801600        21.8126 
  97   0.0000       0.805889        21.9294 
  98   0.0000       0.822380        22.3781 
  99   0.0000       0.834765        22.7151 
 100   0.0000       0.845603        23.0100 
 101   0.0000       0.852446        23.1962 
 102   0.0000       0.887308        24.1449 
 103   0.0000       0.905819        24.6486 
 104   0.0000       0.908649        24.7256 
 105   0.0000       0.922457        25.1013 
 106   0.0000       0.946431        25.7537 
 107   0.0000       0.963574        26.2202 
 108   0.0000       0.981791        26.7159 
 109   0.0000       0.998652        27.1747 
 110   0.0000       1.037307        28.2266 
 111   0.0000       1.046163        28.4675 
 112   0.0000       1.075755        29.2728 
 113   0.0000       1.090501        29.6740 
 114   0.0000       1.126516        30.6541 
 115   0.0000       1.177675        32.0462 
 116   0.0000       1.218278        33.1510 
 117   0.0000       1.347189        36.6589 
 118   0.0000       1.359444        36.9924 
 119   0.0000       1.376877        37.4667 
 120   0.0000       1.392526        37.8925 
 121   0.0000       1.399828        38.0913 
 122   0.0000       1.406988        38.2861 
 123   0.0000       1.416527        38.5457 
 124   0.0000       1.428952        38.8838 
 125   0.0000       1.437435        39.1146 
 126   0.0000       1.439122        39.1605 
 127   0.0000       1.448367        39.4121 
 128   0.0000       1.461880        39.7798 
 129   0.0000       1.493171        40.6313 
 130   0.0000       1.509812        41.0841 
 131   0.0000       1.516693        41.2713 
 132   0.0000       1.535831        41.7921 
 133   0.0000       1.542345        41.9693 
 134   0.0000       1.564768        42.5795 
 135   0.0000       1.571179        42.7540 
 136   0.0000       1.578526        42.9539 
 137   0.0000       1.596537        43.4440 
 138   0.0000       1.604006        43.6472 
 139   0.0000       1.615841        43.9693 
 140   0.0000       1.630074        44.3566 
 141   0.0000       1.641105        44.6567 
 142   0.0000       1.653978        45.0070 
 143   0.0000       1.683036        45.7977 
 144   0.0000       1.797741        48.9190 
 145   0.0000       1.812778        49.3282 
 146   0.0000       1.833790        49.9000 
 147   0.0000       1.852573        50.4111 
 148   0.0000       1.876244        51.0552 
 149   0.0000       1.886631        51.3378 
 150   0.0000       1.911862        52.0244 
 151   0.0000       1.931295        52.5532 
 152   0.0000       1.939917        52.7878 
 153   0.0000       1.952328        53.1255 
 154   0.0000       1.960452        53.3466 
 155   0.0000       1.973289        53.6959 
 156   0.0000       1.980316        53.8871 
 157   0.0000       1.993205        54.2379 
 158   0.0000       2.007738        54.6333 
 159   0.0000       2.024135        55.0795 
 160   0.0000       2.049602        55.7725 
 161   0.0000       2.061278        56.0902 
 162   0.0000       2.064393        56.1750 
 163   0.0000       2.119455        57.6733 
 164   0.0000       2.127311        57.8871 
 165   0.0000       2.135359        58.1061 
 166   0.0000       2.154961        58.6395 
 167   0.0000       2.169908        59.0462 
 168   0.0000       2.186888        59.5082 
 169   0.0000       2.194326        59.7106 
 170   0.0000       2.235781        60.8387 
 171   0.0000       2.254233        61.3408 
 172   0.0000       2.266043        61.6622 
 173   0.0000       2.269057        61.7442 
 174   0.0000       2.291248        62.3480 
 175   0.0000       2.301894        62.6377 
 176   0.0000       2.317102        63.0516 
 177   0.0000       2.323473        63.2249 
 178   0.0000       2.329272        63.3827 
 179   0.0000       2.355765        64.1036 
 180   0.0000       2.365226        64.3611 
 181   0.0000       2.369916        64.4887 
 182   0.0000       2.383323        64.8535 
 183   0.0000       2.395258        65.1783 
 184   0.0000       2.397231        65.2320 
 185   0.0000       2.418573        65.8127 
 186   0.0000       2.427816        66.0642 
 187   0.0000       2.440655        66.4136 
 188   0.0000       2.473626        67.3108 
 189   0.0000       2.486313        67.6560 
 190   0.0000       2.523192        68.6595 
 191   0.0000       2.524971        68.7080 
 192   0.0000       2.542172        69.1760 
 193   0.0000       2.557394        69.5902 
 194   0.0000       2.571442        69.9725 
 195   0.0000       2.586948        70.3944 
 196   0.0000       2.603571        70.8468 
 197   0.0000       2.609500        71.0081 
 198   0.0000       2.621681        71.3396 
 199   0.0000       2.632288        71.6282 
 200   0.0000       2.643479        71.9327 
 201   0.0000       2.654342        72.2283 
 202   0.0000       2.660366        72.3922 
 203   0.0000       2.665777        72.5395 
 204   0.0000       2.672763        72.7296 
 205   0.0000       2.679215        72.9052 
 206   0.0000       2.696901        73.3864 
 207   0.0000       2.712669        73.8155 
 208   0.0000       2.735613        74.4398 
 209   0.0000       2.742436        74.6255 
 210   0.0000       2.750453        74.8436 
 211   0.0000       2.755677        74.9858 
 212   0.0000       2.780539        75.6623 
 213   0.0000       2.797956        76.1363 
 214   0.0000       2.825878        76.8960 
 215   0.0000       2.853741        77.6542 
 216   0.0000       2.889745        78.6339 
 217   0.0000       2.896694        78.8230 
 218   0.0000       2.927815        79.6699 
 219   0.0000       2.958012        80.4916 
 220   0.0000       2.967573        80.7518 
 221   0.0000       2.974086        80.9290 
 222   0.0000       2.996899        81.5498 
 223   0.0000       3.002911        81.7134 
 224   0.0000       3.011968        81.9598 
 225   0.0000       3.018820        82.1463 
 226   0.0000       3.029561        82.4386 
 227   0.0000       3.053255        83.0833 
 228   0.0000       3.063112        83.3515 
 229   0.0000       3.086956        84.0003 
 230   0.0000       3.108163        84.5774 
 231   0.0000       3.117421        84.8293 
 232   0.0000       3.124413        85.0196 
 233   0.0000       3.143628        85.5425 
 234   0.0000       3.163487        86.0829 
 235   0.0000       3.166212        86.1570 
 236   0.0000       3.201377        87.1139 
 237   0.0000       3.226210        87.7896 
 238   0.0000       3.262436        88.7754 
 239   0.0000       3.288041        89.4721 
 240   0.0000       3.301032        89.8256 
 241   0.0000       3.315793        90.2273 
 242   0.0000       3.328839        90.5823 
 243   0.0000       3.350356        91.1678 
 244   0.0000       3.361394        91.4682 
 245   0.0000       3.374106        91.8141 
 246   0.0000       3.398724        92.4840 
 247   0.0000       3.426795        93.2478 
 248   0.0000       3.478709        94.6605 
 249   0.0000       3.497507        95.1720 
 250   0.0000       3.531761        96.1041 
 251   0.0000       3.570828        97.1672 
 252   0.0000       3.972815       108.1058 
 253   0.0000       3.979035       108.2751 
 254   0.0000       4.065503       110.6280 
 255   0.0000       4.098178       111.5171 
 256   0.0000       4.125369       112.2570 
 257   0.0000       4.132648       112.4551 
 258   0.0000       4.157042       113.1189 
 259   0.0000       4.174190       113.5855 
 260   0.0000       4.200298       114.2959 
 261   0.0000       4.269514       116.1794 
 262   0.0000       4.273642       116.2917 
 263   0.0000       4.329093       117.8006 
 264   0.0000       4.348970       118.3415 
 265   0.0000       4.351707       118.4160 
 266   0.0000       4.368392       118.8700 
 267   0.0000       4.381871       119.2368 
 268   0.0000       4.392929       119.5377 
 269   0.0000       4.422402       120.3397 
 270   0.0000       5.497664       149.5990 
 271   0.0000       5.504436       149.7833 
 272   0.0000       5.541168       150.7828 
 273   0.0000       5.547053       150.9430 
 274   0.0000       5.549080       150.9981 
 275   0.0000       5.550572       151.0387 
 276   0.0000       5.559216       151.2740 
 277   0.0000       5.568950       151.5388 
 278   0.0000       5.592207       152.1717 
 279   0.0000       5.596286       152.2827 
 280   0.0000       5.599023       152.3572 
 281   0.0000       5.653885       153.8500 
 282   0.0000       5.673902       154.3947 
 283   0.0000       5.680937       154.5862 
 284   0.0000       5.685729       154.7165 
 285   0.0000       5.694515       154.9556 
 286   0.0000       5.700032       155.1058 
 287   0.0000       5.704075       155.2158 
 288   0.0000       5.761576       156.7805 
 289   0.0000       5.767372       156.9382 
 290   0.0000       5.799678       157.8173 
 291   0.0000       5.809143       158.0748 
 292   0.0000       5.818281       158.3235 
 293   0.0000       5.827442       158.5728 
 294   0.0000       5.834189       158.7564 
 295   0.0000       5.836271       158.8130 
 296   0.0000       5.840737       158.9345 
 297   0.0000       5.849956       159.1854 
 298   0.0000       5.854857       159.3188 
 299   0.0000       5.862996       159.5402 
 300   0.0000       5.867544       159.6640 
 301   0.0000       5.871205       159.7636 
 302   0.0000       5.874066       159.8415 
 303   0.0000       5.880961       160.0291 
 304   0.0000       5.886821       160.1885 
 305   0.0000       5.892948       160.3553 
 306   0.0000       5.894150       160.3880 
 307   0.0000       5.899795       160.5416 
 308   0.0000       5.905802       160.7050 
 309   0.0000       5.908727       160.7846 
 310   0.0000       5.914734       160.9481 
 311   0.0000       5.923022       161.1736 
 312   0.0000       5.933550       161.4601 
 313   0.0000       5.950921       161.9328 
 314   0.0000       5.958513       162.1394 
 315   0.0000       6.380179       173.6135 
 316   0.0000       6.385911       173.7695 
 317   0.0000       6.472631       176.1292 
 318   0.0000       6.486581       176.5088 
 319   0.0000       6.488919       176.5725 
 320   0.0000       6.493448       176.6957 
 321   0.0000       6.496449       176.7774 
 322   0.0000       6.507002       177.0645 
 323   0.0000       6.538388       177.9186 
 324   0.0000       6.641262       180.7179 
 325   0.0000       6.667833       181.4410 
 326   0.0000       6.677129       181.6939 
 327   0.0000       6.706158       182.4838 
 328   0.0000       6.729047       183.1067 
 329   0.0000       6.748295       183.6304 
 330   0.0000       6.755824       183.8353 
 331   0.0000       6.765636       184.1023 
 332   0.0000       6.792840       184.8426 
 333   0.0000       6.833477       185.9484 
 334   0.0000       6.842240       186.1868 
 335   0.0000       6.855967       186.5604 
 336   0.0000       6.859775       186.6640 
 337   0.0000       6.866781       186.8546 
 338   0.0000       6.875845       187.1012 
 339   0.0000       6.886188       187.3827 
 340   0.0000       6.891978       187.5403 
 341   0.0000       6.895269       187.6298 
 342   0.0000       6.903382       187.8506 
 343   0.0000       6.905562       187.9099 
 344   0.0000       6.915815       188.1889 
 345   0.0000       6.917881       188.2451 
 346   0.0000       6.925428       188.4505 
 347   0.0000       6.934924       188.7089 
 348   0.0000       6.940778       188.8682 
 349   0.0000       6.958129       189.3403 
 350   0.0000       6.971672       189.7089 
 351   0.0000       6.979700       189.9273 
 352   0.0000       6.986967       190.1250 
 353   0.0000       7.001896       190.5313 
 354   0.0000       7.013836       190.8562 
 355   0.0000       7.028332       191.2506 
 356   0.0000       7.059993       192.1122 
 357   0.0000       7.067618       192.3197 
 358   0.0000       7.111540       193.5148 
 359   0.0000       7.143750       194.3913 
 360   0.0000       7.340885       199.7556 
 361   0.0000       7.347969       199.9484 
 362   0.0000       7.372949       200.6281 
 363   0.0000       7.437480       202.3841 
 364   0.0000       7.448587       202.6864 
 365   0.0000       7.463152       203.0827 
 366   0.0000       7.466991       203.1871 
 367   0.0000       7.480826       203.5636 
 368   0.0000       7.491459       203.8530 
 369   0.0000       7.511140       204.3885 
 370   0.0000       7.549488       205.4320 
 371   0.0000       7.576790       206.1749 
 372   0.0000       7.580797       206.2840 
 373   0.0000       7.597172       206.7296 
 374   0.0000       7.614866       207.2110 
 375   0.0000       7.630271       207.6302 
 376   0.0000       7.639454       207.8801 
 377   0.0000       7.661945       208.4921 
 378   0.0000      44.896852      1221.7054 
 379   0.0000      44.901782      1221.8396 
 380   0.0000      44.993359      1224.3315 
 381   0.0000      45.016836      1224.9704 
 382   0.0000      45.040490      1225.6140 
 383   0.0000      45.068798      1226.3844 
 384   0.0000      45.083195      1226.7761 
 385   0.0000      45.138833      1228.2901 
 386   0.0000      45.220115      1230.5019 

                    ********************************
                    * MULLIKEN POPULATION ANALYSIS *
                    ********************************

-----------------------
MULLIKEN ATOMIC CHARGES
-----------------------
   0 O :   -0.746179
   1 H :    0.373262
   2 H :    0.389354
   3 O :   -0.756098
   4 H :    0.375180
   5 H :    0.397453
   6 O :   -0.759199
   7 H :    0.405470
   8 H :    0.382367
   9 O :   -0.805244
  10 H :    0.404823
  11 H :    0.388710
  12 O :   -0.780563
  13 H :    0.389316
  14 H :    0.388660
  15 O :   -0.766949
  16 H :    0.360656
  17 H :    0.411535
  18 O :   -0.804461
  19 H :    0.398876
  20 H :    0.392692
  21 O :   -0.777873
  22 H :    0.345338
  23 H :    0.403365
  24 O :   -0.756955
  25 H :    0.388099
  26 H :    0.358362
Sum of atomic charges:   -0.0000000

--------------------------------
MULLIKEN REDUCED ORBITAL CHARGES
--------------------------------
  0 O s       :     3.807526  s :     3.807526
      pz      :     1.730041  p :     4.913276
      px      :     1.385920
      py      :     1.797314
      dz2     :     0.003974  d :     0.023899
      dxz     :     0.004456
      dyz     :     0.005436
      dx2y2   :     0.002532
      dxy     :     0.007502
      f0      :     0.000085  f :     0.001477
      f+1     :     0.000333
      f-1     :     0.000180
      f+2     :     0.000063
      f-2     :     0.000348
      f+3     :     0.000094
      f-3     :     0.000375
  1 H s       :     0.581725  s :     0.581725
      pz      :     0.016986  p :     0.045013
      px      :     0.013278
      py      :     0.014749
  2 H s       :     0.570303  s :     0.570303
      pz      :     0.010300  p :     0.040343
      px      :     0.018033
      py      :     0.012010
  3 O s       :     3.807540  s :     3.807540
      pz      :     1.734475  p :     4.923386
      px      :     1.795207
      py      :     1.393704
      dz2     :     0.004021  d :     0.023702
      dxz     :     0.005342
      dyz     :     0.004535
      dx2y2   :     0.002514
      dxy     :     0.007291
      f0      :     0.000085  f :     0.001470
      f+1     :     0.000179
      f-1     :     0.000334
      f+2     :     0.000062
      f-2     :     0.000348
      f+3     :     0.000370
      f-3     :     0.000093
  4 H s       :     0.579901  s :     0.579901
      pz      :     0.017045  p :     0.044918
      px      :     0.014647
      py      :     0.013226
  5 H s       :     0.562328  s :     0.562328
      pz      :     0.010179  p :     0.040218
      px      :     0.011882
      py      :     0.018158
  6 O s       :     3.792550  s :     3.792550
      pz      :     1.575964  p :     4.941239
      px      :     1.581461
      py      :     1.783814
      dz2     :     0.011651  d :     0.024061
      dxz     :     0.001190
      dyz     :     0.002238
      dx2y2   :     0.002356
      dxy     :     0.006626
      f0      :     0.000227  f :     0.001348
      f+1     :     0.000377
      f-1     :     0.000148
      f+2     :     0.000050
      f-2     :     0.000055
      f+3     :     0.000048
      f-3     :     0.000443
  7 H s       :     0.546655  s :     0.546655
      pz      :     0.024938  p :     0.047874
      px      :     0.011009
      py      :     0.011927
  8 H s       :     0.568101  s :     0.568101
      pz      :     0.010011  p :     0.049532
      px      :     0.023732
      py      :     0.015789
  9 O s       :     3.800007  s :     3.800007
      pz      :     1.614338  p :     4.981839
      px      :     1.846478
      py      :     1.521024
      dz2     :     0.010079  d :     0.022100
      dxz     :     0.001870
      dyz     :     0.002457
      dx2y2   :     0.003134
      dxy     :     0.004560
      f0      :     0.000163  f :     0.001298
      f+1     :     0.000104
      f-1     :     0.000430
      f+2     :     0.000067
      f-2     :     0.000035
      f+3     :     0.000406
      f-3     :     0.000094
 10 H s       :     0.546686  s :     0.546686
      pz      :     0.025307  p :     0.048491
      px      :     0.012217
      py      :     0.010967
 11 H s       :     0.558551  s :     0.558551
      pz      :     0.008943  p :     0.052739
      px      :     0.014702
      py      :     0.029095
 12 O s       :     3.796873  s :     3.796873
      pz      :     1.593691  p :     4.958885
      px      :     1.838569
      py      :     1.526625
      dz2     :     0.011065  d :     0.023501
      dxz     :     0.002052
      dyz     :     0.002827
      dx2y2   :     0.003172
      dxy     :     0.004384
      f0      :     0.000153  f :     0.001304
      f+1     :     0.000106
      f-1     :     0.000447
      f+2     :     0.000066
      f-2     :     0.000039
      f+3     :     0.000401
      f-3     :     0.000092
 13 H s       :     0.557129  s :     0.557129
      pz      :     0.009267  p :     0.053555
      px      :     0.014577
      py      :     0.029712
 14 H s       :     0.563033  s :     0.563033
      pz      :     0.024299  p :     0.048307
      px      :     0.012875
      py      :     0.011133
 15 O s       :     3.802636  s :     3.802636
      pz      :     1.552941  p :     4.938658
      px      :     1.542402
      py      :     1.843314
      dz2     :     0.011686  d :     0.024302
      dxz     :     0.002934
      dyz     :     0.002069
      dx2y2   :     0.003241
      dxy     :     0.004372
      f0      :     0.000170  f :     0.001353
      f+1     :     0.000463
      f-1     :     0.000112
      f+2     :     0.000067
      f-2     :     0.000041
      f+3     :     0.000093
      f-3     :     0.000406
 16 H s       :     0.595566  s :     0.595566
      pz      :     0.018859  p :     0.043777
      px      :     0.011516
      py      :     0.013401
 17 H s       :     0.535534  s :     0.535534
      pz      :     0.008917  p :     0.052930
      px      :     0.029692
      py      :     0.014321
 18 O s       :     3.798595  s :     3.798595
      pz      :     1.603579  p :     4.982724
      px      :     1.528461
      py      :     1.850684
      dz2     :     0.009943  d :     0.021835
      dxz     :     0.002459
      dyz     :     0.001877
      dx2y2   :     0.003045
      dxy     :     0.004510
      f0      :     0.000171  f :     0.001307
      f+1     :     0.000428
      f-1     :     0.000106
      f+2     :     0.000067
      f-2     :     0.000035
      f+3     :     0.000094
      f-3     :     0.000406
 19 H s       :     0.552672  s :     0.552672
      pz      :     0.024581  p :     0.048452
      px      :     0.011245
      py      :     0.012626
 20 H s       :     0.554473  s :     0.554473
      pz      :     0.008677  p :     0.052835
      px      :     0.029681
      py      :     0.014476
 21 O s       :     3.808251  s :     3.808251
      pz      :     1.709707  p :     4.945579
      px      :     1.810751
      py      :     1.425121
      dz2     :     0.003567  d :     0.022621
      dxz     :     0.005321
      dyz     :     0.004227
      dx2y2   :     0.002220
      dxy     :     0.007285
      f0      :     0.000079  f :     0.001422
      f+1     :     0.000177
      f-1     :     0.000309
      f+2     :     0.000069
      f-2     :     0.000348
      f+3     :     0.000351
      f-3     :     0.000088
 22 H s       :     0.608859  s :     0.608859
      pz      :     0.016912  p :     0.045802
      px      :     0.014992
      py      :     0.013899
 23 H s       :     0.540030  s :     0.540030
      pz      :     0.010023  p :     0.056605
      px      :     0.013943
      py      :     0.032638
 24 O s       :     3.805449  s :     3.805449
      pz      :     1.555017  p :     4.925425
      px      :     1.817315
      py      :     1.553093
      dz2     :     0.011367  d :     0.024639
      dxz     :     0.002866
      dyz     :     0.001212
      dx2y2   :     0.002081
      dxy     :     0.007113
      f0      :     0.000249  f :     0.001441
      f+1     :     0.000160
      f-1     :     0.000370
      f+2     :     0.000056
      f-2     :     0.000055
      f+3     :     0.000486
      f-3     :     0.000066
 25 H s       :     0.563161  s :     0.563161
      pz      :     0.024333  p :     0.048739
      px      :     0.012915
      py      :     0.011491
 26 H s       :     0.591113  s :     0.591113
      pz      :     0.010487  p :     0.050524
      px      :     0.016747
      py      :     0.023291


                     *******************************
                     * LOEWDIN POPULATION ANALYSIS *
                     *******************************

----------------------
LOEWDIN ATOMIC CHARGES
----------------------
   0 O :   -0.297747
   1 H :    0.167319
   2 H :    0.196035
   3 O :   -0.299519
   4 H :    0.168357
   5 H :    0.199017
   6 O :   -0.299210
   7 H :    0.162170
   8 H :    0.154246
   9 O :   -0.317725
  10 H :    0.159583
  11 H :    0.150076
  12 O :   -0.332812
  13 H :    0.150555
  14 H :    0.153065
  15 O :   -0.324789
  16 H :    0.167607
  17 H :    0.157442
  18 O :   -0.318521
  19 H :    0.157562
  20 H :    0.151839
  21 O :   -0.351157
  22 H :    0.152852
  23 H :    0.154012
  24 O :   -0.359670
  25 H :    0.154592
  26 H :    0.144819

-------------------------------
LOEWDIN REDUCED ORBITAL CHARGES
-------------------------------
  0 O s       :     3.461920  s :     3.461920
      pz      :     1.686170  p :     4.802472
      px      :     1.366811
      py      :     1.749491
      dz2     :     0.005355  d :     0.031295
      dxz     :     0.006672
      dyz     :     0.005317
      dx2y2   :     0.004145
      dxy     :     0.009805
      f0      :     0.000089  f :     0.002060
      f+1     :     0.000444
      f-1     :     0.000272
      f+2     :     0.000033
      f-2     :     0.000600
      f+3     :     0.000090
      f-3     :     0.000532
  1 H s       :     0.668503  s :     0.668503
      pz      :     0.066651  p :     0.164179
      px      :     0.044594
      py      :     0.052934
  2 H s       :     0.654711  s :     0.654711
      pz      :     0.033127  p :     0.149254
      px      :     0.072679
      py      :     0.043447
  3 O s       :     3.460771  s :     3.460771
      pz      :     1.688056  p :     4.805876
      px      :     1.747934
      py      :     1.369886
      dz2     :     0.005331  d :     0.030831
      dxz     :     0.005222
      dyz     :     0.006706
      dx2y2   :     0.004097
      dxy     :     0.009476
      f0      :     0.000090  f :     0.002040
      f+1     :     0.000268
      f-1     :     0.000441
      f+2     :     0.000033
      f-2     :     0.000599
      f+3     :     0.000520
      f-3     :     0.000089
  4 H s       :     0.667442  s :     0.667442
      pz      :     0.066756  p :     0.164201
      px      :     0.052741
      py      :     0.044704
  5 H s       :     0.651264  s :     0.651264
      pz      :     0.033070  p :     0.149719
      px      :     0.043396
      py      :     0.073253
  6 O s       :     3.446359  s :     3.446359
      pz      :     1.544882  p :     4.820894
      px      :     1.548532
      py      :     1.727480
      dz2     :     0.014729  d :     0.029942
      dxz     :     0.001748
      dyz     :     0.001695
      dx2y2   :     0.003455
      dxy     :     0.008314
      f0      :     0.000410  f :     0.002015
      f+1     :     0.000542
      f-1     :     0.000319
      f+2     :     0.000019
      f-2     :     0.000048
      f+3     :     0.000025
      f-3     :     0.000652
  7 H s       :     0.664745  s :     0.664745
      pz      :     0.094735  p :     0.173085
      px      :     0.036833
      py      :     0.041517
  8 H s       :     0.671632  s :     0.671632
      pz      :     0.031281  p :     0.174122
      px      :     0.085097
      py      :     0.057744
  9 O s       :     3.448722  s :     3.448722
      pz      :     1.564374  p :     4.839112
      px      :     1.785742
      py      :     1.488996
      dz2     :     0.013268  d :     0.028023
      dxz     :     0.001130
      dyz     :     0.003471
      dx2y2   :     0.004606
      dxy     :     0.005547
      f0      :     0.000329  f :     0.001868
      f+1     :     0.000186
      f-1     :     0.000680
      f+2     :     0.000034
      f-2     :     0.000044
      f+3     :     0.000531
      f-3     :     0.000065
 10 H s       :     0.665186  s :     0.665186
      pz      :     0.095573  p :     0.175231
      px      :     0.042347
      py      :     0.037311
 11 H s       :     0.661781  s :     0.661781
      pz      :     0.030663  p :     0.188143
      px      :     0.052696
      py      :     0.104784
 12 O s       :     3.455083  s :     3.455083
      pz      :     1.571058  p :     4.847330
      px      :     1.782706
      py      :     1.493566
      dz2     :     0.013457  d :     0.028509
      dxz     :     0.001212
      dyz     :     0.003842
      dx2y2   :     0.004626
      dxy     :     0.005372
      f0      :     0.000338  f :     0.001891
      f+1     :     0.000191
      f-1     :     0.000697
      f+2     :     0.000036
      f-2     :     0.000044
      f+3     :     0.000521
      f-3     :     0.000063
 13 H s       :     0.660365  s :     0.660365
      pz      :     0.030101  p :     0.189080
      px      :     0.052664
      py      :     0.106315
 14 H s       :     0.673868  s :     0.673868
      pz      :     0.092159  p :     0.173067
      px      :     0.043095
      py      :     0.037813
 15 O s       :     3.460849  s :     3.460849
      pz      :     1.548133  p :     4.832227
      px      :     1.498104
      py      :     1.785990
      dz2     :     0.014527  d :     0.029748
      dxz     :     0.004186
      dyz     :     0.001266
      dx2y2   :     0.004559
      dxy     :     0.005210
      f0      :     0.000369  f :     0.001965
      f+1     :     0.000737
      f-1     :     0.000197
      f+2     :     0.000040
      f-2     :     0.000048
      f+3     :     0.000064
      f-3     :     0.000511
 16 H s       :     0.672581  s :     0.672581
      pz      :     0.079503  p :     0.159812
      px      :     0.037205
      py      :     0.043104
 17 H s       :     0.654102  s :     0.654102
      pz      :     0.028777  p :     0.188456
      px      :     0.107057
      py      :     0.052623
 18 O s       :     3.448432  s :     3.448432
      pz      :     1.557230  p :     4.840330
      px      :     1.493897
      py      :     1.789203
      dz2     :     0.013210  d :     0.027881
      dxz     :     0.003619
      dyz     :     0.001148
      dx2y2   :     0.004477
      dxy     :     0.005426
      f0      :     0.000345  f :     0.001879
      f+1     :     0.000683
      f-1     :     0.000187
      f+2     :     0.000035
      f-2     :     0.000044
      f+3     :     0.000064
      f-3     :     0.000522
 19 H s       :     0.668856  s :     0.668856
      pz      :     0.093189  p :     0.173582
      px      :     0.037530
      py      :     0.042863
 20 H s       :     0.657973  s :     0.657973
      pz      :     0.030172  p :     0.190188
      px      :     0.107250
      py      :     0.052766
 21 O s       :     3.460449  s :     3.460449
      pz      :     1.676653  p :     4.859860
      px      :     1.782768
      py      :     1.400438
      dz2     :     0.004509  d :     0.028876
      dxz     :     0.005551
      dyz     :     0.006782
      dx2y2   :     0.003190
      dxy     :     0.008843
      f0      :     0.000082  f :     0.001972
      f+1     :     0.000260
      f-1     :     0.000424
      f+2     :     0.000034
      f-2     :     0.000619
      f+3     :     0.000469
      f-3     :     0.000084
 22 H s       :     0.682285  s :     0.682285
      pz      :     0.065712  p :     0.164863
      px      :     0.053260
      py      :     0.045891
 23 H s       :     0.648113  s :     0.648113
      pz      :     0.033268  p :     0.197874
      px      :     0.047776
      py      :     0.116830
 24 O s       :     3.460357  s :     3.460357
      pz      :     1.536734  p :     4.867137
      px      :     1.791178
      py      :     1.539225
      dz2     :     0.014756  d :     0.030142
      dxz     :     0.002203
      dyz     :     0.001845
      dx2y2   :     0.002201
      dxy     :     0.009137
      f0      :     0.000439  f :     0.002035
      f+1     :     0.000303
      f-1     :     0.000545
      f+2     :     0.000023
      f-2     :     0.000047
      f+3     :     0.000676
      f-3     :     0.000002
 25 H s       :     0.673434  s :     0.673434
      pz      :     0.093179  p :     0.171974
      px      :     0.042115
      py      :     0.036680
 26 H s       :     0.682706  s :     0.682706
      pz      :     0.031584  p :     0.172475
      px      :     0.057713
      py      :     0.083179


                      *****************************
                      * MAYER POPULATION ANALYSIS *
                      *****************************

  NA   - Mulliken gross atomic population
  ZA   - Total nuclear charge
  QA   - Mulliken gross atomic charge
  VA   - Mayer's total valence
  BVA  - Mayer's bonded valence
  FA   - Mayer's free valence

  ATOM       NA         ZA         QA         VA         BVA        FA
  0 O      8.7462     8.0000    -0.7462     1.7507     1.7507    -0.0000
  1 H      0.6267     1.0000     0.3733     0.8767     0.8767     0.0000
  2 H      0.6106     1.0000     0.3894     0.8632     0.8632    -0.0000
  3 O      8.7561     8.0000    -0.7561     1.7454     1.7454     0.0000
  4 H      0.6248     1.0000     0.3752     0.8752     0.8752     0.0000
  5 H      0.6025     1.0000     0.3975     0.8577     0.8577     0.0000
  6 O      8.7592     8.0000    -0.7592     1.7300     1.7300     0.0000
  7 H      0.5945     1.0000     0.4055     0.8616     0.8616     0.0000
  8 H      0.6176     1.0000     0.3824     0.8826     0.8826    -0.0000
  9 O      8.8052     8.0000    -0.8052     1.6683     1.6683    -0.0000
 10 H      0.5952     1.0000     0.4048     0.8719     0.8719     0.0000
 11 H      0.6113     1.0000     0.3887     0.8905     0.8905    -0.0000
 12 O      8.7806     8.0000    -0.7806     1.6931     1.6931     0.0000
 13 H      0.6107     1.0000     0.3893     0.8957     0.8957     0.0000
 14 H      0.6113     1.0000     0.3887     0.8738     0.8738    -0.0000
 15 O      8.7669     8.0000    -0.7669     1.7159     1.7159     0.0000
 16 H      0.6393     1.0000     0.3607     0.8855     0.8855    -0.0000
 17 H      0.5885     1.0000     0.4115     0.8715     0.8715     0.0000
 18 O      8.8045     8.0000    -0.8045     1.6590     1.6590    -0.0000
 19 H      0.6011     1.0000     0.3989     0.8703     0.8703    -0.0000
 20 H      0.6073     1.0000     0.3927     0.8925     0.8925    -0.0000
 21 O      8.7779     8.0000    -0.7779     1.6811     1.6811     0.0000
 22 H      0.6547     1.0000     0.3453     0.8976     0.8976     0.0000
 23 H      0.5966     1.0000     0.4034     0.8767     0.8767     0.0000
 24 O      8.7570     8.0000    -0.7570     1.7291     1.7291    -0.0000
 25 H      0.6119     1.0000     0.3881     0.8755     0.8755    -0.0000
 26 H      0.6416     1.0000     0.3584     0.8993     0.8993    -0.0000

  Mayer bond orders larger than 0.100000
B(  0-O ,  1-H ) :   0.8676 B(  0-O ,  2-H ) :   0.8506 B(  3-O ,  4-H ) :   0.8661 
B(  3-O ,  5-H ) :   0.8435 B(  6-O ,  7-H ) :   0.8317 B(  6-O ,  8-H ) :   0.8482 
B(  9-O , 10-H ) :   0.8226 B(  9-O , 11-H ) :   0.8075 B( 12-O , 13-H ) :   0.8039 
B( 12-O , 14-H ) :   0.8493 B( 15-O , 16-H ) :   0.8775 B( 15-O , 17-H ) :   0.7936 
B( 18-O , 19-H ) :   0.8375 B( 18-O , 20-H ) :   0.7910 B( 21-O , 22-H ) :   0.8890 
B( 21-O , 23-H ) :   0.7857 B( 24-O , 25-H ) :   0.8503 B( 24-O , 26-H ) :   0.8736 


-------
TIMINGS
-------

Total SCF time: 0 days 0 hours 0 min 42 sec 

Total time                  ....      42.608 sec
Sum of individual times     ....      42.276 sec  ( 99.2%)

Fock matrix formation       ....      41.515 sec  ( 97.4%)
Diagonalization             ....       0.206 sec  (  0.5%)
Density matrix formation    ....       0.020 sec  (  0.0%)
Population analysis         ....       0.020 sec  (  0.0%)
Initial guess               ....       0.235 sec  (  0.6%)
Orbital Transformation      ....       0.000 sec  (  0.0%)
Orbital Orthonormalization  ....       0.000 sec  (  0.0%)
DIIS solution               ....       0.079 sec  (  0.2%)
SOSCF solution              ....       0.089 sec  (  0.2%)


           ************************************************************
           *        Program running with 6 parallel MPI-processes     *
           *              working on a common directory               *
           ************************************************************

------------------------------------------------------------------------------
                                ORCA  MP2 
------------------------------------------------------------------------------

Freezing NCore=18 chemical core electrons
MP2 will be done in the AO integral direct mode
The Q1-step will be done using symmetric double matrices
Dimension of the basis                    ...  387
Memory devoted for MP2                    ... 8000 MB   
Memory needed for all in one shot         ... 1331 MB
Number of MOs that can be treated together...   35      
MP2 density construction                  ... relaxed
The MP2 gradient is requested => amplitudes will be stored on disk
Total number of MOs              ...   36
Number of MOs treated per batch  ...    6 
Number of batches necessary      ...    1 
OPERATORS   0/  0 PASS   0
-----------------------------------------------
 MP2 CORRELATION ENERGY   :     -2.338547385 Eh
-----------------------------------------------


---------------------
MP2 DENSITY FORMATION
---------------------

Completing the external part of the density      ... done
Storing the unrelaxed density                    ... done

Calculating G(D)                                 ... done
Completing the Lagrangian                        ... done
Solving the Z-vector equations                   ... 

------------------------------------------------------------------------------
                           ORCA CP-SCF CALCULATION
------------------------------------------------------------------------------

Input orbitals are from        ... 12h2o.su.etal.mol1,2,3,4,5,6,7,10,11-orca.engrad-mp2.def2tzvp.frozencore.gbw
Input Perturbation             ... 12h2o.su.etal.mol1,2,3,4,5,6,7,10,11-orca.engrad-mp2.def2tzvp.frozencore.pin.tmp
Wavefunction output            ... 12h2o.su.etal.mol1,2,3,4,5,6,7,10,11-orca.engrad-mp2.def2tzvp.frozencore.pout.tmp
Perturbation mode              ... Real perturbation (singlet)
Solver                         ... POPLE
Max. number of iterations      ... 128
Convergence tolerance          ... 1.000e-08
Integral handling              ... Direct
Number of perturbations        ... 1
Number of operators            ... 1
Orbital ranges used for CP-SCF:
 Operator 0:  Orbitals   0... 44  to  45...386
Variables per vector in CP-SCF ... 15390
Number of vectors sought       ... 1
     CP-SCF ITERATION   0: 
     CP-SCF ITERATION   1:      0.001201376941
     CP-SCF ITERATION   2:      0.000035229905
     CP-SCF ITERATION   3:      0.000001751907
     CP-SCF ITERATION   4:      0.000000176279
     CP-SCF ITERATION   5:      0.000000013966
     CP-SCF ITERATION   6:      0.000000001031
                                                 ... done
Finalizing the relaxed density                   ... done
Transforming P to the AO basis                   ... done
Storing the relaxed density                      ... done

------------------------------------
ENERGY WEIGHTED DENSITY FINALIZATION
------------------------------------

Gathering the parts of the W-matrix              ...                                                      done
Forming the Z-density                            ... done
Transforming Z to the AO basis                   ... done
Calculating G(Z)                                 ... done
Finalizing the W-matrix                          ...                                                      done
Transforming W to the AO basis and storing       ... done

                *********************************************
                * UNRELAXED MP2 DENSITY POPULATION ANALYSIS *
                *********************************************

------------------------------------------------------------------------------
                           ORCA POPULATION ANALYSIS
------------------------------------------------------------------------------
Input electron density              ... 12h2o.su.etal.mol1,2,3,4,5,6,7,10,11-orca.engrad-mp2.def2tzvp.frozencore.pmp2ur
BaseName (.gbw .S,...)              ... 12h2o.su.etal.mol1,2,3,4,5,6,7,10,11-orca.engrad-mp2.def2tzvp.frozencore

                    ********************************
                    * MULLIKEN POPULATION ANALYSIS *
                    ********************************

-----------------------
MULLIKEN ATOMIC CHARGES
-----------------------
   0 O :   -0.740403
   1 H :    0.371021
   2 H :    0.386482
   3 O :   -0.750240
   4 H :    0.372945
   5 H :    0.394540
   6 O :   -0.751937
   7 H :    0.402393
   8 H :    0.379091
   9 O :   -0.797533
  10 H :    0.401569
  11 H :    0.383754
  12 O :   -0.772838
  13 H :    0.384492
  14 H :    0.385674
  15 O :   -0.759755
  16 H :    0.358131
  17 H :    0.406872
  18 O :   -0.796745
  19 H :    0.395903
  20 H :    0.387626
  21 O :   -0.771667
  22 H :    0.343041
  23 H :    0.398444
  24 O :   -0.751084
  25 H :    0.385037
  26 H :    0.355187
Sum of atomic charges:   -0.0000000

--------------------------------
MULLIKEN REDUCED ORBITAL CHARGES
--------------------------------
  0 O s       :     3.802678  s :     3.802678
      pz      :     1.718932  p :     4.882464
      px      :     1.378040
      py      :     1.785493
      dz2     :     0.009550  d :     0.051214
      dxz     :     0.009868
      dyz     :     0.010948
      dx2y2   :     0.008023
      dxy     :     0.012826
      f0      :     0.000457  f :     0.004046
      f+1     :     0.000695
      f-1     :     0.000547
      f+2     :     0.000432
      f-2     :     0.000713
      f+3     :     0.000465
      f-3     :     0.000735
  1 H s       :     0.582444  s :     0.582444
      pz      :     0.017443  p :     0.046535
      px      :     0.013655
      py      :     0.015437
  2 H s       :     0.571708  s :     0.571708
      pz      :     0.011111  p :     0.041810
      px      :     0.017957
      py      :     0.012742
  3 O s       :     3.802701  s :     3.802701
      pz      :     1.723402  p :     4.892436
      px      :     1.783306
      py      :     1.385729
      dz2     :     0.009599  d :     0.051063
      dxz     :     0.010860
      dyz     :     0.009949
      dx2y2   :     0.008011
      dxy     :     0.012643
      f0      :     0.000458  f :     0.004040
      f+1     :     0.000547
      f-1     :     0.000697
      f+2     :     0.000431
      f-2     :     0.000713
      f+3     :     0.000731
      f-3     :     0.000464
  4 H s       :     0.580627  s :     0.580627
      pz      :     0.017501  p :     0.046428
      px      :     0.015324
      py      :     0.013604
  5 H s       :     0.563806  s :     0.563806
      pz      :     0.010983  p :     0.041654
      px      :     0.012601
      py      :     0.018070
  6 O s       :     3.787385  s :     3.787385
      pz      :     1.566130  p :     4.908814
      px      :     1.571632
      py      :     1.771053
      dz2     :     0.016943  d :     0.051777
      dxz     :     0.006720
      dyz     :     0.007910
      dx2y2   :     0.008100
      dxy     :     0.012104
      f0      :     0.000613  f :     0.003960
      f+1     :     0.000749
      f-1     :     0.000528
      f+2     :     0.000415
      f-2     :     0.000424
      f+3     :     0.000425
      f-3     :     0.000806
  7 H s       :     0.548266  s :     0.548266
      pz      :     0.024978  p :     0.049341
      px      :     0.011651
      py      :     0.012712
  8 H s       :     0.569812  s :     0.569812
      pz      :     0.010799  p :     0.051097
      px      :     0.023942
      py      :     0.016356
  9 O s       :     3.794751  s :     3.794751
      pz      :     1.604068  p :     4.948431
      px      :     1.833189
      py      :     1.511174
      dz2     :     0.015656  d :     0.050432
      dxz     :     0.007676
      dyz     :     0.008043
      dx2y2   :     0.008875
      dxy     :     0.010182
      f0      :     0.000555  f :     0.003919
      f+1     :     0.000483
      f-1     :     0.000804
      f+2     :     0.000436
      f-2     :     0.000406
      f+3     :     0.000768
      f-3     :     0.000467
 10 H s       :     0.548491  s :     0.548491
      pz      :     0.025395  p :     0.049941
      px      :     0.013011
      py      :     0.011535
 11 H s       :     0.561862  s :     0.561862
      pz      :     0.009750  p :     0.054384
      px      :     0.015385
      py      :     0.029249
 12 O s       :     3.791556  s :     3.791556
      pz      :     1.583768  p :     4.925999
      px      :     1.825299
      py      :     1.516931
      dz2     :     0.016408  d :     0.051370
      dxz     :     0.007769
      dyz     :     0.008309
      dx2y2   :     0.008885
      dxy     :     0.010000
      f0      :     0.000542  f :     0.003913
      f+1     :     0.000483
      f-1     :     0.000819
      f+2     :     0.000434
      f-2     :     0.000408
      f+3     :     0.000763
      f-3     :     0.000465
 13 H s       :     0.560322  s :     0.560322
      pz      :     0.010078  p :     0.055186
      px      :     0.015248
      py      :     0.029861
 14 H s       :     0.564449  s :     0.564449
      pz      :     0.024419  p :     0.049877
      px      :     0.013711
      py      :     0.011747
 15 O s       :     3.797340  s :     3.797340
      pz      :     1.543517  p :     4.906615
      px      :     1.532892
      py      :     1.830206
      dz2     :     0.016874  d :     0.051853
      dxz     :     0.008357
      dyz     :     0.007710
      dx2y2   :     0.008936
      dxy     :     0.009976
      f0      :     0.000553  f :     0.003948
      f+1     :     0.000831
      f-1     :     0.000485
      f+2     :     0.000434
      f-2     :     0.000408
      f+3     :     0.000467
      f-3     :     0.000770
 16 H s       :     0.596463  s :     0.596463
      pz      :     0.018997  p :     0.045406
      px      :     0.012161
      py      :     0.014248
 17 H s       :     0.538606  s :     0.538606
      pz      :     0.009702  p :     0.054521
      px      :     0.029847
      py      :     0.014972
 18 O s       :     3.793318  s :     3.793318
      pz      :     1.593392  p :     4.949284
      px      :     1.518528
      py      :     1.837364
      dz2     :     0.015532  d :     0.050215
      dxz     :     0.008039
      dyz     :     0.007697
      dx2y2   :     0.008799
      dxy     :     0.010147
      f0      :     0.000562  f :     0.003928
      f+1     :     0.000803
      f-1     :     0.000485
      f+2     :     0.000436
      f-2     :     0.000406
      f+3     :     0.000468
      f-3     :     0.000768
 19 H s       :     0.554145  s :     0.554145
      pz      :     0.024689  p :     0.049952
      px      :     0.011822
      py      :     0.013441
 20 H s       :     0.557939  s :     0.557939
      pz      :     0.009466  p :     0.054435
      px      :     0.029822
      py      :     0.015147
 21 O s       :     3.803323  s :     3.803323
      pz      :     1.698676  p :     4.914150
      px      :     1.799218
      py      :     1.416257
      dz2     :     0.009234  d :     0.050189
      dxz     :     0.010775
      dyz     :     0.009734
      dx2y2   :     0.007773
      dxy     :     0.012673
      f0      :     0.000451  f :     0.004005
      f+1     :     0.000543
      f-1     :     0.000676
      f+2     :     0.000439
      f-2     :     0.000715
      f+3     :     0.000719
      f-3     :     0.000463
 22 H s       :     0.609492  s :     0.609492
      pz      :     0.017400  p :     0.047467
      px      :     0.015713
      py      :     0.014353
 23 H s       :     0.543319  s :     0.543319
      pz      :     0.010833  p :     0.058237
      px      :     0.014663
      py      :     0.032741
 24 O s       :     3.800655  s :     3.800655
      pz      :     1.545440  p :     4.894763
      px      :     1.805702
      py      :     1.543621
      dz2     :     0.016552  d :     0.051649
      dxz     :     0.008380
      dyz     :     0.006678
      dx2y2   :     0.007650
      dxy     :     0.012390
      f0      :     0.000630  f :     0.004017
      f+1     :     0.000534
      f-1     :     0.000740
      f+2     :     0.000416
      f-2     :     0.000421
      f+3     :     0.000842
      f-3     :     0.000435
 25 H s       :     0.564666  s :     0.564666
      pz      :     0.024385  p :     0.050297
      px      :     0.013750
      py      :     0.012161
 26 H s       :     0.592600  s :     0.592600
      pz      :     0.011314  p :     0.052212
      px      :     0.017386
      py      :     0.023513


                     *******************************
                     * LOEWDIN POPULATION ANALYSIS *
                     *******************************

----------------------
LOEWDIN ATOMIC CHARGES
----------------------
   0 O :   -0.293340
   1 H :    0.166140
   2 H :    0.194242
   3 O :   -0.295058
   4 H :    0.167199
   5 H :    0.197229
   6 O :   -0.294892
   7 H :    0.160152
   8 H :    0.152046
   9 O :   -0.313034
  10 H :    0.157433
  11 H :    0.147237
  12 O :   -0.328523
  13 H :    0.147795
  14 H :    0.151003
  15 O :   -0.320615
  16 H :    0.166091
  17 H :    0.154746
  18 O :   -0.313841
  19 H :    0.155477
  20 H :    0.148976
  21 O :   -0.347815
  22 H :    0.151520
  23 H :    0.151325
  24 O :   -0.356733
  25 H :    0.152582
  26 H :    0.142660

-------------------------------
LOEWDIN REDUCED ORBITAL CHARGES
-------------------------------
  0 O s       :     3.458154  s :     3.458154
      pz      :     1.674628  p :     4.770663
      px      :     1.358594
      py      :     1.737441
      dz2     :     0.011061  d :     0.059700
      dxz     :     0.012292
      dyz     :     0.011116
      dx2y2   :     0.009737
      dxy     :     0.015493
      f0      :     0.000473  f :     0.004823
      f+1     :     0.000854
      f-1     :     0.000659
      f+2     :     0.000409
      f-2     :     0.001008
      f+3     :     0.000475
      f-3     :     0.000945
  1 H s       :     0.666750  s :     0.666750
      pz      :     0.067811  p :     0.167109
      px      :     0.045393
      py      :     0.053905
  2 H s       :     0.653584  s :     0.653584
      pz      :     0.033953  p :     0.152175
      px      :     0.073812
      py      :     0.044410
  3 O s       :     3.457011  s :     3.457011
      pz      :     1.676548  p :     4.773967
[...]
                     *******************************

----------------------
LOEWDIN ATOMIC CHARGES
----------------------
   0 O :   -0.287685
   1 H :    0.167813
   2 H :    0.194993
   3 O :   -0.289023
   4 H :    0.168997
   5 H :    0.197858
   6 O :   -0.286645
   7 H :    0.156401
   8 H :    0.147920
   9 O :   -0.302815
  10 H :    0.152647
  11 H :    0.140016
  12 O :   -0.320363
  13 H :    0.140037
  14 H :    0.147317
  15 O :   -0.314238
  16 H :    0.167671
  17 H :    0.146875
  18 O :   -0.303843
  19 H :    0.151525
  20 H :    0.141073
  21 O :   -0.345042
  22 H :    0.153467
  23 H :    0.143352
  24 O :   -0.356234
  25 H :    0.148912
  26 H :    0.139015

-------------------------------
LOEWDIN REDUCED ORBITAL CHARGES
-------------------------------
  0 O s       :     3.459901  s :     3.459901
      pz      :     1.669500  p :     4.764255
      px      :     1.363668
      py      :     1.731087
      dz2     :     0.011014  d :     0.058687
      dxz     :     0.011931
      dyz     :     0.011111
      dx2y2   :     0.009552
      dxy     :     0.015078
      f0      :     0.000476  f :     0.004842
      f+1     :     0.000860
      f-1     :     0.000660
      f+2     :     0.000410
      f-2     :     0.001008
      f+3     :     0.000478
      f-3     :     0.000951
  1 H s       :     0.665331  s :     0.665331
      pz      :     0.067771  p :     0.166856
      px      :     0.044631
      py      :     0.054454
  2 H s       :     0.653020  s :     0.653020
      pz      :     0.034612  p :     0.151986
      px      :     0.072318
      py      :     0.045057
  3 O s       :     3.458598  s :     3.458598
      pz      :     1.671693  p :     4.767336
      px      :     1.729038
      py      :     1.366604
      dz2     :     0.010996  d :     0.058267
      dxz     :     0.011023
      dyz     :     0.011975
      dx2y2   :     0.009500
      dxy     :     0.014773
      f0      :     0.000477  f :     0.004823
      f+1     :     0.000656
      f-1     :     0.000857
      f+2     :     0.000409
      f-2     :     0.001007
      f+3     :     0.000939
      f-3     :     0.000477
  4 H s       :     0.664189  s :     0.664189
      pz      :     0.067918  p :     0.166813
      px      :     0.054150
      py      :     0.044745
  5 H s       :     0.649850  s :     0.649850
      pz      :     0.034546  p :     0.152292
      px      :     0.044916
      py      :     0.072829
  6 O s       :     3.442935  s :     3.442935
      pz      :     1.536829  p :     4.780726
      px      :     1.539846
      py      :     1.704051
      dz2     :     0.020251  d :     0.058131
      dxz     :     0.007138
      dyz     :     0.007343
      dx2y2   :     0.009245
      dxy     :     0.014153
      f0      :     0.000841  f :     0.004853
      f+1     :     0.000976
      f-1     :     0.000723
      f+2     :     0.000391
      f-2     :     0.000425
      f+3     :     0.000409
      f-3     :     0.001088
  7 H s       :     0.667546  s :     0.667546
      pz      :     0.095224  p :     0.176053
      px      :     0.038002
      py      :     0.042827
  8 H s       :     0.674438  s :     0.674438
      pz      :     0.032618  p :     0.177642
      px      :     0.085973
      py      :     0.059050
  9 O s       :     3.445809  s :     3.445809
      pz      :     1.552550  p :     4.795080
      px      :     1.761027
      py      :     1.481502
      dz2     :     0.019253  d :     0.057197
      dxz     :     0.006941
      dyz     :     0.008957
      dx2y2   :     0.010558
      dxy     :     0.011487
      f0      :     0.000758  f :     0.004729
      f+1     :     0.000584
      f-1     :     0.001138
      f+2     :     0.000412
      f-2     :     0.000420
      f+3     :     0.000964
      f-3     :     0.000453
 10 H s       :     0.669110  s :     0.669110
      pz      :     0.096357  p :     0.178243
      px      :     0.043636
      py      :     0.038251
 11 H s       :     0.668283  s :     0.668283
      pz      :     0.032052  p :     0.191701
      px      :     0.054021
      py      :     0.105628
 12 O s       :     3.452054  s :     3.452054
      pz      :     1.562270  p :     4.806531
      px      :     1.757258
      py      :     1.487003
      dz2     :     0.019070  d :     0.057045
      dxz     :     0.006920
      dyz     :     0.009199
      dx2y2   :     0.010558
      dxy     :     0.011298
      f0      :     0.000758  f :     0.004733
      f+1     :     0.000586
      f-1     :     0.001152
      f+2     :     0.000413
      f-2     :     0.000419
      f+3     :     0.000954
      f-3     :     0.000451
 13 H s       :     0.667320  s :     0.667320
      pz      :     0.031396  p :     0.192643
      px      :     0.053915
      py      :     0.107332
 14 H s       :     0.676275  s :     0.676275
      pz      :     0.092977  p :     0.176409
      px      :     0.044490
      py      :     0.038942
 15 O s       :     3.458250  s :     3.458250
      pz      :     1.540337  p :     4.793485
      px      :     1.492153
      py      :     1.760995
      dz2     :     0.019832  d :     0.057717
      dxz     :     0.009406
      dyz     :     0.006894
      dx2y2   :     0.010465
      dxy     :     0.011120
      f0      :     0.000780  f :     0.004786
      f+1     :     0.001186
      f-1     :     0.000588
      f+2     :     0.000415
      f-2     :     0.000421
      f+3     :     0.000452
      f-3     :     0.000944
 16 H s       :     0.669322  s :     0.669322
      pz      :     0.080352  p :     0.163006
      px      :     0.038175
      py      :     0.044480
 17 H s       :     0.661561  s :     0.661561
      pz      :     0.029962  p :     0.191564
      px      :     0.107744
      py      :     0.053857
 18 O s       :     3.445501  s :     3.445501
      pz      :     1.545007  p :     4.796492
      px      :     1.486525
      py      :     1.764960
      dz2     :     0.019171  d :     0.057109
      dxz     :     0.009093
      dyz     :     0.006972
      dx2y2   :     0.010474
      dxy     :     0.011399
      f0      :     0.000774  f :     0.004741
      f+1     :     0.001141
      f-1     :     0.000585
      f+2     :     0.000413
      f-2     :     0.000421
      f+3     :     0.000452
      f-3     :     0.000955
 19 H s       :     0.671723  s :     0.671723
      pz      :     0.093908  p :     0.176752
      px      :     0.038549
      py      :     0.044295
 20 H s       :     0.665221  s :     0.665221
      pz      :     0.031432  p :     0.193706
      px      :     0.108201
      py      :     0.054073
 21 O s       :     3.458349  s :     3.458349
      pz      :     1.659540  p :     4.824930
      px      :     1.770039
      py      :     1.395351
      dz2     :     0.010319  d :     0.056970
      dxz     :     0.011277
      dyz     :     0.012152
      dx2y2   :     0.008870
      dxy     :     0.014352
      f0      :     0.000469  f :     0.004792
      f+1     :     0.000646
      f-1     :     0.000852
      f+2     :     0.000412
      f-2     :     0.001031
      f+3     :     0.000906
      f-3     :     0.000477
 22 H s       :     0.678330  s :     0.678330
      pz      :     0.066945  p :     0.168203
      px      :     0.054817
      py      :     0.046441
 23 H s       :     0.656233  s :     0.656233
      pz      :     0.034656  p :     0.200415
      px      :     0.049156
      py      :     0.116603
 24 O s       :     3.457455  s :     3.457455
      pz      :     1.528349  p :     4.836595
      px      :     1.777522
      py      :     1.530724
      dz2     :     0.020089  d :     0.057355
      dxz     :     0.007694
      dyz     :     0.007155
      dx2y2   :     0.007712
      dxy     :     0.014704
      f0      :     0.000865  f :     0.004830
      f+1     :     0.000700
      f-1     :     0.000977
      f+2     :     0.000390
      f-2     :     0.000420
      f+3     :     0.001101
      f-3     :     0.000376
 25 H s       :     0.675806  s :     0.675806
      pz      :     0.093721  p :     0.175281
      px      :     0.043716
      py      :     0.037844
 26 H s       :     0.684576  s :     0.684576
      pz      :     0.032970  p :     0.176408
      px      :     0.059320
      py      :     0.084118


                      *****************************
                      * MAYER POPULATION ANALYSIS *
                      *****************************

  NA   - Mulliken gross atomic population
  ZA   - Total nuclear charge
  QA   - Mulliken gross atomic charge
  VA   - Mayer's total valence
  BVA  - Mayer's bonded valence
  FA   - Mayer's free valence

  ATOM       NA         ZA         QA         VA         BVA        FA
  0 O      8.7178     8.0000    -0.7178     2.1026     1.7165     0.3861
  1 H      0.6360     1.0000     0.3640     0.8878     0.8431     0.0446
  2 H      0.6212     1.0000     0.3788     0.8773     0.8310     0.0463
  3 O      8.7272     8.0000    -0.7272     2.0990     1.7123     0.3867
  4 H      0.6339     1.0000     0.3661     0.8859     0.8414     0.0445
  5 H      0.6135     1.0000     0.3865     0.8723     0.8267     0.0456
  6 O      8.7181     8.0000    -0.7181     2.0877     1.7030     0.3847
  7 H      0.6116     1.0000     0.3884     0.8866     0.8437     0.0429
  8 H      0.6366     1.0000     0.3634     0.9106     0.8658     0.0448
  9 O      8.7585     8.0000    -0.7585     2.0424     1.6512     0.3912
 10 H      0.6167     1.0000     0.3833     0.9025     0.8595     0.0430
 11 H      0.6413     1.0000     0.3587     0.9327     0.8862     0.0465
 12 O      8.7351     8.0000    -0.7351     2.0533     1.6643     0.3889
 13 H      0.6410     1.0000     0.3590     0.9385     0.8929     0.0457
 14 H      0.6280     1.0000     0.3720     0.8975     0.8531     0.0443
 15 O      8.7291     8.0000    -0.7291     2.0661     1.6788     0.3874
 16 H      0.6481     1.0000     0.3519     0.8962     0.8492     0.0470
 17 H      0.6174     1.0000     0.3826     0.9134     0.8695     0.0439
 18 O      8.7570     8.0000    -0.7570     2.0333     1.6421     0.3912
 19 H      0.6197     1.0000     0.3803     0.8962     0.8528     0.0434
 20 H      0.6394     1.0000     0.3606     0.9363     0.8904     0.0459
 21 O      8.7456     8.0000    -0.7456     2.0221     1.6326     0.3895
 22 H      0.6636     1.0000     0.3364     0.9079     0.8606     0.0473
 23 H      0.6271     1.0000     0.3729     0.9154     0.8703     0.0450
 24 O      8.7283     8.0000    -0.7283     2.0607     1.6751     0.3856
 25 H      0.6287     1.0000     0.3713     0.9002     0.8560     0.0442
 26 H      0.6596     1.0000     0.3404     0.9265     0.8798     0.0467

  Mayer bond orders larger than 0.100000
B(  0-O ,  1-H ) :   0.8324 B(  0-O ,  2-H ) :   0.8143 B(  3-O ,  4-H ) :   0.8309 
B(  3-O ,  5-H ) :   0.8078 B(  6-O ,  7-H ) :   0.7993 B(  6-O ,  8-H ) :   0.8129 
B(  6-O , 23-H ) :   0.1129 B(  9-O , 10-H ) :   0.7903 B(  9-O , 11-H ) :   0.7666 
B(  9-O , 17-H ) :   0.1024 B( 12-O , 13-H ) :   0.7659 B( 12-O , 14-H ) :   0.8159 
B( 12-O , 20-H ) :   0.1229 B( 13-H , 15-O ) :   0.1189 B( 15-O , 16-H ) :   0.8396 
B( 15-O , 17-H ) :   0.7576 B( 18-O , 19-H ) :   0.8049 B( 18-O , 20-H ) :   0.7506 
B( 21-O , 22-H ) :   0.8510 B( 21-O , 23-H ) :   0.7487 B( 24-O , 25-H ) :   0.8175 
B( 24-O , 26-H ) :   0.8376 


----------------------------------
MP2 DERIVATIVE INTEGRAL GENERATION
----------------------------------


Input Wavefunction Amplitudes       ... 12h2o.su.etal.mol1,2,3,4,5,6,7,10,11-orca.engrad-mp2.def2tzvp.frozencore.mp2tsaa.tmp
Input Correlated Electron Density   ... 12h2o.su.etal.mol1,2,3,4,5,6,7,10,11-orca.engrad-mp2.def2tzvp.frozencore.pmp2re
Input Energy Weighted Density       ... 12h2o.su.etal.mol1,2,3,4,5,6,7,10,11-orca.engrad-mp2.def2tzvp.frozencore.wmp2.tmp
Input SCF Electron Density          ... 12h2o.su.etal.mol1,2,3,4,5,6,7,10,11-orca.engrad-mp2.def2tzvp.frozencore.scfp

One-Electron Terms    ...
                        ... One-Electron Terms done
Prescreening matrices              ... done

Batch handling in the gradient evaluation:
Memory available                      ... 8000.0 MB
Memory per occupied orbital in Q2     ...   41.1 MB
Memory per occupied orbital in Q3     ...    0.1 MB
Total memory requirement per |i>      ...   41.3 MB
Max. Number of orbitals possible      ...    193
Number of orbitals treated per batch  ...     36
Number of batches to be done          ...      1
Batch   0: i=    9 ...    44

---------------------------------------
MP2 TOTAL ENERGY:     -686.929740172 Eh
---------------------------------------

The final MP2 gradient
  0:  -0.02432100   0.01060226   0.00007149
  1:  -0.00009906   0.00220048  -0.00286407
  2:   0.02479640  -0.00854730   0.00125387
  3:  -0.00715758  -0.02493147   0.00191506
  4:  -0.00239957  -0.00008544   0.00286266
  5:   0.00747096   0.02348288  -0.00179383
  6:  -0.00234275   0.00327357   0.00009324
  7:   0.00080099   0.00045934  -0.00129561
  8:   0.00432660   0.00002879  -0.00061272
  9:  -0.00040294   0.00228030  -0.00010247
 10:  -0.00077394   0.00044190   0.00347912
 11:   0.00023672  -0.00292642   0.00082262
 12:   0.00336461   0.00089428   0.00240366
 13:  -0.00146213  -0.00005146  -0.00009232
 14:   0.00009852  -0.00154996  -0.00431043
 15:  -0.00270430   0.00359750  -0.00996913
 16:   0.00190046  -0.00128594   0.00784595
 17:   0.00150548  -0.00305570   0.00021656
 18:   0.00201309   0.00085932  -0.00086408
 19:  -0.00007827  -0.00050605   0.00234176
 20:  -0.00331273   0.00164492  -0.00109829
 21:   0.00213174   0.00379422  -0.00184094
 22:   0.00035762   0.00089279   0.00040723
 23:  -0.00234618  -0.00847835   0.00179645
 24:   0.00268148   0.00513840   0.00041042
 25:  -0.00135649   0.00114313  -0.00280907
 26:  -0.00292773  -0.00931602   0.00173288

-----------------------------------
NORM OF THE MP2 GRADIENT:  0.057318
-----------------------------------

-------------------------   --------------------
FINAL SINGLE POINT ENERGY      -686.929740171840
-------------------------   --------------------


                            ***************************************
                            *     ORCA property calculations      *
                            ***************************************

                                    ---------------------
                                    Active property flags
                                    ---------------------
   (+) Dipole Moment


------------------------------------------------------------------------------
                       ORCA ELECTRIC PROPERTIES CALCULATION
------------------------------------------------------------------------------

Dipole Moment Calculation                       ... on
Quadrupole Moment Calculation                   ... off
Polarizability Calculation                      ... off
GBWName                                         ... 12h2o.su.etal.mol1,2,3,4,5,6,7,10,11-orca.engrad-mp2.def2tzvp.frozencore.gbw
Electron density file                           ... 12h2o.su.etal.mol1,2,3,4,5,6,7,10,11-orca.engrad-mp2.def2tzvp.frozencore.scfp
The origin for moment calculation is the CENTER OF MASS  = (-0.897578, -0.005684 -0.590198)

-------------
DIPOLE MOMENT
-------------
                                X             Y             Z
Electronic contribution:     -0.01970      -0.23397      -0.09170
Nuclear contribution   :      0.19829      -1.69977      -0.63259
                        -----------------------------------------
Total Dipole Moment    :      0.17860      -1.93375      -0.72429
                        -----------------------------------------
Magnitude (a.u.)       :      2.07265
Magnitude (Debye)      :      5.26825



--------------------
Rotational spectrum 
--------------------
 
Rotational constants in cm-1:     0.029692     0.017200     0.015905 
Rotational constants in MHz :   890.140233   515.634148   476.829615 

 Dipole components along the rotational axes: 
x,y,z [a.u.] :    -1.116655    -1.706032     0.372026 
x,y,z [Debye]:    -2.838312    -4.336389     0.945615 

 

                         *** MP2 UNRELAXED DENSITY ***

------------------------------------------------------------------------------
                       ORCA ELECTRIC PROPERTIES CALCULATION
------------------------------------------------------------------------------

Dipole Moment Calculation                       ... on
Quadrupole Moment Calculation                   ... off
Polarizability Calculation                      ... off
GBWName                                         ... 12h2o.su.etal.mol1,2,3,4,5,6,7,10,11-orca.engrad-mp2.def2tzvp.frozencore.gbw
Electron density file                           ... 12h2o.su.etal.mol1,2,3,4,5,6,7,10,11-orca.engrad-mp2.def2tzvp.frozencore.pmp2ur
The origin for moment calculation is the CENTER OF MASS  = (-0.897578, -0.005684 -0.590198)

-------------
DIPOLE MOMENT
-------------
                                X             Y             Z
Electronic contribution:     -0.02155      -0.22141      -0.08735
Nuclear contribution   :      0.19829      -1.69977      -0.63259
                        -----------------------------------------
Total Dipole Moment    :      0.17675      -1.92118      -0.71994
                        -----------------------------------------
Magnitude (a.u.)       :      2.05925
Magnitude (Debye)      :      5.23419



--------------------
Rotational spectrum 
--------------------
 
Rotational constants in cm-1:     0.029692     0.017200     0.015905 
Rotational constants in MHz :   890.140233   515.634148   476.829615 

 Dipole components along the rotational axes: 
x,y,z [a.u.] :    -1.109645    -1.694717     0.370310 
x,y,z [Debye]:    -2.820493    -4.307627     0.941252 

 

                           *** MP2 RELAXED DENSITY ***

------------------------------------------------------------------------------
                       ORCA ELECTRIC PROPERTIES CALCULATION
------------------------------------------------------------------------------

Dipole Moment Calculation                       ... on
Quadrupole Moment Calculation                   ... off
Polarizability Calculation                      ... off
GBWName                                         ... 12h2o.su.etal.mol1,2,3,4,5,6,7,10,11-orca.engrad-mp2.def2tzvp.frozencore.gbw
Electron density file                           ... 12h2o.su.etal.mol1,2,3,4,5,6,7,10,11-orca.engrad-mp2.def2tzvp.frozencore.pmp2re
The origin for moment calculation is the CENTER OF MASS  = (-0.897578, -0.005684 -0.590198)

-------------
DIPOLE MOMENT
-------------
                                X             Y             Z
Electronic contribution:     -0.00879      -0.22079      -0.08800
Nuclear contribution   :      0.19829      -1.69977      -0.63259
                        -----------------------------------------
Total Dipole Moment    :      0.18950      -1.92056      -0.72059
                        -----------------------------------------
Magnitude (a.u.)       :      2.06003
Magnitude (Debye)      :      5.23617



--------------------
Rotational spectrum 
--------------------
 
Rotational constants in cm-1:     0.029692     0.017200     0.015905 
Rotational constants in MHz :   890.140233   515.634148   476.829615 

 Dipole components along the rotational axes: 
x,y,z [a.u.] :    -1.112026    -1.696764     0.357911 
x,y,z [Debye]:    -2.826544    -4.312831     0.909737 

 

Timings for individual modules:

Sum of individual times         ...      310.408 sec (=   5.173 min)
GTO integral calculation        ...        1.278 sec (=   0.021 min)   0.4 %
SCF iterations                  ...       43.393 sec (=   0.723 min)  14.0 %
MP2 module                      ...      265.736 sec (=   4.429 min)  85.6 %
                             ****ORCA TERMINATED NORMALLY****
TOTAL RUN TIME: 0 days 0 hours 5 minutes 11 seconds 420 msec
