45
Energy:   -377.24033882
O   -0.98986566   0.11574501   1.63695074
H   -1.44256769   0.84280302   1.20954066
H   -1.09136603  -0.61905233   1.03196942
O    1.40773681  -2.58014130   0.41434912
H    0.51534936  -2.43701366   0.09908579
H    1.37290532  -2.35465655   1.34395939
O   -1.92604769   0.11042865  -2.08967274
H   -2.09044554   0.80500241  -1.45188555
H   -1.06106385   0.31212249  -2.44654024
O    0.52122260   2.97141098  -1.08126828
H    1.00564712   2.58133933  -0.35366341
H    0.60467530   2.33664569  -1.79284437
O    2.48025879  -0.46476841  -0.94624414
H    2.29913707   0.19345554  -0.27529854
H    2.23295496  -1.29560087  -0.54030069
O    1.47256449   1.31943072   0.96556093
H    0.67771702   0.88511982   1.30909378
C    2.44093393   1.32724559   2.00225439
H    3.32956322   1.81989724   1.59837626
H    2.72857872   0.31379328   2.32311606
H    2.11072135   1.89165324   2.88835878
O   -1.19087876  -1.85711757  -0.30608350
H   -1.48800430  -1.28089326  -1.02587877
C   -1.91731654  -3.07206057  -0.39954709
H   -1.57031508  -3.70928852   0.41838672
H   -1.73656004  -3.60379982  -1.34683679
H   -3.00297084  -2.92839790  -0.28338719
O   -1.90504025   2.10672883  -0.10109644
H   -1.11411787   2.55978024  -0.42913526
C   -2.96808368   3.04611344  -0.09571139
H   -3.85097069   2.51930321   0.27639975
H   -3.19936601   3.43233509  -1.10075799
H   -2.77567544   3.90222330   0.56974508
O    0.71470485   0.69816334  -2.72340954
H    1.37388916   0.20803128  -2.20992159
C    1.17093440   0.75650777  -4.06541711
H    0.41682918   1.31180471  -4.62973601
H    1.27466568  -0.23980770  -4.52298965
H    2.13106794   1.28651391  -4.16548913
O    0.79982773  -1.61021370   2.96629002
H    0.11071982  -0.96205724   2.75785115
C    0.27065556  -2.50597654   3.93071707
H    1.05970444  -3.22916249   4.15407583
H   -0.60576308  -3.06048090   3.56032188
H   -0.00774576  -2.00342543   4.87024483
