45
Energy:   -376.96945163
O   -1.12147223   0.36599257   1.69799281
H   -0.81757027   0.96899918   1.01956930
H   -1.36785086  -0.42681150   1.22155695
O    1.23855462  -2.28221521   0.50209812
H    0.30254381  -2.21040661   0.31512452
H    1.36448712  -1.76624123   1.29842953
O   -2.38391171  -0.56395803  -2.21969542
H   -2.72989389   0.27790008  -1.92337952
H   -1.48394911  -0.37375746  -2.48450274
O   -0.06928683   1.88192292  -0.34580519
H    0.82430778   1.90103215  -0.00323350
H   -0.01235977   1.34295820  -1.13479707
O    2.57458905  -0.70253762  -1.28562835
H    2.68479587   0.04031997  -0.69212274
H    2.19503614  -1.39136989  -0.74002636
O    2.46892204   1.28690126   0.70961831
H    2.25107305   0.74252394   1.48073337
C    3.73292033   1.88512303   0.94830810
H    3.96287693   2.49461484   0.07017092
H    4.53815212   1.14373615   1.06965306
H    3.73163144   2.54426837   1.83052298
O   -1.50174084  -1.84391688   0.05913865
H   -1.87200778  -1.47859092  -0.75808997
C   -2.14372032  -3.08475938   0.30552457
H   -1.71488439  -3.48235484   1.22937672
H   -1.96977170  -3.82001539  -0.49567317
H   -3.23028212  -2.97988609   0.45099751
O   -2.82129925   1.94766774  -1.11636311
H   -1.94543962   2.20850452  -0.79502628
C   -3.73645312   2.09991825  -0.04312178
H   -4.71772126   1.80190662  -0.42231447
H   -3.80853002   3.14057660   0.30988309
H   -3.49339299   1.45713101   0.81741508
O    0.27503330   0.17688250  -2.52158623
H    1.10937693  -0.22437741  -2.23648193
C    0.47399851   0.70491818  -3.82317177
H   -0.47533534   1.15298822  -4.12892277
H    0.73916415  -0.06921895  -4.56017667
H    1.24625006   1.48956447  -3.85028423
O    1.33211931  -0.44033403   2.63476544
H    0.42633782  -0.12992709   2.48769162
C    1.38169496  -1.02750990   3.92523067
H    2.40869650  -1.37169529   4.07452722
H    0.71271775  -1.89682913   4.02285696
H    1.14134213  -0.31227353   4.72738077
