45
Energy:   -372.76406827
O   -2.07444499  -2.21234681   0.80180522
H   -1.79684984  -1.79735275   1.61847695
H   -1.26574453  -2.55110898   0.41777969
O   -0.89568864  -0.83843869   2.85395139
H   -0.88693443   0.06082377   2.52610658
H    0.00142245  -1.14807828   2.72926436
O   -1.92153403   0.13243783  -0.58430335
H   -2.16474374  -0.68941653  -0.15811523
H   -1.59444474   0.68376689   0.12652765
O   -0.60817358   1.52721493   1.38854777
H    0.26739112   1.25056969   1.11820409
H   -0.73055030   2.37930172   0.96997415
O    0.47389145  -0.28807974  -1.73620561
H    1.01746378   0.00602105  -1.00527080
H   -0.42489960  -0.14521454  -1.43956435
O    1.56147343  -1.99350032   2.01575838
H    1.24425405  -2.44226967   1.21801080
C    1.78097829  -2.98336267   3.00799017
H    2.13789874  -2.46072350   3.89958497
H    2.54660910  -3.71814473   2.71357191
H    0.86198748  -3.52765007   3.27628934
O    0.39825027  -2.76071598  -0.44660257
H    0.47275649  -2.00303930  -1.04560019
C    0.15068239  -3.91203894  -1.23761418
H    0.06952016  -4.75600429  -0.54723720
H    0.96780583  -4.12630139  -1.94413965
H   -0.79051591  -3.84361597  -1.80527727
O   -0.77379880   3.65191692  -0.34973921
H   -0.29334212   3.37467012  -1.14391732
C   -2.13647697   3.81862875  -0.70729921
H   -2.66303801   4.13091609   0.19862312
H   -2.59897855   2.88603775  -1.06666483
H   -2.28314017   4.59665659  -1.47276634
O    0.51533601   2.39521710  -2.52897542
H    0.55695364   1.43538936  -2.40479032
C   -0.00718824   2.63927794  -3.82509907
H   -0.04729238   3.72495108  -3.94834962
H   -1.02660951   2.24316714  -3.95414881
H    0.62909697   2.22823247  -4.62444886
O    1.79923457   0.43275836   0.57213560
H    2.03484046  -0.28767072   1.17537276
C    2.84627798   1.38904141   0.61404730
H    2.56471010   2.19340207  -0.07094078
H    3.81145433   0.97777280   0.27927860
H    2.98334667   1.82590721   1.61561496
