45
Energy:   -378.06543410
O   -1.74113215  -0.05423387  -0.02692277
H   -1.80240191   0.81622470  -0.42034333
H   -1.30712326  -0.58829118  -0.69224293
O    2.34882442   0.30882079  -0.23662334
H    1.88217175   0.61141906  -1.01566212
H    1.71339674   0.39829330   0.47362886
O    1.71370388  -2.35248807  -0.23290370
H    1.39291744  -2.44517407   0.66416777
H    2.12894959  -1.49024639  -0.25140036
O    0.36816401   0.36998387   1.65306025
H    0.52096580  -0.47445487   2.07709643
H   -0.41043230   0.23045604   1.11403184
O   -0.31643021  -1.47413687  -1.82069212
H    0.38479857  -1.90625499  -1.33306113
H    0.09681581  -0.69741760  -2.19774218
O    0.27383334   3.15368787   1.17799363
H    0.35772173   2.28239474   1.59300482
C    1.58157509   3.67532953   1.00411066
H    1.46859261   4.65677430   0.53561699
H    2.20393790   3.05140545   0.34368609
H    2.11529126   3.81165365   1.95770392
O   -2.17521836  -2.46010527   1.43614106
H   -2.28526126  -1.61135876   0.98233142
C   -2.36197474  -3.48846985   0.47691109
H   -2.23458020  -4.43743478   1.00485179
H   -1.62233418  -3.44923687  -0.33805513
H   -3.36954384  -3.47761702   0.03254182
O   -1.36207673   2.56848903  -1.00007082
H   -0.85965963   2.94898404  -0.26439163
C   -2.56237560   3.31304034  -1.13220616
H   -3.11606315   2.87120338  -1.96508994
H   -2.38123807   4.37360424  -1.36709070
H   -3.19702476   3.25959163  -0.23379589
O    0.66443725   1.10433516  -2.32423572
H   -0.04240388   1.70352736  -2.04180414
C    1.20895717   1.61868299  -3.52900878
H    2.00350742   0.93185201  -3.83304548
H    1.65218208   2.61883528  -3.40242118
H    0.46926621   1.66695525  -4.34344380
O    0.48267768  -2.35429478   2.29354803
H   -0.45734815  -2.52725122   2.13587496
C    0.94196235  -3.30422011   3.24182713
H    2.00223846  -3.09505495   3.40780817
H    0.85068373  -4.34143755   2.88318311
H    0.42263574  -3.22422994   4.20964880
