45
Energy:   -371.21244941
O   -2.52844438  -0.52666507   2.02950690
H   -2.62422527   0.14162193   1.35094198
H   -2.17651235  -1.28811196   1.56844907
O    0.97541541  -0.61091532   1.06290738
H    0.27156697  -1.21129293   0.81719219
H    0.75793256  -0.33813756   1.95426889
O   -2.26299610  -0.89826374  -1.95089800
H   -2.47569498  -0.13171347  -1.41855252
H   -1.40824191  -0.69642220  -2.33153839
O    0.40335258   1.53324348  -0.53381158
H    0.61647730   0.87781922   0.13043893
H    0.32626674   1.03441032  -1.34711048
O    2.56753599  -1.20610959  -1.14225476
H    3.00260727  -0.36273745  -1.26742773
H    2.16365629  -1.14169114  -0.27682811
O    3.12169185   1.52713015  -1.25567387
H    2.22913232   1.78876919  -0.98492347
C    4.02075099   1.95469668  -0.24502393
H    5.02118554   1.65202640  -0.56597038
H    3.81853386   1.48519157   0.73039932
H    4.02132749   3.04778145  -0.11107364
O   -1.13272427  -2.19434470   0.20899351
H   -1.59779723  -1.89061961  -0.58465722
C   -0.54825123  -3.45206303  -0.08945188
H   -0.02854892  -3.77953796   0.81506727
H    0.18924842  -3.39538696  -0.90533142
H   -1.29606163  -4.21750128  -0.34956957
O   -2.32872072   1.25608187  -0.12772155
H   -1.40593500   1.53987828  -0.20740459
C   -3.13053634   2.42210788  -0.02767749
H   -4.16658873   2.08424433   0.06136676
H   -3.05689335   3.06647714  -0.91770125
H   -2.89141822   3.02769754   0.86050100
O    0.38310896  -0.31802868  -2.60497600
H    1.14667755  -0.78267648  -2.23149413
C    0.76103860   0.17536352  -3.88022778
H   -0.11043229   0.69582351  -4.28660825
H    1.03725834  -0.62719257  -4.58192836
H    1.59419093   0.89366345  -3.82846160
O   -0.22296550   0.16559428   3.41250730
H   -1.11170026  -0.01762348   3.07338333
C   -0.28169906   0.10510166   4.82863751
H    0.72743632   0.31379945   5.19411833
H   -0.58069691  -0.88767225   5.19982154
H   -0.96261838   0.85634159   5.25848025
