45
Energy:   -370.60523077
O   -1.77467789  -0.88082224   1.56950549
H   -2.11385226  -0.44457281   0.78791798
H   -1.38568196  -1.69176931   1.24197097
O    0.53473628   0.34767397   2.35501740
H    1.14357137  -0.27554927   1.95860285
H   -0.33190008  -0.01938795   2.18055015
O   -2.37519252   0.24389390  -0.83518312
H   -2.17654719   1.13560528  -0.54948626
H   -1.58415787  -0.04393847  -1.29086784
O    0.78254157   2.91599393   1.62439768
H    1.20727233   3.37790722   2.34721975
H    0.71303419   2.01028769   1.92622011
O    2.57449629  -0.40385239  -1.40309739
H    2.53002242  -0.80630615  -0.53575381
H    2.49077609   0.53502926  -1.23659206
O    1.94341325   2.21091250  -0.84296798
H    1.59049743   2.53700674  -0.00181624
C    1.10246302   2.69346173  -1.87857541
H    1.51432180   2.31691365  -2.81882489
H    1.08118291   3.79325187  -1.93135913
H    0.06681324   2.32974800  -1.78958558
O   -0.45684381  -2.82736734  -0.00872826
H   -0.41753912  -2.25477607  -0.78912409
C   -1.47365729  -3.79094753  -0.23264196
H   -1.50440750  -4.42747583   0.65582377
H   -1.26795328  -4.43147138  -1.10453209
H   -2.46863870  -3.33700674  -0.36197516
O   -1.70019831   2.66543603   0.32012037
H   -0.86415629   2.86898945   0.76511815
C   -2.73480431   2.75312845   1.28678176
H   -3.66927008   2.52098802   0.76873760
H   -2.82656313   3.76090963   1.72121789
H   -2.61137964   2.03042137   2.10851052
O   -0.08020444  -0.84630730  -1.99957907
H    0.86192784  -0.65677923  -1.87755796
C   -0.33138899  -0.89942527  -3.39479180
H   -1.39688831  -1.11373578  -3.51423806
H    0.23594083  -1.69739727  -3.89892959
H   -0.11593675   0.05390517  -3.90225483
O    1.92809092  -1.67989972   1.00944523
H    1.18793753  -2.25540252   0.76573892
C    2.87034526  -2.46781170   1.71929399
H    3.69727560  -1.80413355   1.98613237
H    3.27667937  -3.29305135   1.11377815
H    2.45746692  -2.88959176   2.64903072
