45
Energy:   -370.96528437
O   -1.11109045   1.42509681  -1.62762018
H   -0.66446973   1.90299859  -0.92878423
H   -1.90352786   1.08158330  -1.21497837
O    1.03453872   1.20822155  -3.43289175
H    0.18998695   1.52763898  -3.11518644
H    1.02328150   0.27016423  -3.24275077
O    0.25687188  -0.96400955  -1.72393167
H   -0.23426665  -0.14391010  -1.67441731
H    1.00969671  -0.82800275  -1.14861544
O    0.92848575   0.37319403   2.12242459
H    0.34076691  -0.36049207   2.30276628
H    1.52810216   0.04167082   1.45400529
O    2.55261766   2.19432994  -1.36913405
H    1.83889253   2.49727089  -0.80783637
H    2.12625525   1.95766310  -2.19280616
O   -3.00581813   0.06961631  -0.14761359
H   -2.71084201  -0.85131250  -0.09014641
C   -2.98078361   0.61217713   1.16293393
H   -3.31579682   1.64965246   1.07989007
H   -1.97143690   0.61358690   1.60338207
H   -3.66036495   0.08820433   1.85315059
O    2.43701595  -0.26267549  -0.14051631
H    2.65495417   0.58121570  -0.56333289
C    3.64479530  -0.99016819   0.01619095
H    3.38108429  -1.93772076   0.49377427
H    4.37189726  -0.47319748   0.66182349
H    4.13269447  -1.21640420  -0.94482362
O    0.38844747   2.49456602   0.42760851
H    0.52969065   1.84227089   1.12973720
C    0.34642107   3.77669600   1.03333971
H    0.18674236   4.49931721   0.22847543
H    1.28681581   4.03676799   1.54402321
H   -0.48018859   3.87980681   1.75366043
O   -1.61972212  -2.43578099  -0.30598587
H   -0.92892486  -2.06315803  -0.87376624
C   -2.40448920  -3.31061932  -1.10055009
H   -3.17756552  -3.72147690  -0.44554303
H   -1.82204737  -4.15080023  -1.50998248
H   -2.90351330  -2.79423157  -1.93547282
O   -0.75961912  -1.80291523   2.30369834
H   -1.10248747  -2.14939504   1.46655062
C   -0.72230450  -2.87615355   3.23068318
H   -0.33380287  -2.46843430   4.16786870
H   -0.05496221  -3.69158274   2.91051629
H   -1.71870863  -3.30062909   3.43012404
