37
Energy:  -1653.48993825
O   -1.62168872   0.32912256  -1.25680859
H   -2.32536638  -0.28169904  -1.03779587
H   -1.91638791   0.75631446  -2.06110413
O   -1.14675591   0.77160148   1.56922604
H   -1.89631643   0.34236772   1.98171756
H   -1.20361082   1.68271322   1.85710582
O   -3.41291569  -0.55409313   2.48077453
H   -4.21261749  -0.05238410   2.63887870
H   -3.35705737  -1.15664152   3.22242616
O    2.80431834  -2.42682237  -2.08700757
H    3.72645120  -2.32888386  -2.32430673
H    2.48279129  -3.12554348  -2.65678036
O    2.26996289  -2.65101562   0.65058408
H    2.71522763  -3.33262358   1.15395446
H    2.60459124  -2.75336291  -0.24035966
O    2.09637243   2.36067224  -2.57316890
H    3.00847584   2.64236019  -2.50280473
H    1.80033595   2.71335908  -3.41233888
O   -3.14648900  -1.64210386  -0.08349051
H   -3.84513056  -2.20148767  -0.42293354
H   -3.44885796  -1.38177934   0.78658765
O    1.27405610  -0.14809964  -1.65158702
H    1.77812588  -0.92127690  -1.90524512
H    1.66304037   0.56754678  -2.15435265
O   -0.36062399  -1.76630198   0.23331401
H    0.25625852  -2.46749031   0.44313001
H   -1.20996849  -2.20369794   0.17389563
O    0.45566705   2.23181031  -0.29480605
H    0.14802782   2.96751444   0.23465537
H    0.99576285   2.63469086  -0.97467048
O   -0.89019032   3.54714785   1.79277801
H   -0.43874548   3.95564047   2.53140051
H   -1.62548100   4.13147935   1.60801830
O    1.68493197  -0.01936302   1.21589142
H    2.16209596   0.44713113   1.90213451
H    2.08656863  -0.88790377   1.19229464
Ca   0.04682705   0.22935302  -0.03029641
