37
Energy:  -1649.23778307
O   -2.68915078  -1.93268610   0.64154695
H   -2.27293682  -2.79445102   0.66049440
H   -3.59845990  -2.09984847   0.88942900
O    0.28621280   4.17009841   0.70558234
H   -0.43185236   4.75240430   0.95364307
H    1.00869925   4.75914773   0.48817472
O   -0.20864641   1.94418150  -0.87636091
H   -0.90457972   2.15630205  -1.49838467
H   -0.04638437   2.76369351  -0.40913191
O   -2.34801414   1.75570315  -2.66389296
H   -2.24845586   1.90041542  -3.60483842
H   -3.20596315   2.12451579  -2.45381539
O    0.77156200  -1.99666751  -0.09689833
H    0.24813358  -2.78250451   0.06031091
H    1.64745627  -2.22556903   0.21397974
O    0.87917942   2.10145439   2.48783853
H    1.12701309   2.33029465   3.38363005
H    0.69497906   2.94158507   2.06774030
O   -1.46220341  -0.59024914  -1.41520524
H   -2.10931495  -1.09470145  -0.92224847
H   -1.98272020  -0.00925115  -1.96994434
O   -0.75781602   0.07066161   1.31023827
H   -0.58018404   0.63871454   2.05990126
H   -1.52147511  -0.44275173   1.57379733
O    1.31169789  -0.12230475  -2.26787618
H    1.93381953   0.51428496  -2.61994159
H    1.27560523  -0.81353752  -2.92903155
O    3.39556111  -1.85338222   0.85272550
H    4.15289219  -2.07799355   0.31214133
H    3.62541908  -2.16363115   1.72859237
O   -0.94781553  -4.10840926   0.43828701
H   -0.83067193  -4.63469030   1.22919629
H   -1.14832140  -4.74612366  -0.24680393
O    1.98229978   0.54175420   0.51598153
H    1.90285928   1.11395206   1.27920540
H    2.69512720  -0.05717686   0.73822129
Ca   0.27096092  -0.02526406  -0.46848012
