37
Energy:  -1650.95211363
O   -1.96368529   1.58628302  -0.08792988
H   -2.92025443   1.61446620  -0.06760659
H   -1.70691756   2.42569900  -0.46961429
O   -2.25919898  -1.32190292  -0.14038614
H   -2.16547298  -1.85834468  -0.92758212
H   -2.99670442  -1.71157151   0.32916253
O   -1.07927050   0.00502500   2.23670511
H   -1.70235862   0.39328267   2.85091111
H   -0.39038239  -0.35982043   2.79218044
O   -1.19008552   3.92951436  -1.34695927
H   -1.04906154   4.72784296  -0.83802360
H   -1.71984168   4.21088488  -2.09289552
O    1.30081726  -1.03644266   3.12158991
H    1.94392316  -0.32772165   3.10258532
H    1.54222982  -1.55912640   3.88628170
O   -1.30538198  -2.59147546  -2.37291705
H   -1.73014008  -3.01298823  -3.12000433
H   -0.63852079  -3.21772541  -2.09124526
O    0.90620152   1.26147658   0.49066865
H    1.58987282   1.35259363   1.15438779
H    1.21951767   1.78126011  -0.24952721
O    0.76175278  -3.93870560  -1.04827599
H    0.53624487  -4.79013589  -0.67351674
H    1.56006280  -4.10148955  -1.55070445
O    2.79872289   1.24438448   2.52609285
H    2.80901459   1.94148723   3.18196912
H    3.72056111   1.10565098   2.30883916
O    0.55130739  -1.64942452   0.51265843
H    1.02117005  -1.76141320   1.33904784
H    0.70982454  -2.46321325   0.03427358
O   -0.25563177  -0.03992434  -1.80536095
H    0.22314685   0.62139510  -2.30502031
H   -0.44673419  -0.72938044  -2.44125560
O    1.08785698   2.43311502  -1.98750743
H    1.77388436   2.80190353  -2.54391854
H    0.42103337   3.11836279  -1.94263413
Ca  -0.68179467  -0.02182041   0.20508537
