37
Energy:  -1646.95391779
O   -2.05491352   0.98593745  -0.55039316
H   -3.01082527   0.98535381  -0.60003417
H   -1.79580778   1.82904518  -0.92223376
O   -1.49692446  -1.93104429  -0.40082561
H   -1.67819286  -2.13205577  -1.31895850
H   -1.26482375  -2.77428133  -0.01183666
O   -1.35803264  -0.20937451   2.03626850
H   -0.74110121  -0.22325123   2.76800266
H   -2.22075617  -0.18447969   2.45017696
O   -0.48802711   3.13738033  -1.33495136
H   -0.70495798   4.06674278  -1.40883163
H    0.09632818   2.96786225  -2.07388597
O    1.00544045  -0.28944824   3.47522334
H    1.45754775   0.55415621   3.46248067
H    1.21256627  -0.65979428   4.33322948
O   -0.03426120  -4.00343442   0.76437402
H    0.39877456  -4.67537220   0.23786523
H   -0.34214254  -4.46920201   1.54187095
O    0.55262834   1.50238684   0.61753246
H    1.11630643   1.79636986   1.33312512
H    0.38294201   2.29303336   0.10536407
O   -1.26722935  -2.02032051  -3.17866068
H   -1.97962229  -1.77149865  -3.76757140
H   -0.85872074  -2.77549224  -3.60182520
O    2.09011578   2.18301213   2.82395489
H    1.84060247   2.92785525   3.37093174
H    3.04435036   2.23455806   2.76908024
O    0.97855762  -1.40038209   0.92981508
H    1.32041012  -1.20205666   1.80161537
H    0.93200454  -2.35604400   0.90197682
O    0.28193139  -0.17401372  -1.76838545
H    0.74531926   0.50260905  -2.26203023
H   -0.06672283  -0.76296088  -2.43757401
O    1.30328381   2.00603594  -3.16016054
H    2.22613011   2.25353302  -3.10243926
H    1.09069914   2.08738308  -4.08990365
Ca  -0.50389394  -0.20562763   0.14554503
