37
Energy:  -1649.70540129
O   -1.51523444   2.55664044  -0.18843984
H   -1.71181579   3.49338378  -0.19841603
H   -2.37053343   2.13126998  -0.24972172
O   -3.61440906   0.68554873  -0.19982907
H   -4.15371648   0.63539003   0.58938792
H   -4.24468019   0.71910959  -0.91945662
O   -0.19147106   0.82495348   1.47458730
H   -0.00640422   0.98574995   2.39985840
H   -0.69330524   1.59013701   1.19371642
O    0.51707356   1.02377786  -1.33663334
H   -0.06183302   1.76738945  -1.16888106
H    0.60054016   0.99485262  -2.28974850
O    0.48986821  -2.00624011   1.47661577
H    0.01815589  -2.82670882   1.61997000
H    1.05279398  -1.91556740   2.24546223
O   -1.39140317  -0.94640608  -0.56464839
H   -1.50143657  -1.30475345  -1.44539333
H   -2.21948968  -0.50287966  -0.38083081
O    0.58130991   1.10236851   4.13074805
H    0.99822931   1.91320514   4.42221679
H   -0.02049707   0.87385236   4.83915511
O    1.25870255  -1.82061918  -1.34839752
H    1.99449363  -2.42726898  -1.43097688
H    0.71696004  -1.99423380  -2.11820585
O    2.29641912  -0.92320724   3.25260943
H    1.83626977  -0.26103047   3.76837716
H    2.93322830  -1.30038344   3.85960534
O    2.45867858  -0.04217496   0.64572540
H    2.71337419  -0.25864011   1.54266734
H    3.20638765   0.44090786   0.29388169
O   -0.75807981  -1.69812123  -3.17871853
H   -0.47885773  -0.96001443  -3.72044284
H   -1.14499405  -2.31728583  -3.79772129
O    0.45181795   0.67051451  -4.09659416
H    1.24986929   0.56476546  -4.61443878
H   -0.08117008   1.28589122  -4.60004934
Ca   0.52639417  -0.49779012   0.06357441
