37
Energy:  -1646.95692832
O   -2.80174224   0.33745962   2.05182570
H   -3.22558579   0.24173883   2.90471844
H   -3.42648701   0.83935595   1.52835087
O   -1.32516114  -1.33135005   0.32288024
H   -1.30052315  -2.28217280   0.21535848
H   -1.98011404  -1.18387999   1.00517133
O    1.52888268  -0.67515544   0.30193845
H    1.88336699  -1.55989306   0.39032433
H    1.98661846  -0.16533713   0.97036579
O    2.29123914  -3.34463972   0.44254299
H    2.33681650  -3.77962760   1.29397713
H    3.07244625  -3.64448234  -0.02225987
O    3.19507284   2.74275545  -0.34872229
H    4.07797410   2.50908109  -0.63527684
H    3.20312074   3.69877453  -0.30187569
O    0.96730399   1.57665737  -1.51025914
H    0.73105739   2.15623019  -2.23449304
H    1.77455468   1.95064576  -1.15711490
O    2.22012706   1.43967677   1.92645326
H    2.63228373   1.56984274   2.78051154
H    2.71558378   2.00351508   1.33244918
O   -0.14177464  -3.57936869  -0.92534618
H   -0.44146118  -4.44631409  -1.19888870
H    0.68541777  -3.74324656  -0.47243492
O   -0.42936874   1.30704108   1.04977462
H    0.29054176   1.58529130   1.61593495
H   -1.16762123   1.17935949   1.64551998
O    0.10954806  -1.17543541  -2.19794112
H    0.00990138  -2.10355627  -1.98605895
H    0.48517445  -1.16924497  -3.07833782
O   -4.00507486   1.82005179  -0.00645610
H   -4.10926113   2.75517591   0.16938458
H   -4.87684504   1.52719322  -0.27194145
O   -1.86780450   0.87268723  -1.49189062
H   -2.59123746   1.27032578  -1.00737004
H   -2.22193812   0.71770630  -2.36756301
Ca  -0.16213684   0.09970696  -0.58984686
