49
Energy:  -1228.70480925
O   -0.03080676   0.21725010  -0.08143892
H    0.19634217   0.48863332   0.80793522
H   -0.90987160   0.56879468  -0.22248239
O   -2.42105187   1.20371254  -0.81314859
H   -2.93698048   0.67788285  -0.20195906
H   -2.47493166   0.72921076  -1.64271287
O   -1.99915237  -2.98488599   0.43047372
H   -1.43601669  -2.82775380  -0.32743098
H   -2.23916449  -3.90909217   0.36362339
O    2.19334718   2.03876220  -1.03092634
H    2.11365284   2.59930382  -0.25912730
H    2.63951787   1.25402982  -0.71255761
O    0.61512332   1.16831274   2.38021517
H    1.26966771   0.48570162   2.52801756
H   -0.17272435   0.84382312   2.81637384
O   -0.25286722   2.89477728  -1.34617944
H   -1.14491677   2.57756041  -1.20527904
H   -0.03378840   3.36116719  -0.53950927
O   -1.75862539  -0.25927623  -3.07681108
H   -1.37097252  -1.02988834  -2.66194474
H   -2.20992559  -0.60321874  -3.84769598
O   -0.34231803  -2.03357640  -1.53760433
H   -0.18212764  -1.30462209  -0.93827429
H    0.49429620  -2.16599601  -1.98344460
O    0.68978088   0.99195862  -2.90312281
H   -0.17889917   0.66046248  -3.13058078
H    1.25276502   0.21792058  -2.91519849
O    3.34877973  -0.32810709  -0.23166847
H    4.29456122  -0.33902726  -0.08466517
H    2.97370334  -0.62733038   0.59659174
O   -3.36136094  -0.65089061   1.05106956
H   -4.29421611  -0.84123922   1.14996590
H   -2.96743876  -1.49298975   0.82319634
O    2.29204586  -1.03314588   2.22260989
H    2.81467120  -1.40257352   2.93438080
H    1.48908884  -1.55418233   2.21901978
O    2.19025876  -1.28842860  -2.55798551
H    2.66146053  -1.08445649  -1.75015130
H    2.85515493  -1.66345153  -3.13548246
O    1.09536144   3.51083425   1.02582440
H    1.27653081   4.27518271   1.57279874
H    0.91755597   2.80643692   1.64907512
O   -0.15420177  -2.17589463   2.35020780
H   -0.73793907  -2.60056632   1.72160891
H   -0.71056052  -1.54368721   2.80519193
O   -1.72180732  -0.06499059   3.21392634
H   -2.23780036   0.04149530   4.01307826
H   -2.37267389  -0.17992364   2.52154281
H    0.86924884   1.93702986  -1.76579109
