13
Energy:   -563.21888702
O    1.27701464   1.57046033   0.53508938
H    1.40965888   0.97075928   1.26925285
H    1.87513065   2.29749994   0.70801276
O   -0.23056722  -1.55531250  -1.42417233
H    0.08134518  -1.68856206  -2.31926286
H   -0.21001317  -2.42757744  -1.03051859
O   -1.02698619   0.94103436  -0.65476828
H   -0.45873326   1.61666428  -0.28484306
H   -1.79028769   1.41986758  -0.97775653
O   -0.14390155  -0.91288464   1.22861832
H   -0.64222489  -0.40499317   1.86889322
H    0.38897471  -1.50765428   1.75637187
H   -0.52053023  -0.38684585  -0.56714217
