13
Energy:   -569.74410322
O   -0.04717292   0.25028986  -1.28955443
H    0.78126087  -0.17928600  -1.07649600
H   -0.11976978   0.17320506  -2.24087955
O   -1.01483505   1.84408385   0.70077236
H   -1.61559577   1.52795794   1.37559293
H   -0.91215920   2.77700074   0.88880319
O   -1.29396402  -0.79591346   0.96938523
H   -1.60039496  -1.04608973   1.84101804
H   -1.14328761  -1.62758356   0.52010434
O    2.18697242  -1.05445412  -0.55874500
H    2.46411269  -1.62489829   0.15820589
H    2.95749159  -0.98598560  -1.12252165
H   -0.62082864   0.68631749  -0.07716616
