13
Energy:   -568.26607742
O   -0.33812510  -0.04753899  -1.79920450
H   -0.66378089   0.77132262  -2.17289664
H   -0.76674014  -0.73263524  -2.31219975
O    0.24153324  -0.62842635   0.87195818
H    0.49391324  -1.33425849   1.46722046
H   -0.50911131  -0.21321322   1.29664944
O   -1.85285893   0.58953987   2.05335846
H   -2.58955173   1.05708829   1.65976725
H   -1.84142154   0.88313136   2.96434972
O    2.13259435   0.04844057  -0.96305239
H    2.97884100  -0.39801176  -0.99095900
H    1.88498415   0.15107191  -1.88195818
H    0.82312851  -0.14186838  -0.31818251
