13
Energy:   -562.22147462
O    0.98546361   1.56318023  -2.11760317
H    0.81749542   1.92837271  -2.98631083
H    1.89817902   1.78690996  -1.93559371
O   -1.25245696   0.44582866   0.05442485
H   -0.90170448   1.07397900  -0.57694802
H   -2.19349074   0.43021437  -0.12005573
O    0.84750171  -0.07834113   1.61392059
H    1.37981373   0.57014621   1.15311702
H    0.78823216   0.25284543   2.51004247
O   -0.56866067  -2.08192306   0.54571201
H   -1.09217646  -2.50962499  -0.13195615
H   -0.50327557  -2.73250230   1.24478517
H   -0.23845086  -0.63900805   0.78260974
