41
Energy:  -1095.74830320
O    2.05299146  -3.10953170  -0.20300714
H    1.42246030  -2.59956044   0.30551191
H    2.45532291  -2.47314285  -0.79408284
O   -2.77195757  -0.77112405   2.24858534
H   -2.43018311  -1.61467133   1.95219025
H   -2.03428156  -0.16796946   2.15764307
O    2.10596285   2.76281388  -1.30316951
H    2.15594419   3.24401295  -0.47722691
H    1.97035588   1.85186708  -1.04236589
O   -0.22965161  -3.84536875  -1.52066228
H   -0.90404292  -3.58735883  -0.89228414
H    0.59700378  -3.66796606  -1.07188506
O    2.64804709  -0.93942360  -1.76825704
H    1.83609700  -1.07943220  -2.25545976
H    2.38914679  -0.40187458  -1.01976287
O    1.85134530   2.99590635   1.44856171
H    0.93300415   3.25677125   1.37905724
H    1.87289673   2.10092028   1.10978845
O   -3.30381554  -0.67199693  -0.45757547
H   -2.46239219  -0.31341977  -0.73981830
H   -3.31973510  -0.53025364   0.48893774
O   -1.98343080  -2.90692395   0.43222083
H   -2.50047100  -2.24850632  -0.03187777
H   -1.15045304  -2.47245674   0.61557334
O   -0.82848673   3.35191720   0.99150132
H   -0.85226086   3.24234816   0.04089033
H   -0.86419880   2.45990599   1.33685983
O   -0.61629531   2.73972643  -1.68353180
H   -0.78981642   1.82077011  -1.47946916
H    0.33822641   2.81096267  -1.67678437
O    0.76517306   1.78495291   3.70541560
H    1.34123024   2.28264592   3.12516424
H    0.19922598   1.28886744   3.11394712
O    0.13310394  -1.43125712  -2.82063653
H   -0.03914763  -2.29100410  -2.43671418
H   -0.24765150  -0.81041256  -2.19950114
S    0.08062897  -0.00873583   0.43549476
O    1.43968834   0.55570480   0.20211868
O   -0.74584254   0.16245677  -0.79240504
O    0.19394727  -1.45860030   0.75976627
O   -0.56527719   0.70549539   1.57249916
