41
Energy:  -1098.39175716
O    2.10974615  -2.95178233   0.21672756
H    2.59752934  -2.33837866   0.76630499
H    1.22887121  -2.58063509   0.16632003
O   -1.97207793  -2.15741270  -1.78214816
H   -2.46127189  -1.33491341  -1.76175130
H   -1.33813969  -2.07733219  -1.06944817
O    3.43989019  -0.74659100   1.20772286
H    3.53219591  -0.66142479   0.25879809
H    2.61519192  -0.30445289   1.40926319
O   -1.18637368  -2.29097495   2.53325360
H   -0.72357754  -1.64074504   3.06169720
H   -0.84464153  -2.16776265   1.64766356
O    3.08723903  -1.04117856  -1.52887338
H    2.75274474  -1.84650461  -1.13416415
H    2.34378514  -0.43851867  -1.51128860
O    1.84604479   2.96437179   1.10607030
H    1.59617271   2.06320022   1.31024076
H    1.56135658   3.09323456   0.20131682
O   -2.63508213   0.58253989  -2.06109511
H   -1.89690378   0.37842464  -2.63525670
H   -2.24642333   0.66351135  -1.19010728
O   -0.30870649   0.06082785   3.69558822
H    0.27106824   0.22205116   2.95120918
H   -1.18378155   0.26765620   3.36741522
O   -1.86101173   3.10815342  -0.89920770
H   -2.27251770   2.63843144  -1.62464270
H   -1.60396904   2.42155757  -0.28378342
O    0.84287068   3.06733304  -1.49538155
H    0.94357172   2.11575854  -1.47094577
H   -0.08342768   3.21560001  -1.30506579
O   -2.73053120  -0.00708756   2.34001204
H   -2.29847779   0.37605406   1.57662210
H   -2.42007039  -0.91226582   2.36233345
O   -0.47235386  -0.45795630  -3.36649613
H   -0.85182599  -1.24314927  -2.97190173
H    0.10722862  -0.10598296  -2.69089953
S    0.09666549  -0.00107764   0.14040814
O    0.79828643   0.37896371  -1.11792275
O   -0.16821818  -1.46734185   0.13797983
O    0.95122004   0.34731464   1.31021982
O   -1.19462633   0.73675297   0.23135568
