
                                 *****************
                                 * O   R   C   A *
                                 *****************

           --- An Ab Initio, DFT and Semiempirical electronic structure package ---

                  #######################################################
                  #                        -***-                        #
                  #          Department of theory and spectroscopy      #
                  #               Directorship: Frank Neese             #
                  #        Max Planck Institute fuer Kohlenforschung    #
                  #                Kaiser Wilhelm Platz 1               #
                  #                 D-45470 Muelheim/Ruhr               #
                  #                      Germany                        #
                  #                                                     #
                  #                  All rights reserved                #
                  #                        -***-                        #
                  #######################################################


                         Program Version 4.2.0 -  RELEASE  -


 With contributions from (in alphabetic order):
   Daniel Aravena         : Magnetic Suceptibility
   Michael Atanasov       : Ab Initio Ligand Field Theory (pilot matlab implementation)
   Alexander A. Auer      : GIAO ZORA, VPT2
   Ute Becker             : Parallelization
   Giovanni Bistoni       : ED, misc. LED, open-shell LED, HFLED
   Martin Brehm           : Molecular dynamics
   Dmytro Bykov           : SCF Hessian
   Vijay G. Chilkuri      : MRCI spin determinant printing, contributions to CSF-ICE
   Dipayan Datta          : RHF DLPNO-CCSD density
   Achintya Kumar Dutta   : EOM-CC, STEOM-CC
   Dmitry Ganyushin       : Spin-Orbit,Spin-Spin,Magnetic field MRCI
   Miquel Garcia          : C-PCM Hessian, Gaussian charge scheme
   Yang Guo               : DLPNO-NEVPT2, CIM, IAO-localization
   Andreas Hansen         : Spin unrestricted coupled pair/coupled cluster methods
   Benjamin Helmich-Paris : CASSCF linear response (MC-RPA)
   Lee Huntington         : MR-EOM, pCC
   Robert Izsak           : Overlap fitted RIJCOSX, COSX-SCS-MP3, EOM
   Christian Kollmar      : KDIIS, OOCD, Brueckner-CCSD(T), CCSD density
   Simone Kossmann        : Meta GGA functionals, TD-DFT gradient, OOMP2, MP2 Hessian
   Martin Krupicka        : AUTO-CI
   Lucas Lang             : DCDCAS
   Dagmar Lenk            : GEPOL surface, SMD
   Dimitrios Liakos       : Extrapolation schemes; Compound Job, initial MDCI parallelization
   Dimitrios Manganas     : Further ROCIS development; embedding schemes
   Dimitrios Pantazis     : SARC Basis sets
   Taras Petrenko         : DFT Hessian,TD-DFT gradient, ASA, ECA, R-Raman, ABS, FL, XAS/XES, NRVS
   Peter Pinski           : DLPNO-MP2, DLPNO-MP2 Gradient
   Christoph Reimann      : Effective Core Potentials
   Marius Retegan         : Local ZFS, SOC
   Christoph Riplinger    : Optimizer, TS searches, QM/MM, DLPNO-CCSD(T), (RO)-DLPNO pert. Triples
   Tobias Risthaus        : Range-separated hybrids, TD-DFT gradient, RPA, STAB
   Michael Roemelt        : Original ROCIS implementation
   Masaaki Saitow         : Open-shell DLPNO-CCSD energy and density
   Barbara Sandhoefer     : DKH picture change effects
   Avijit Sen             : IP-ROCIS
   Kantharuban Sivalingam : CASSCF convergence, NEVPT2, FIC-MRCI
   Bernardo de Souza      : ESD, SOC TD-DFT
   Georgi Stoychev        : AutoAux, RI-MP2 NMR
   Willem Van den Heuvel  : Paramagnetic NMR
   Boris Wezisla          : Elementary symmetry handling
   Frank Wennmohs         : Technical directorship


 We gratefully acknowledge several colleagues who have allowed us to
 interface, adapt or use parts of their codes:
   Stefan Grimme, W. Hujo, H. Kruse,             : VdW corrections, initial TS optimization,
                  C. Bannwarth                     DFT functionals, gCP, sTDA/sTD-DF
   Ed Valeev, F. Pavosevic, A. Kumar             : LibInt (2-el integral package), F12 methods
   Garnet Chan, S. Sharma, J. Yang, R. Olivares  : DMRG
   Ulf Ekstrom                                   : XCFun DFT Library
   Mihaly Kallay                                 : mrcc  (arbitrary order and MRCC methods)
   Andreas Klamt, Michael Diedenhofen            : otool_cosmo (COSMO solvation model)
   Jiri Pittner, Ondrej Demel                    : Mk-CCSD
   Frank Weinhold                                : gennbo (NPA and NBO analysis)
   Christopher J. Cramer and Donald G. Truhlar   : smd solvation model
   Lars Goerigk                                  : TD-DFT with DH, B97 family of functionals
   V. Asgeirsson, H. Jonsson                     : NEB implementation
   FAccTs GmbH                                   : IRC, NEB, NEB-TS, Multilevel, MM, QM/MM, CI optimization
   S Lehtola, MJT Oliveira, MAL Marques          : LibXC Library


 Your calculation uses the libint2 library for the computation of 2-el integrals
 For citations please refer to: http://libint.valeyev.net

 Your ORCA version has been built with support for libXC version: 4.2.3
 For citations please refer to: https://tddft.org/programs/libxc/

 This ORCA versions uses:
   CBLAS   interface :  Fast vector & matrix operations
   LAPACKE interface :  Fast linear algebra routines
   SCALAPACK package :  Parallel linear algebra routines


----- Orbital basis set information -----
Your calculation utilizes the basis: def2-TZVP
   F. Weigend and R. Ahlrichs, Phys. Chem. Chem. Phys. 7, 3297 (2005).

================================================================================
                                        WARNINGS
                       Please study these warnings very carefully!
================================================================================


WARNING: The frozen-core approximation for MP2-gradient calculations is turned on by default.

INFO   : the flag for use of LIBINT has been found!

================================================================================
                                       INPUT FILE
================================================================================
NAME = 12h2o.su.etal.mol0,1,8,10-orca.engrad-mp2.def2tzvp.frozencore.inp
|  1> # 12h2o.su.etal.mol0,1,8,10
|  2> ! MP2 def2-TZVP EnGrad TightSCF
|  3> 
|  4> %pal
|  5>     nprocs 6
|  6> end
|  7> 
|  8> %maxcore 8000
|  9> 
| 10> %scf
| 11>     ConvForced true
| 12> end
| 13> 
| 14> *xyz 0 1
| 15> O   1.794470000   0.923410000   2.768350000
| 16> H   2.338250000   1.359750000   3.430940000
| 17> H   0.879480000   1.303000000   2.865760000
| 18> O  -1.794470000  -0.923410000   2.768350000
| 19> H  -2.338250000  -1.359750000   3.430940000
| 20> H  -0.879480000  -1.303000000   2.865760000
| 21> O   1.752130000   0.741530000  -2.896280000
| 22> H   2.036450000   0.920500000  -1.984040000
| 23> H   0.921210000   1.242140000  -2.984230000
| 24> O  -0.923410000   1.794470000  -2.768350000
| 25> H  -1.359750000   2.338250000  -3.430940000
| 26> H  -1.303000000   0.879480000  -2.865760000
| 27> *
| 28> 
| 29>                          ****END OF INPUT****
================================================================================

                     *******************************
                     * Energy+Gradient Calculation *
                     *******************************

---------------------------------
CARTESIAN COORDINATES (ANGSTROEM)
---------------------------------
  O      1.794470    0.923410    2.768350
  H      2.338250    1.359750    3.430940
  H      0.879480    1.303000    2.865760
  O     -1.794470   -0.923410    2.768350
  H     -2.338250   -1.359750    3.430940
  H     -0.879480   -1.303000    2.865760
  O      1.752130    0.741530   -2.896280
  H      2.036450    0.920500   -1.984040
  H      0.921210    1.242140   -2.984230
  O     -0.923410    1.794470   -2.768350
  H     -1.359750    2.338250   -3.430940
  H     -1.303000    0.879480   -2.865760

----------------------------
CARTESIAN COORDINATES (A.U.)
----------------------------
  NO LB      ZA    FRAG     MASS         X           Y           Z
   0 O     8.0000    0    15.999    3.391057    1.744992    5.231423
   1 H     1.0000    0     1.008    4.418652    2.569555    6.483537
   2 H     1.0000    0     1.008    1.661976    2.462313    5.415502
   3 O     8.0000    0    15.999   -3.391057   -1.744992    5.231423
   4 H     1.0000    0     1.008   -4.418652   -2.569555    6.483537
   5 H     1.0000    0     1.008   -1.661976   -2.462313    5.415502
   6 O     8.0000    0    15.999    3.311046    1.401289   -5.473176
   7 H     1.0000    0     1.008    3.848333    1.739493   -3.749292
   8 H     1.0000    0     1.008    1.740835    2.347304   -5.639377
   9 O     8.0000    0    15.999   -1.744992    3.391057   -5.231423
  10 H     1.0000    0     1.008   -2.569555    4.418652   -6.483537
  11 H     1.0000    0     1.008   -2.462313    1.661976   -5.415502

--------------------------------
INTERNAL COORDINATES (ANGSTROEM)
--------------------------------
 O      0   0   0     0.000000000000     0.00000000     0.00000000
 H      1   0   0     0.961828878803     0.00000000     0.00000000
 H      1   2   0     0.995381322057   106.21731035     0.00000000
 O      3   1   2     3.480861789658   117.35405144   223.81249033
 H      4   3   1     0.961828878803   134.84484566    98.22461471
 H      4   3   1     0.995381322057    62.29205096    12.66575463
 O      1   2   3     5.667707300743   135.01509642   116.29625730
 H      7   1   2     0.972136791249    18.92045113     9.26599691
 H      7   1   2     0.974050112161    94.59568686   248.81379742
 O      9   7   1     1.937600461318   161.54375213   306.88276362
 H     10   9   7     0.961828878803   121.08403650   202.75419110
 H     10   9   7     0.995381322057    95.17003195   315.21089530

---------------------------
INTERNAL COORDINATES (A.U.)
---------------------------
 O      0   0   0     0.000000000000     0.00000000     0.00000000
 H      1   0   0     1.817593168635     0.00000000     0.00000000
 H      1   2   0     1.880998097508   106.21731035     0.00000000
 O      3   1   2     6.577875492484   117.35405144   223.81249033
 H      4   3   1     1.817593168635   134.84484566    98.22461471
 H      4   3   1     1.880998097508    62.29205096    12.66575463
 O      1   2   3    10.710414605631   135.01509642   116.29625730
 H      7   1   2     1.837072300170    18.92045113     9.26599691
 H      7   1   2     1.840687952699    94.59568686   248.81379742
 O      9   7   1     3.661534228851   161.54375213   306.88276362
 H     10   9   7     1.817593168635   121.08403650   202.75419110
 H     10   9   7     1.880998097508    95.17003195   315.21089530

---------------------
BASIS SET INFORMATION
---------------------
There are 2 groups of distinct atoms

 Group   1 Type O   : 11s6p2d1f contracted to 5s3p2d1f pattern {62111/411/11/1}
 Group   2 Type H   : 5s1p contracted to 3s1p pattern {311/1}

Atom   0O    basis set group =>   1
Atom   1H    basis set group =>   2
Atom   2H    basis set group =>   2
Atom   3O    basis set group =>   1
Atom   4H    basis set group =>   2
Atom   5H    basis set group =>   2
Atom   6O    basis set group =>   1
Atom   7H    basis set group =>   2
Atom   8H    basis set group =>   2
Atom   9O    basis set group =>   1
Atom  10H    basis set group =>   2
Atom  11H    basis set group =>   2


           ************************************************************
           *        Program running with 6 parallel MPI-processes     *
           *              working on a common directory               *
           ************************************************************
------------------------------------------------------------------------------
                           ORCA GTO INTEGRAL CALCULATION
------------------------------------------------------------------------------

                         BASIS SET STATISTICS AND STARTUP INFO

 # of primitive gaussian shells          ...  128
 # of primitive gaussian functions       ...  248
 # of contracted shells                  ...   76
 # of contracted basis functions         ...  172
 Highest angular momentum                ...    3
 Maximum contraction depth               ...    6
 Integral package used                   ... LIBINT
 Integral threshhold            Thresh   ...  2.500e-11
 Primitive cut-off              TCut     ...  2.500e-12


------------------------------ INTEGRAL EVALUATION ----------------------------


 * One electron integrals 
 Pre-screening matrix                    ... done
 Shell pair data                         ... done (   0.000 sec)



           ************************************************************
           *        Program running with 6 parallel MPI-processes     *
           *              working on a common directory               *
           ************************************************************
-------------------------------------------------------------------------------
                                 ORCA SCF
-------------------------------------------------------------------------------

------------
SCF SETTINGS
------------
Hamiltonian:
 Ab initio Hamiltonian  Method          .... Hartree-Fock(GTOs)


General Settings:
 Integral files         IntName         .... 12h2o.su.etal.mol0,1,8,10-orca.engrad-mp2.def2tzvp.frozencore
 Hartree-Fock type      HFTyp           .... RHF
 Total Charge           Charge          ....    0
 Multiplicity           Mult            ....    1
 Number of Electrons    NEL             ....   40
 Basis Dimension        Dim             ....  172
 Nuclear Repulsion      ENuc            ....    101.4033158915 Eh

Convergence Acceleration:
 DIIS                   CNVDIIS         .... on
   Start iteration      DIISMaxIt       ....    12
   Startup error        DIISStart       ....  0.200000
   # of expansion vecs  DIISMaxEq       ....     5
   Bias factor          DIISBfac        ....   1.050
   Max. coefficient     DIISMaxC        ....  10.000
 Newton-Raphson         CNVNR           .... off
 SOSCF                  CNVSOSCF        .... on
   Start iteration      SOSCFMaxIt      ....   150
   Startup grad/error   SOSCFStart      ....  0.003300
 Level Shifting         CNVShift        .... on
   Level shift para.    LevelShift      ....    0.2500
   Turn off err/grad.   ShiftErr        ....    0.0010
 Zerner damping         CNVZerner       .... off
 Static damping         CNVDamp         .... on
   Fraction old density DampFac         ....    0.7000
   Max. Damping (<1)    DampMax         ....    0.9800
   Min. Damping (>=0)   DampMin         ....    0.0000
   Turn off err/grad.   DampErr         ....    0.1000
 Fernandez-Rico         CNVRico         .... off

SCF Procedure:
 Maximum # iterations   MaxIter         ....   125
 SCF integral mode      SCFMode         .... Direct
   Integral package                     .... LIBINT
 Reset frequency        DirectResetFreq ....    20
 Integral Threshold     Thresh          ....  2.500e-11 Eh
 Primitive CutOff       TCut            ....  2.500e-12 Eh

Convergence Tolerance:
 Convergence Check Mode ConvCheckMode   .... Total+1el-Energy
 Convergence forced     ConvForced      .... 1
 Energy Change          TolE            ....  1.000e-08 Eh
 1-El. energy change                    ....  1.000e-05 Eh
 Orbital Gradient       TolG            ....  1.000e-05
 Orbital Rotation angle TolX            ....  1.000e-05
 DIIS Error             TolErr          ....  5.000e-07


Diagonalization of the overlap matrix:
Smallest eigenvalue                        ... 7.147e-03
Time for diagonalization                   ...    0.005 sec
Threshold for overlap eigenvalues          ... 1.000e-08
Number of eigenvalues below threshold      ... 0
Time for construction of square roots      ...    0.002 sec
Total time needed                          ...    0.007 sec

-------------------
DFT GRID GENERATION
-------------------

General Integration Accuracy     IntAcc      ...  4.340
Radial Grid Type                 RadialGrid  ... Gauss-Chebyshev
Angular Grid (max. acc.)         AngularGrid ... Lebedev-110
Angular grid pruning method      GridPruning ... 3 (G Style)
Weight generation scheme         WeightScheme... Becke
Basis function cutoff            BFCut       ...    1.0000e-11
Integration weight cutoff        WCut        ...    1.0000e-14
Grids for H and He will be reduced by one unit

# of grid points (after initial pruning)     ...  13216 (   0.0 sec)
# of grid points (after weights+screening)   ...  12911 (   0.0 sec)
nearest neighbour list constructed           ...    0.0 sec
Grid point re-assignment to atoms done       ...    0.0 sec
Grid point division into batches done        ...    0.0 sec
Reduced shell lists constructed in    0.0 sec

Total number of grid points                  ...    12911
Total number of batches                      ...      208
Average number of points per batch           ...       62
Average number of grid points per atom       ...     1076
Average number of shells per batch           ...    31.58 (41.56%)
Average number of basis functions per batch  ...    61.92 (36.00%)
Average number of large shells per batch     ...    22.31 (70.62%)
Average number of large basis fcns per batch ...    46.19 (74.61%)
Maximum spatial batch extension              ...  14.53, 20.10, 17.28 au
Average spatial batch extension              ...   0.74,  0.78,  0.69 au

Time for grid setup =    0.029 sec

------------------------------
INITIAL GUESS: MODEL POTENTIAL
------------------------------
Loading Hartree-Fock densities                     ... done
Calculating cut-offs                               ... done
Setting up the integral package                    ... done
Initializing the effective Hamiltonian             ... done
Starting the Coulomb interaction                   ... done (   0.0 sec)
Reading the grid                                   ... done
Mapping shells                                     ... done
Starting the XC term evaluation                    ... done (   0.0 sec)
Transforming the Hamiltonian                       ... done (   0.0 sec)
Diagonalizing the Hamiltonian                      ... done (   0.0 sec)
Back transforming the eigenvectors                 ... done (   0.0 sec)
Now organizing SCF variables                       ... done
                      ------------------
                      INITIAL GUESS DONE (   0.1 sec)
                      ------------------
--------------
SCF ITERATIONS
--------------
ITER       Energy         Delta-E        Max-DP      RMS-DP      [F,P]     Damp
               ***  Starting incremental Fock matrix formation  ***
  0   -303.8447965384   0.000000000000 0.04312309  0.00121861  0.3480473 0.7000
  1   -304.0001673635  -0.155370825099 0.02868544  0.00083651  0.2163140 0.7000
                               ***Turning on DIIS***
  2   -304.0811736137  -0.081006250213 0.01649857  0.00045642  0.1638181 0.7000
  3   -304.7827438293  -0.701570215643 0.00753351  0.00019660  0.1218799 0.7000
  4   -304.6373170085   0.145426820860 0.01682570  0.00044884  0.0862005 0.0000
  5   -304.2677848262   0.369532182290 0.00184293  0.00007275  0.0052227 0.0000
                      *** Initiating the SOSCF procedure ***
                           *** Shutting down DIIS ***
                      *** Re-Reading the Fockian *** 
                      *** Removing any level shift *** 
ITER      Energy       Delta-E        Grad      Rot      Max-DP    RMS-DP
  6   -304.24354704   0.0242377847  0.001115  0.001115  0.001172  0.000043
               *** Restarting incremental Fock matrix formation ***
  7   -304.23588693   0.0076601116  0.000359  0.000523  0.000565  0.000019
  8   -304.23589252  -0.0000055913  0.000231  0.000394  0.000428  0.000016
  9   -304.23589385  -0.0000013301  0.000083  0.000064  0.000099  0.000003
 10   -304.23589396  -0.0000001106  0.000011  0.000008  0.000017  0.000000
                  ***Gradient check signals convergence***
              ***Rediagonalizing the Fockian in SOSCF/NRSCF***

               *****************************************************
               *                     SUCCESS                       *
               *           SCF CONVERGED AFTER  11 CYCLES          *
               *****************************************************


----------------
TOTAL SCF ENERGY
----------------

Total Energy       :         -304.23589396 Eh           -8278.67955 eV

Components:
Nuclear Repulsion  :          101.40331589 Eh            2759.32451 eV
Electronic Energy  :         -405.63920986 Eh          -11038.00406 eV
One Electron Energy:         -621.86525213 Eh          -16921.81380 eV
Two Electron Energy:          216.22604227 Eh            5883.80974 eV

Virial components:
Potential Energy   :         -607.95749264 Eh          -16543.36442 eV
Kinetic Energy     :          303.72159868 Eh            8264.68487 eV
Virial Ratio       :            2.00169331


---------------
SCF CONVERGENCE
---------------

  Last Energy change         ...   -2.3059e-09  Tolerance :   1.0000e-08
  Last MAX-Density change    ...    4.9766e-06  Tolerance :   1.0000e-07
  Last RMS-Density change    ...    1.4656e-07  Tolerance :   5.0000e-09
  Last Orbital Gradient      ...    2.2981e-06  Tolerance :   1.0000e-05
  Last Orbital Rotation      ...    3.0067e-06  Tolerance :   1.0000e-05

             **** THE GBW FILE WAS UPDATED (12h2o.su.etal.mol0,1,8,10-orca.engrad-mp2.def2tzvp.frozencore.gbw) ****
             **** DENSITY FILE WAS UPDATED (12h2o.su.etal.mol0,1,8,10-orca.engrad-mp2.def2tzvp.frozencore.scfp) ****
             **** ENERGY FILE WAS UPDATED (12h2o.su.etal.mol0,1,8,10-orca.engrad-mp2.def2tzvp.frozencore.en.tmp) ****
             **** THE GBW FILE WAS UPDATED (12h2o.su.etal.mol0,1,8,10-orca.engrad-mp2.def2tzvp.frozencore.gbw) ****
             **** DENSITY FILE WAS UPDATED (12h2o.su.etal.mol0,1,8,10-orca.engrad-mp2.def2tzvp.frozencore.scfp) ****
----------------
ORBITAL ENERGIES
----------------

  NO   OCC          E(Eh)            E(eV) 
   0   2.0000     -20.584720      -560.1387 
   1   2.0000     -20.563997      -559.5748 
   2   2.0000     -20.563649      -559.5653 
   3   2.0000     -20.522840      -558.4549 
   4   2.0000      -1.362351       -37.0715 
   5   2.0000      -1.339427       -36.4477 
   6   2.0000      -1.338880       -36.4328 
   7   2.0000      -1.305330       -35.5198 
   8   2.0000      -0.729472       -19.8499 
   9   2.0000      -0.708887       -19.2898 
  10   2.0000      -0.705833       -19.2067 
  11   2.0000      -0.675007       -18.3679 
  12   2.0000      -0.600940       -16.3524 
  13   2.0000      -0.575803       -15.6684 
  14   2.0000      -0.575001       -15.6466 
  15   2.0000      -0.549860       -14.9625 
  16   2.0000      -0.519584       -14.1386 
  17   2.0000      -0.508216       -13.8293 
  18   2.0000      -0.506144       -13.7729 
  19   2.0000      -0.470677       -12.8078 
  20   0.0000       0.112017         3.0481 
  21   0.0000       0.117383         3.1942 
  22   0.0000       0.143053         3.8927 
  23   0.0000       0.180434         4.9098 
  24   0.0000       0.192177         5.2294 
  25   0.0000       0.201316         5.4781 
  26   0.0000       0.210265         5.7216 
  27   0.0000       0.299099         8.1389 
  28   0.0000       0.492157        13.3923 
  29   0.0000       0.502958        13.6862 
  30   0.0000       0.511722        13.9247 
  31   0.0000       0.532340        14.4857 
  32   0.0000       0.550416        14.9776 
  33   0.0000       0.559448        15.2234 
  34   0.0000       0.572226        15.5710 
  35   0.0000       0.584787        15.9128 
  36   0.0000       0.591076        16.0840 
  37   0.0000       0.617329        16.7984 
  38   0.0000       0.624944        17.0056 
  39   0.0000       0.630603        17.1596 
  40   0.0000       0.640625        17.4323 
  41   0.0000       0.654449        17.8085 
  42   0.0000       0.666432        18.1345 
  43   0.0000       0.726041        19.7566 
  44   0.0000       0.751345        20.4451 
  45   0.0000       0.753708        20.5094 
  46   0.0000       0.760565        20.6960 
  47   0.0000       0.779947        21.2234 
  48   0.0000       0.800720        21.7887 
  49   0.0000       0.821356        22.3502 
  50   0.0000       0.893938        24.3253 
  51   0.0000       0.954694        25.9785 
  52   0.0000       1.390045        37.8250 
  53   0.0000       1.406022        38.2598 
  54   0.0000       1.421871        38.6911 
  55   0.0000       1.422479        38.7076 
  56   0.0000       1.433017        38.9944 
  57   0.0000       1.434150        39.0252 
  58   0.0000       1.450599        39.4728 
  59   0.0000       1.490817        40.5672 
  60   0.0000       1.552715        42.2515 
  61   0.0000       1.553656        42.2771 
  62   0.0000       1.554705        42.3057 
  63   0.0000       1.607160        43.7330 
  64   0.0000       1.786722        48.6192 
  65   0.0000       1.802847        49.0580 
  66   0.0000       1.813297        49.3423 
  67   0.0000       1.855251        50.4839 
  68   0.0000       1.879666        51.1483 
  69   0.0000       1.894286        51.5462 
  70   0.0000       1.899665        51.6925 
  71   0.0000       1.983882        53.9842 
  72   0.0000       2.003763        54.5252 
  73   0.0000       2.006147        54.5900 
  74   0.0000       2.035560        55.3904 
  75   0.0000       2.105060        57.2816 
  76   0.0000       2.295068        62.4520 
  77   0.0000       2.298532        62.5462 
  78   0.0000       2.301035        62.6143 
  79   0.0000       2.312738        62.9328 
  80   0.0000       2.321684        63.1762 
  81   0.0000       2.326704        63.3128 
  82   0.0000       2.329588        63.3913 
  83   0.0000       2.384350        64.8815 
  84   0.0000       2.388278        64.9884 
  85   0.0000       2.390012        65.0355 
  86   0.0000       2.395335        65.1804 
  87   0.0000       2.517515        68.5051 
  88   0.0000       2.561172        69.6930 
  89   0.0000       2.578162        70.1554 
  90   0.0000       2.583288        70.2948 
  91   0.0000       2.632917        71.6453 
  92   0.0000       2.689894        73.1957 
  93   0.0000       2.696047        73.3632 
  94   0.0000       2.700785        73.4921 
  95   0.0000       2.720208        74.0206 
  96   0.0000       2.894489        78.7630 
  97   0.0000       2.897450        78.8436 
  98   0.0000       2.921796        79.5061 
  99   0.0000       2.962142        80.6040 
 100   0.0000       2.965701        80.7008 
 101   0.0000       2.981064        81.1189 
 102   0.0000       2.988680        81.3261 
 103   0.0000       3.005029        81.7710 
 104   0.0000       3.015318        82.0510 
 105   0.0000       3.053691        83.0951 
 106   0.0000       3.070910        83.5637 
 107   0.0000       3.109159        84.6045 
 108   0.0000       3.125606        85.0521 
 109   0.0000       3.162570        86.0579 
 110   0.0000       3.201170        87.1083 
 111   0.0000       3.318087        90.2897 
 112   0.0000       3.973805       108.1327 
 113   0.0000       3.978318       108.2555 
 114   0.0000       3.986515       108.4786 
 115   0.0000       4.063851       110.5830 
 116   0.0000       4.291617       116.7808 
 117   0.0000       4.308796       117.2483 
 118   0.0000       4.310514       117.2950 
 119   0.0000       4.350605       118.3860 
 120   0.0000       5.527361       150.4071 
 121   0.0000       5.549983       151.0227 
 122   0.0000       5.550336       151.0323 
 123   0.0000       5.583290       151.9290 
 124   0.0000       5.623454       153.0220 
 125   0.0000       5.639072       153.4469 
 126   0.0000       5.639439       153.4569 
 127   0.0000       5.688943       154.8040 
 128   0.0000       5.791457       157.5936 
 129   0.0000       5.811851       158.1485 
 130   0.0000       5.813132       158.1834 
 131   0.0000       5.829139       158.6189 
 132   0.0000       5.848291       159.1401 
 133   0.0000       5.849563       159.1747 
 134   0.0000       5.861860       159.5093 
 135   0.0000       5.894055       160.3854 
 136   0.0000       5.906284       160.7182 
 137   0.0000       5.916275       160.9900 
 138   0.0000       5.918025       161.0376 
 139   0.0000       5.932632       161.4351 
 140   0.0000       6.409010       174.3980 
 141   0.0000       6.428438       174.9267 
 142   0.0000       6.432902       175.0482 
 143   0.0000       6.519908       177.4157 
 144   0.0000       6.677770       181.7114 
 145   0.0000       6.697649       182.2523 
 146   0.0000       6.698584       182.2777 
 147   0.0000       6.729211       183.1111 
 148   0.0000       6.820868       185.6053 
 149   0.0000       6.821308       185.6172 
 150   0.0000       6.846329       186.2981 
 151   0.0000       6.868076       186.8899 
 152   0.0000       6.889014       187.4596 
 153   0.0000       6.889517       187.4733 
 154   0.0000       6.894781       187.6165 
 155   0.0000       6.909592       188.0196 
 156   0.0000       6.923045       188.3856 
 157   0.0000       6.923408       188.3955 
 158   0.0000       6.962845       189.4686 
 159   0.0000       6.989886       190.2045 
 160   0.0000       7.350688       200.0224 
 161   0.0000       7.370806       200.5698 
 162   0.0000       7.378211       200.7713 
 163   0.0000       7.434694       202.3083 
 164   0.0000       7.469231       203.2481 
 165   0.0000       7.481236       203.5748 
 166   0.0000       7.492681       203.8862 
 167   0.0000       7.574338       206.1082 
 168   0.0000      44.800085      1219.0723 
 169   0.0000      44.842563      1220.2282 
 170   0.0000      44.845438      1220.3064 
 171   0.0000      44.936574      1222.7864 

                    ********************************
                    * MULLIKEN POPULATION ANALYSIS *
                    ********************************

-----------------------
MULLIKEN ATOMIC CHARGES
-----------------------
   0 O :   -0.706967
   1 H :    0.347356
   2 H :    0.359717
   3 O :   -0.706795
   4 H :    0.346756
   5 H :    0.360034
   6 O :   -0.730196
   7 H :    0.342379
   8 H :    0.373544
   9 O :   -0.716468
  10 H :    0.360034
  11 H :    0.370604
Sum of atomic charges:    0.0000000

--------------------------------
MULLIKEN REDUCED ORBITAL CHARGES
--------------------------------
  0 O s       :     3.814210  s :     3.814210
      pz      :     1.722354  p :     4.865710
      px      :     1.350884
      py      :     1.792471
      dz2     :     0.004429  d :     0.025501
      dxz     :     0.004846
      dyz     :     0.005944
      dx2y2   :     0.002542
      dxy     :     0.007739
      f0      :     0.000092  f :     0.001547
      f+1     :     0.000346
      f-1     :     0.000192
      f+2     :     0.000070
      f-2     :     0.000359
      f+3     :     0.000098
      f-3     :     0.000390
  1 H s       :     0.606819  s :     0.606819
      pz      :     0.017281  p :     0.045825
      px      :     0.013543
      py      :     0.015001
  2 H s       :     0.598102  s :     0.598102
      pz      :     0.011301  p :     0.042182
      px      :     0.017837
      py      :     0.013044
  3 O s       :     3.814167  s :     3.814167
      pz      :     1.722086  p :     4.865574
      px      :     1.351116
      py      :     1.792372
      dz2     :     0.004434  d :     0.025507
      dxz     :     0.004852
      dyz     :     0.005946
      dx2y2   :     0.002538
      dxy     :     0.007737
      f0      :     0.000092  f :     0.001547
      f+1     :     0.000346
      f-1     :     0.000192
      f+2     :     0.000070
      f-2     :     0.000359
      f+3     :     0.000098
      f-3     :     0.000390
  4 H s       :     0.607409  s :     0.607409
      pz      :     0.017290  p :     0.045834
      px      :     0.013539
      py      :     0.015006
  5 H s       :     0.597779  s :     0.597779
      pz      :     0.011306  p :     0.042187
      px      :     0.017842
      py      :     0.013039
  6 O s       :     3.808783  s :     3.808783
      pz      :     1.497487  p :     4.894588
      px      :     1.572506
      py      :     1.824596
      dz2     :     0.011886  d :     0.025332
      dxz     :     0.001234
      dyz     :     0.002978
      dx2y2   :     0.002041
      dxy     :     0.007194
      f0      :     0.000273  f :     0.001492
      f+1     :     0.000381
      f-1     :     0.000170
      f+2     :     0.000057
      f-2     :     0.000056
      f+3     :     0.000065
      f-3     :     0.000489
  7 H s       :     0.612907  s :     0.612907
      pz      :     0.018771  p :     0.044714
      px      :     0.012255
      py      :     0.013688
  8 H s       :     0.576155  s :     0.576155
      pz      :     0.009969  p :     0.050300
      px      :     0.023798
      py      :     0.016533
  9 O s       :     3.809315  s :     3.809315
      pz      :     1.733466  p :     4.880786
      px      :     1.780301
      py      :     1.367019
      dz2     :     0.004428  d :     0.024854
      dxz     :     0.005674
      dyz     :     0.004980
      dx2y2   :     0.002589
      dxy     :     0.007183
      f0      :     0.000094  f :     0.001512
      f+1     :     0.000185
      f-1     :     0.000352
      f+2     :     0.000062
      f-2     :     0.000357
      f+3     :     0.000370
      f-3     :     0.000092
 10 H s       :     0.594529  s :     0.594529
      pz      :     0.017258  p :     0.045437
      px      :     0.014807
      py      :     0.013372
 11 H s       :     0.588013  s :     0.588013
      pz      :     0.011144  p :     0.041383
      px      :     0.012262
      py      :     0.017977


                     *******************************
                     * LOEWDIN POPULATION ANALYSIS *
                     *******************************

----------------------
LOEWDIN ATOMIC CHARGES
----------------------
   0 O :   -0.340610
   1 H :    0.157487
   2 H :    0.183179
   3 O :   -0.340531
   4 H :    0.157189
   5 H :    0.183339
   6 O :   -0.350659
   7 H :    0.162004
   8 H :    0.152356
   9 O :   -0.315280
  10 H :    0.162420
  11 H :    0.189105

-------------------------------
LOEWDIN REDUCED ORBITAL CHARGES
-------------------------------
  0 O s       :     3.475747  s :     3.475747
      pz      :     1.706927  p :     4.830118
      px      :     1.351269
      py      :     1.771922
      dz2     :     0.005004  d :     0.032612
      dxz     :     0.007276
      dyz     :     0.006018
      dx2y2   :     0.003979
      dxy     :     0.010335
      f0      :     0.000078  f :     0.002132
      f+1     :     0.000464
      f-1     :     0.000277
      f+2     :     0.000036
      f-2     :     0.000624
      f+3     :     0.000093
      f-3     :     0.000559
  1 H s       :     0.679733  s :     0.679733
      pz      :     0.066098  p :     0.162780
      px      :     0.043942
      py      :     0.052740
  2 H s       :     0.669174  s :     0.669174
      pz      :     0.033401  p :     0.147647
      px      :     0.070634
      py      :     0.043612
  3 O s       :     3.475763  s :     3.475763
      pz      :     1.706762  p :     4.830014
      px      :     1.351369
      py      :     1.771883
      dz2     :     0.005003  d :     0.032620
      dxz     :     0.007289
      dyz     :     0.006026
      dx2y2   :     0.003971
      dxy     :     0.010332
      f0      :     0.000078  f :     0.002133
      f+1     :     0.000464
      f-1     :     0.000277
      f+2     :     0.000036
      f-2     :     0.000625
      f+3     :     0.000093
      f-3     :     0.000559
  4 H s       :     0.680030  s :     0.680030
      pz      :     0.066103  p :     0.162782
      px      :     0.043929
      py      :     0.052750
  5 H s       :     0.669008  s :     0.669008
      pz      :     0.033399  p :     0.147653
      px      :     0.070651
      py      :     0.043603
  6 O s       :     3.467266  s :     3.467266
      pz      :     1.507007  p :     4.849622
      px      :     1.547749
      py      :     1.794865
      dz2     :     0.016149  d :     0.031642
      dxz     :     0.002159
      dyz     :     0.002441
      dx2y2   :     0.002043
      dxy     :     0.008850
      f0      :     0.000497  f :     0.002129
      f+1     :     0.000581
      f-1     :     0.000319
      f+2     :     0.000026
      f-2     :     0.000050
      f+3     :     0.000002
      f-3     :     0.000654
  7 H s       :     0.679860  s :     0.679860
      pz      :     0.079553  p :     0.158136
      px      :     0.036251
      py      :     0.042332
  8 H s       :     0.674728  s :     0.674728
      pz      :     0.029664  p :     0.172916
      px      :     0.085322
      py      :     0.057930
  9 O s       :     3.469258  s :     3.469258
      pz      :     1.710742  p :     4.811772
      px      :     1.742254
      py      :     1.358776
      dz2     :     0.005123  d :     0.032153
      dxz     :     0.005625
      dyz     :     0.007156
      dx2y2   :     0.004385
      dxy     :     0.009865
      f0      :     0.000079  f :     0.002097
      f+1     :     0.000275
      f-1     :     0.000463
      f+2     :     0.000033
      f-2     :     0.000613
      f+3     :     0.000541
      f-3     :     0.000091
 10 H s       :     0.674138  s :     0.674138
      pz      :     0.066407  p :     0.163442
      px      :     0.052734
      py      :     0.044301
 11 H s       :     0.662812  s :     0.662812
      pz      :     0.033347  p :     0.148082
      px      :     0.043432
      py      :     0.071304


                      *****************************
                      * MAYER POPULATION ANALYSIS *
                      *****************************

  NA   - Mulliken gross atomic population
  ZA   - Total nuclear charge
  QA   - Mulliken gross atomic charge
  VA   - Mayer's total valence
  BVA  - Mayer's bonded valence
  FA   - Mayer's free valence

  ATOM       NA         ZA         QA         VA         BVA        FA
  0 O      8.7070     8.0000    -0.7070     1.7673     1.7673     0.0000
  1 H      0.6526     1.0000     0.3474     0.8941     0.8941    -0.0000
  2 H      0.6403     1.0000     0.3597     0.8844     0.8844    -0.0000
  3 O      8.7068     8.0000    -0.7068     1.7673     1.7673     0.0000
  4 H      0.6532     1.0000     0.3468     0.8945     0.8945     0.0000
  5 H      0.6400     1.0000     0.3600     0.8842     0.8842    -0.0000
  6 O      8.7302     8.0000    -0.7302     1.7420     1.7420     0.0000
  7 H      0.6576     1.0000     0.3424     0.8962     0.8962     0.0000
  8 H      0.6265     1.0000     0.3735     0.8916     0.8916    -0.0000
  9 O      8.7165     8.0000    -0.7165     1.7696     1.7696     0.0000
 10 H      0.6400     1.0000     0.3600     0.8853     0.8853     0.0000
 11 H      0.6294     1.0000     0.3706     0.8758     0.8758     0.0000

  Mayer bond orders larger than 0.100000
B(  0-O ,  1-H ) :   0.8885 B(  0-O ,  2-H ) :   0.8762 B(  3-O ,  4-H ) :   0.8889 
B(  3-O ,  5-H ) :   0.8760 B(  6-O ,  7-H ) :   0.8931 B(  6-O ,  8-H ) :   0.8545 
B(  9-O , 10-H ) :   0.8778 B(  9-O , 11-H ) :   0.8674 

-------
TIMINGS
-------

Total SCF time: 0 days 0 hours 0 min 3 sec 

Total time                  ....       3.027 sec
Sum of individual times     ....       2.779 sec  ( 91.8%)

Fock matrix formation       ....       2.579 sec  ( 85.2%)
Diagonalization             ....       0.028 sec  (  0.9%)
Density matrix formation    ....       0.004 sec  (  0.1%)
Population analysis         ....       0.012 sec  (  0.4%)
Initial guess               ....       0.105 sec  (  3.5%)
Orbital Transformation      ....       0.000 sec  (  0.0%)
Orbital Orthonormalization  ....       0.000 sec  (  0.0%)
DIIS solution               ....       0.009 sec  (  0.3%)
SOSCF solution              ....       0.011 sec  (  0.4%)


           ************************************************************
           *        Program running with 6 parallel MPI-processes     *
           *              working on a common directory               *
           ************************************************************

------------------------------------------------------------------------------
                                ORCA  MP2 
------------------------------------------------------------------------------

Freezing NCore=8 chemical core electrons
MP2 will be done in the AO integral direct mode
The Q1-step will be done using symmetric double matrices
Dimension of the basis                    ...  172
Memory devoted for MP2                    ... 8000 MB   
Memory needed for all in one shot         ...   60 MB
Number of MOs that can be treated together...  408      
MP2 density construction                  ... relaxed
The MP2 gradient is requested => amplitudes will be stored on disk
Total number of MOs              ...   16
Number of MOs treated per batch  ...    3 
Number of batches necessary      ...    1 
OPERATORS   0/  0 PASS   0
-----------------------------------------------
 MP2 CORRELATION ENERGY   :     -1.024713239 Eh
-----------------------------------------------


---------------------
MP2 DENSITY FORMATION
---------------------

Completing the external part of the density      ... done
Storing the unrelaxed density                    ... done

Calculating G(D)                                 ... done
Completing the Lagrangian                        ... done
Solving the Z-vector equations                   ... 

------------------------------------------------------------------------------
                           ORCA CP-SCF CALCULATION
------------------------------------------------------------------------------

Input orbitals are from        ... 12h2o.su.etal.mol0,1,8,10-orca.engrad-mp2.def2tzvp.frozencore.gbw
Input Perturbation             ... 12h2o.su.etal.mol0,1,8,10-orca.engrad-mp2.def2tzvp.frozencore.pin.tmp
Wavefunction output            ... 12h2o.su.etal.mol0,1,8,10-orca.engrad-mp2.def2tzvp.frozencore.pout.tmp
Perturbation mode              ... Real perturbation (singlet)
Solver                         ... POPLE
Max. number of iterations      ... 128
Convergence tolerance          ... 1.000e-08
Integral handling              ... Direct
Number of perturbations        ... 1
Number of operators            ... 1
Orbital ranges used for CP-SCF:
 Operator 0:  Orbitals   0... 19  to  20...171
Variables per vector in CP-SCF ... 3040
Number of vectors sought       ... 1
     CP-SCF ITERATION   0: 
     CP-SCF ITERATION   1:      0.000456148336
     CP-SCF ITERATION   2:      0.000009102358
     CP-SCF ITERATION   3:      0.000000296233
     CP-SCF ITERATION   4:      0.000000024411
     CP-SCF ITERATION   5:      0.000000001416
                                                 ... done
Finalizing the relaxed density                   ... done
Transforming P to the AO basis                   ... done
Storing the relaxed density                      ... done

------------------------------------
ENERGY WEIGHTED DENSITY FINALIZATION
------------------------------------

Gathering the parts of the W-matrix              ...                                                      done
Forming the Z-density                            ... done
Transforming Z to the AO basis                   ... done
Calculating G(Z)                                 ... done
Finalizing the W-matrix                          ...                                                      done
Transforming W to the AO basis and storing       ... done

                *********************************************
                * UNRELAXED MP2 DENSITY POPULATION ANALYSIS *
                *********************************************

------------------------------------------------------------------------------
                           ORCA POPULATION ANALYSIS
------------------------------------------------------------------------------
Input electron density              ... 12h2o.su.etal.mol0,1,8,10-orca.engrad-mp2.def2tzvp.frozencore.pmp2ur
BaseName (.gbw .S,...)              ... 12h2o.su.etal.mol0,1,8,10-orca.engrad-mp2.def2tzvp.frozencore

                    ********************************
                    * MULLIKEN POPULATION ANALYSIS *
                    ********************************

-----------------------
MULLIKEN ATOMIC CHARGES
-----------------------
   0 O :   -0.702142
   1 H :    0.345218
   2 H :    0.357036
   3 O :   -0.701977
   4 H :    0.344617
   5 H :    0.357354
   6 O :   -0.725104
   7 H :    0.340008
   8 H :    0.370345
   9 O :   -0.711090
  10 H :    0.357837
  11 H :    0.367898
Sum of atomic charges:    0.0000000

--------------------------------
MULLIKEN REDUCED ORBITAL CHARGES
--------------------------------
  0 O s       :     3.809418  s :     3.809418
      pz      :     1.711927  p :     4.836795
      px      :     1.343541
      py      :     1.781327
      dz2     :     0.009766  d :     0.051845
      dxz     :     0.010082
      dyz     :     0.011214
      dx2y2   :     0.007850
      dxy     :     0.012932
      f0      :     0.000458  f :     0.004084
      f+1     :     0.000705
      f-1     :     0.000554
      f+2     :     0.000435
      f-2     :     0.000721
      f+3     :     0.000465
      f-3     :     0.000747
  1 H s       :     0.607329  s :     0.607329
      pz      :     0.017778  p :     0.047454
      px      :     0.013944
      py      :     0.015732
  2 H s       :     0.599197  s :     0.599197
      pz      :     0.012153  p :     0.043767
      px      :     0.017786
      py      :     0.013828
  3 O s       :     3.809374  s :     3.809374
      pz      :     1.711663  p :     4.836669
      px      :     1.343775
      py      :     1.781231
      dz2     :     0.009771  d :     0.051849
      dxz     :     0.010087
      dyz     :     0.011215
      dx2y2   :     0.007846
      dxy     :     0.012931
      f0      :     0.000458  f :     0.004085
      f+1     :     0.000705
      f-1     :     0.000554
      f+2     :     0.000435
      f-2     :     0.000721
      f+3     :     0.000465
      f-3     :     0.000747
  4 H s       :     0.607917  s :     0.607917
      pz      :     0.017787  p :     0.047466
      px      :     0.013941
      py      :     0.015737
  5 H s       :     0.598874  s :     0.598874
      pz      :     0.012157  p :     0.043771
      px      :     0.017791
      py      :     0.013823
  6 O s       :     3.803937  s :     3.803937
      pz      :     1.488654  p :     4.865149
      px      :     1.563290
      py      :     1.813204
      dz2     :     0.016905  d :     0.051966
      dxz     :     0.006612
      dyz     :     0.008402
      dx2y2   :     0.007578
      dxy     :     0.012469
      f0      :     0.000648  f :     0.004052
      f+1     :     0.000746
      f-1     :     0.000540
      f+2     :     0.000416
      f-2     :     0.000421
      f+3     :     0.000435
      f-3     :     0.000846
  7 H s       :     0.613593  s :     0.613593
      pz      :     0.018867  p :     0.046400
      px      :     0.012973
      py      :     0.014560
  8 H s       :     0.577763  s :     0.577763
      pz      :     0.010747  p :     0.051892
      px      :     0.023995
      py      :     0.017151
  9 O s       :     3.804427  s :     3.804427
      pz      :     1.722870  p :     4.850987
      px      :     1.768624
      py      :     1.359493
      dz2     :     0.009801  d :     0.051611
      dxz     :     0.011053
      dyz     :     0.010251
      dx2y2   :     0.008023
      dxy     :     0.012482
      f0      :     0.000462  f :     0.004065
      f+1     :     0.000550
      f-1     :     0.000712
      f+2     :     0.000430
      f-2     :     0.000720
      f+3     :     0.000729
      f-3     :     0.000462
 10 H s       :     0.595152  s :     0.595152
      pz      :     0.017743  p :     0.047011
      px      :     0.015510
      py      :     0.013759
 11 H s       :     0.589176  s :     0.589176
      pz      :     0.011984  p :     0.042926
      px      :     0.013015
      py      :     0.017927


                     *******************************
                     * LOEWDIN POPULATION ANALYSIS *
                     *******************************

----------------------
LOEWDIN ATOMIC CHARGES
----------------------
   0 O :   -0.337844
   1 H :    0.156386
   2 H :    0.181519
   3 O :   -0.337769
   4 H :    0.156084
   5 H :    0.181682
   6 O :   -0.348114
   7 H :    0.160621
   8 H :    0.150314
   9 O :   -0.311620
  10 H :    0.161291
  11 H :    0.187449

-------------------------------
LOEWDIN REDUCED ORBITAL CHARGES
-------------------------------
  0 O s       :     3.472001  s :     3.472001
      pz      :     1.696565  p :     4.800986
      px      :     1.343401
      py      :     1.761020
      dz2     :     0.010427  d :     0.059995
      dxz     :     0.012728
      dyz     :     0.011572
      dx2y2   :     0.009402
      dxy     :     0.015866
      f0      :     0.000454  f :     0.004861
      f+1     :     0.000869
      f-1     :     0.000659
      f+2     :     0.000408
      f-2     :     0.001029
      f+3     :     0.000473
      f-3     :     0.000968
  1 H s       :     0.677729  s :     0.677729
      pz      :     0.067351  p :     0.165885
      px      :     0.044791
      py      :     0.053743
  2 H s       :     0.667708  s :     0.667708
      pz      :     0.034232  p :     0.150772
      px      :     0.071934
      py      :     0.044606
  3 O s       :     3.472017  s :     3.472017
      pz      :     1.696401  p :     4.800888
      px      :     1.343504
      py      :     1.760983
      dz2     :     0.010426  d :     0.060002
      dxz     :     0.012740
      dyz     :     0.011579
      dx2y2   :     0.009394
      dxy     :     0.015863
      f0      :     0.000455  f :     0.004862
      f+1     :     0.000870
      f-1     :     0.000659
      f+2     :     0.000408
      f-2     :     0.001030
      f+3     :     0.000473
      f-3     :     0.000968
  4 H s       :     0.678023  s :     0.678023
      pz      :     0.067359  p :     0.165893
      px      :     0.044780
      py      :     0.053754
  5 H s       :     0.667543  s :     0.667543
      pz      :     0.034229  p :     0.150774
      px      :     0.071948
      py      :     0.044597
  6 O s       :     3.463563  s :     3.463563
      pz      :     1.497849  p :     4.820314
      px      :     1.538506
      py      :     1.783958
      dz2     :     0.021876  d :     0.059355
      dxz     :     0.007473
      dyz     :     0.007806
      dx2y2   :     0.007547
      dxy     :     0.014653
      f0      :     0.000913  f :     0.004882
      f+1     :     0.001000
      f-1     :     0.000713
      f+2     :     0.000389
      f-2     :     0.000422
      f+3     :     0.000377
      f-3     :     0.001069
  7 H s       :     0.677980  s :     0.677980
      pz      :     0.081203  p :     0.161399
      px      :     0.037035
      py      :     0.043161
  8 H s       :     0.673872  s :     0.673872
      pz      :     0.030410  p :     0.175814
      px      :     0.086520
      py      :     0.058884
  9 O s       :     3.465471  s :     3.465471
      pz      :     1.700211  p :     4.781353
      px      :     1.730332
      py      :     1.350810
      dz2     :     0.010620  d :     0.059953
      dxz     :     0.011282
      dyz     :     0.012642
      dx2y2   :     0.009912
      dxy     :     0.015497
      f0      :     0.000457  f :     0.004842
      f+1     :     0.000660
      f-1     :     0.000871
      f+2     :     0.000408
      f-2     :     0.001019
      f+3     :     0.000953
      f-3     :     0.000475
 10 H s       :     0.672256  s :     0.672256
      pz      :     0.067615  p :     0.166452
      px      :     0.053716
      py      :     0.045122
 11 H s       :     0.661427  s :     0.661427
      pz      :     0.034171  p :     0.151124
      px      :     0.044411
      py      :     0.072543


                      *****************************
                      * MAYER POPULATION ANALYSIS *
                      *****************************

  NA   - Mulliken gross atomic population
  ZA   - Total nuclear charge
  QA   - Mulliken gross atomic charge
  VA   - Mayer's total valence
  BVA  - Mayer's bonded valence
  FA   - Mayer's free valence

  ATOM       NA         ZA         QA         VA         BVA        FA
  0 O      8.7021     8.0000    -0.7021     2.0725     1.6856     0.3869
  1 H      0.6548     1.0000     0.3452     0.8998     0.8536     0.0462
  2 H      0.6430     1.0000     0.3570     0.8904     0.8423     0.0481
  3 O      8.7020     8.0000    -0.7020     2.0725     1.6856     0.3869
  4 H      0.6554     1.0000     0.3446     0.9002     0.8540     0.0463
  5 H      0.6426     1.0000     0.3574     0.8903     0.8422     0.0481
  6 O      8.7251     8.0000    -0.7251     2.0493     1.6624     0.3869
  7 H      0.6600     1.0000     0.3400     0.9022     0.8545     0.0477
  8 H      0.6297     1.0000     0.3703     0.8981     0.8528     0.0453
  9 O      8.7111     8.0000    -0.7111     2.0771     1.6886     0.3885
 10 H      0.6422     1.0000     0.3578     0.8910     0.8455     0.0454
 11 H      0.6321     1.0000     0.3679     0.8818     0.8344     0.0474

  Mayer bond orders larger than 0.100000
B(  0-O ,  1-H ) :   0.8484 B(  0-O ,  2-H ) :   0.8346 B(  3-O ,  4-H ) :   0.8488 
B(  3-O ,  5-H ) :   0.8345 B(  6-O ,  7-H ) :   0.8518 B(  6-O ,  8-H ) :   0.8167 
B(  9-O , 10-H ) :   0.8385 B(  9-O , 11-H ) :   0.8265 


                *******************************************
                * RELAXED MP2 DENSITY POPULATION ANALYSIS *
                *******************************************

------------------------------------------------------------------------------
                           ORCA POPULATION ANALYSIS
------------------------------------------------------------------------------
Input electron density              ... 12h2o.su.etal.mol0,1,8,10-orca.engrad-mp2.def2tzvp.frozencore.pmp2re
BaseName (.gbw .S,...)              ... 12h2o.su.etal.mol0,1,8,10-orca.engrad-mp2.def2tzvp.frozencore

                    ********************************
                    * MULLIKEN POPULATION ANALYSIS *
                    ********************************

-----------------------
MULLIKEN ATOMIC CHARGES
-----------------------
   0 O :   -0.688911
   1 H :    0.338990
   2 H :    0.350078
   3 O :   -0.688796
   4 H :    0.338399
   5 H :    0.350391
   6 O :   -0.708694
   7 H :    0.334009
   8 H :    0.354317
   9 O :   -0.692343
  10 H :    0.351282
  11 H :    0.361279
Sum of atomic charges:    0.0000000

--------------------------------
MULLIKEN REDUCED ORBITAL CHARGES
--------------------------------
  0 O s       :     3.814027  s :     3.814027
      pz      :     1.706458  p :     4.821318
      px      :     1.340043
      py      :     1.774816
      dz2     :     0.009476  d :     0.049554
      dxz     :     0.009494
      dyz     :     0.010932
      dx2y2   :     0.007585
      dxy     :     0.012066
      f0      :     0.000456  f :     0.004012
      f+1     :     0.000686
      f-1     :     0.000546
      f+2     :     0.000435
      f-2     :     0.000700
      f+3     :     0.000463
      f-3     :     0.000726
  1 H s       :     0.612847  s :     0.612847
      pz      :     0.017936  p :     0.048163
      px      :     0.013869
      py      :     0.016358
  2 H s       :     0.605523  s :     0.605523
      pz      :     0.013022  p :     0.044399
      px      :     0.016778
      py      :     0.014599
  3 O s       :     3.813982  s :     3.813982
      pz      :     1.706201  p :     4.821244
      px      :     1.340307
      py      :     1.774736
      dz2     :     0.009481  d :     0.049558
      dxz     :     0.009498
      dyz     :     0.010932
      dx2y2   :     0.007583
      dxy     :     0.012064
      f0      :     0.000456  f :     0.004012
      f+1     :     0.000686
      f-1     :     0.000546
      f+2     :     0.000435
      f-2     :     0.000700
      f+3     :     0.000463
      f-3     :     0.000726
  4 H s       :     0.613422  s :     0.613422
      pz      :     0.017947  p :     0.048179
      px      :     0.013867
      py      :     0.016365
  5 H s       :     0.605206  s :     0.605206
      pz      :     0.013027  p :     0.044403
      px      :     0.016783
      py      :     0.014593
  6 O s       :     3.805173  s :     3.805173
      pz      :     1.481597  p :     4.849691
      px      :     1.561311
      py      :     1.806784
      dz2     :     0.015575  d :     0.049849
      dxz     :     0.006547
      dyz     :     0.008354
      dx2y2   :     0.007544
      dxy     :     0.011829
      f0      :     0.000631  f :     0.003981
      f+1     :     0.000725
      f-1     :     0.000530
      f+2     :     0.000416
      f-2     :     0.000420
      f+3     :     0.000436
      f-3     :     0.000824
  7 H s       :     0.618829  s :     0.618829
      pz      :     0.018110  p :     0.047161
      px      :     0.013545
      py      :     0.015507
  8 H s       :     0.593210  s :     0.593210
      pz      :     0.011396  p :     0.052473
      px      :     0.023480
      py      :     0.017597
  9 O s       :     3.808191  s :     3.808191
      pz      :     1.717827  p :     4.830743
      px      :     1.756245
      py      :     1.356671
      dz2     :     0.009528  d :     0.049418
      dxz     :     0.010793
      dyz     :     0.009669
      dx2y2   :     0.007758
      dxy     :     0.011669
      f0      :     0.000460  f :     0.003992
      f+1     :     0.000541
      f-1     :     0.000694
      f+2     :     0.000430
      f-2     :     0.000699
      f+3     :     0.000708
      f-3     :     0.000460
 10 H s       :     0.601000  s :     0.601000
      pz      :     0.017865  p :     0.047718
      px      :     0.016183
      py      :     0.013669
 11 H s       :     0.595230  s :     0.595230
      pz      :     0.012827  p :     0.043491
      px      :     0.013713
      py      :     0.016950


                     *******************************
                     * LOEWDIN POPULATION ANALYSIS *
                     *******************************

----------------------
LOEWDIN ATOMIC CHARGES
----------------------
   0 O :   -0.340901
   1 H :    0.158139
   2 H :    0.182849
   3 O :   -0.340845
   4 H :    0.157835
   5 H :    0.183006
   6 O :   -0.350359
   7 H :    0.162380
   8 H :    0.145914
   9 O :   -0.309799
  10 H :    0.162949
  11 H :    0.188833

-------------------------------
LOEWDIN REDUCED ORBITAL CHARGES
-------------------------------
  0 O s       :     3.474126  s :     3.474126
      pz      :     1.695790  p :     4.803270
      px      :     1.348457
      py      :     1.759023
      dz2     :     0.010239  d :     0.058625
      dxz     :     0.012330
      dyz     :     0.011516
      dx2y2   :     0.009161
      dxy     :     0.015379
      f0      :     0.000457  f :     0.004881
      f+1     :     0.000877
      f-1     :     0.000658
      f+2     :     0.000408
      f-2     :     0.001029
      f+3     :     0.000476
      f-3     :     0.000975
  1 H s       :     0.675976  s :     0.675976
      pz      :     0.067490  p :     0.165885
      px      :     0.044032
      py      :     0.054363
  2 H s       :     0.666272  s :     0.666272
      pz      :     0.035000  p :     0.150878
      px      :     0.070477
      py      :     0.045401
  3 O s       :     3.474146  s :     3.474146
      pz      :     1.695621  p :     4.803187
      px      :     1.348570
      py      :     1.758996
      dz2     :     0.010238  d :     0.058631
      dxz     :     0.012341
      dyz     :     0.011522
      dx2y2   :     0.009154
      dxy     :     0.015376
      f0      :     0.000457  f :     0.004882
      f+1     :     0.000877
      f-1     :     0.000658
      f+2     :     0.000408
      f-2     :     0.001029
      f+3     :     0.000476
      f-3     :     0.000975
  4 H s       :     0.676262  s :     0.676262
      pz      :     0.067505  p :     0.165903
      px      :     0.044022
      py      :     0.054376
  5 H s       :     0.666115  s :     0.666115
      pz      :     0.034999  p :     0.150879
      px      :     0.070489
      py      :     0.045390
  6 O s       :     3.464959  s :     3.464959
      pz      :     1.499580  p :     4.822271
      px      :     1.540552
      py      :     1.782139
      dz2     :     0.021162  d :     0.058224
      dxz     :     0.007324
      dyz     :     0.007816
      dx2y2   :     0.007524
      dxy     :     0.014398
      f0      :     0.000914  f :     0.004904
      f+1     :     0.001009
      f-1     :     0.000711
      f+2     :     0.000391
      f-2     :     0.000421
      f+3     :     0.000377
      f-3     :     0.001081
  7 H s       :     0.675985  s :     0.675985
      pz      :     0.080362  p :     0.161635
      px      :     0.037266
      py      :     0.044007
  8 H s       :     0.677695  s :     0.677695
      pz      :     0.030775  p :     0.176392
      px      :     0.086114
      py      :     0.059503
  9 O s       :     3.467309  s :     3.467309
      pz      :     1.699489  p :     4.778875
      px      :     1.723312
      py      :     1.356074
      dz2     :     0.010464  d :     0.058754
      dxz     :     0.011248
      dyz     :     0.012260
      dx2y2   :     0.009706
      dxy     :     0.015076
      f0      :     0.000460  f :     0.004861
      f+1     :     0.000660
      f-1     :     0.000877
      f+2     :     0.000408
      f-2     :     0.001020
      f+3     :     0.000959
      f-3     :     0.000478
 10 H s       :     0.670742  s :     0.670742
      pz      :     0.067696  p :     0.166308
      px      :     0.054231
      py      :     0.044381
 11 H s       :     0.660075  s :     0.660075
      pz      :     0.034925  p :     0.151092
      px      :     0.045081
      py      :     0.071087


                      *****************************
                      * MAYER POPULATION ANALYSIS *
                      *****************************

  NA   - Mulliken gross atomic population
  ZA   - Total nuclear charge
  QA   - Mulliken gross atomic charge
  VA   - Mayer's total valence
  BVA  - Mayer's bonded valence
  FA   - Mayer's free valence

  ATOM       NA         ZA         QA         VA         BVA        FA
  0 O      8.6889     8.0000    -0.6889     2.0777     1.6956     0.3821
  1 H      0.6610     1.0000     0.3390     0.9044     0.8581     0.0463
  2 H      0.6499     1.0000     0.3501     0.8965     0.8483     0.0481
  3 O      8.6888     8.0000    -0.6888     2.0776     1.6955     0.3820
  4 H      0.6616     1.0000     0.3384     0.9047     0.8584     0.0463
  5 H      0.6496     1.0000     0.3504     0.8963     0.8482     0.0481
  6 O      8.7087     8.0000    -0.7087     2.0571     1.6749     0.3822
  7 H      0.6660     1.0000     0.3340     0.9059     0.8580     0.0479
  8 H      0.6457     1.0000     0.3543     0.9203     0.8755     0.0448
  9 O      8.6923     8.0000    -0.6923     2.0997     1.7167     0.3830
 10 H      0.6487     1.0000     0.3513     0.8959     0.8505     0.0455
 11 H      0.6387     1.0000     0.3613     0.8877     0.8403     0.0474

  Mayer bond orders larger than 0.100000
B(  0-O ,  1-H ) :   0.8527 B(  0-O ,  2-H ) :   0.8388 B(  3-O ,  4-H ) :   0.8531 
B(  3-O ,  5-H ) :   0.8387 B(  6-O ,  7-H ) :   0.8555 B(  6-O ,  8-H ) :   0.8209 
B(  9-O , 10-H ) :   0.8424 B(  9-O , 11-H ) :   0.8304 


----------------------------------
MP2 DERIVATIVE INTEGRAL GENERATION
----------------------------------


Input Wavefunction Amplitudes       ... 12h2o.su.etal.mol0,1,8,10-orca.engrad-mp2.def2tzvp.frozencore.mp2tsaa.tmp
Input Correlated Electron Density   ... 12h2o.su.etal.mol0,1,8,10-orca.engrad-mp2.def2tzvp.frozencore.pmp2re
Input Energy Weighted Density       ... 12h2o.su.etal.mol0,1,8,10-orca.engrad-mp2.def2tzvp.frozencore.wmp2.tmp
Input SCF Electron Density          ... 12h2o.su.etal.mol0,1,8,10-orca.engrad-mp2.def2tzvp.frozencore.scfp

One-Electron Terms    ...
                        ... One-Electron Terms done
Prescreening matrices              ... done

Batch handling in the gradient evaluation:
Memory available                      ... 8000.0 MB
Memory per occupied orbital in Q2     ...    3.6 MB
Memory per occupied orbital in Q3     ...    0.1 MB
Total memory requirement per |i>      ...    3.7 MB
Max. Number of orbitals possible      ...   2176
Number of orbitals treated per batch  ...     16
Number of batches to be done          ...      1
Batch   0: i=    4 ...    19

---------------------------------------
MP2 TOTAL ENERGY:     -305.260607203 Eh
---------------------------------------

The final MP2 gradient
  0:   0.02723542  -0.00711282   0.00018425
  1:   0.00250359  -0.00189505  -0.00107546
  2:  -0.02848209   0.00975117   0.00110134
  3:  -0.02709339   0.00711552   0.00006626
  4:  -0.00260971   0.00190802  -0.00111573
  5:   0.02847694  -0.00978142   0.00110437
  6:   0.00060368  -0.00378644  -0.00774979
  7:   0.00304043   0.00188955   0.00931957
  8:  -0.00471289   0.00169174  -0.00249403
  9:   0.00747259   0.02680443   0.00082038
 10:   0.00226195   0.00121419   0.00151162
 11:  -0.00869651  -0.02779888  -0.00167278

-----------------------------------
NORM OF THE MP2 GRADIENT:  0.072498
-----------------------------------

-------------------------   --------------------
FINAL SINGLE POINT ENERGY      -305.260607203300
-------------------------   --------------------


                            ***************************************
                            *     ORCA property calculations      *
                            ***************************************

                                    ---------------------
                                    Active property flags
                                    ---------------------
   (+) Dipole Moment


------------------------------------------------------------------------------
                       ORCA ELECTRIC PROPERTIES CALCULATION
------------------------------------------------------------------------------

Dipole Moment Calculation                       ... on
Quadrupole Moment Calculation                   ... off
Polarizability Calculation                      ... off
GBWName                                         ... 12h2o.su.etal.mol0,1,8,10-orca.engrad-mp2.def2tzvp.frozencore.gbw
Electron density file                           ... 12h2o.su.etal.mol0,1,8,10-orca.engrad-mp2.def2tzvp.frozencore.scfp
The origin for moment calculation is the CENTER OF MASS  = ( 0.355496,  1.206238 -0.018559)

-------------
DIPOLE MOMENT
-------------
                                X             Y             Z
Electronic contribution:     -0.02458       0.02894      -0.17712
Nuclear contribution   :     -1.13412       0.25668       1.31870
                        -----------------------------------------
Total Dipole Moment    :     -1.15870       0.28561       1.14158
                        -----------------------------------------
Magnitude (a.u.)       :      1.65147
Magnitude (Debye)      :      4.19771



--------------------
Rotational spectrum 
--------------------
 
Rotational constants in cm-1:     0.076098     0.026083     0.021071 
Rotational constants in MHz :  2281.363865   781.936377   631.692189 

 Dipole components along the rotational axes: 
x,y,z [a.u.] :     1.161894    -0.872612     0.784797 
x,y,z [Debye]:     2.953299    -2.218004     1.994797 

 

                         *** MP2 UNRELAXED DENSITY ***

------------------------------------------------------------------------------
                       ORCA ELECTRIC PROPERTIES CALCULATION
------------------------------------------------------------------------------

Dipole Moment Calculation                       ... on
Quadrupole Moment Calculation                   ... off
Polarizability Calculation                      ... off
GBWName                                         ... 12h2o.su.etal.mol0,1,8,10-orca.engrad-mp2.def2tzvp.frozencore.gbw
Electron density file                           ... 12h2o.su.etal.mol0,1,8,10-orca.engrad-mp2.def2tzvp.frozencore.pmp2ur
The origin for moment calculation is the CENTER OF MASS  = ( 0.355496,  1.206238 -0.018559)

-------------
DIPOLE MOMENT
-------------
                                X             Y             Z
Electronic contribution:     -0.01518       0.02756      -0.18941
Nuclear contribution   :     -1.13412       0.25668       1.31870
                        -----------------------------------------
Total Dipole Moment    :     -1.14929       0.28423       1.12929
                        -----------------------------------------
Magnitude (a.u.)       :      1.63614
Magnitude (Debye)      :      4.15874



--------------------
Rotational spectrum 
--------------------
 
Rotational constants in cm-1:     0.076098     0.026083     0.021071 
Rotational constants in MHz :  2281.363865   781.936377   631.692189 

 Dipole components along the rotational axes: 
x,y,z [a.u.] :     1.149324    -0.865835     0.778682 
x,y,z [Debye]:     2.921350    -2.200776     1.979251 

 

                           *** MP2 RELAXED DENSITY ***

------------------------------------------------------------------------------
                       ORCA ELECTRIC PROPERTIES CALCULATION
------------------------------------------------------------------------------

Dipole Moment Calculation                       ... on
Quadrupole Moment Calculation                   ... off
Polarizability Calculation                      ... off
GBWName                                         ... 12h2o.su.etal.mol0,1,8,10-orca.engrad-mp2.def2tzvp.frozencore.gbw
Electron density file                           ... 12h2o.su.etal.mol0,1,8,10-orca.engrad-mp2.def2tzvp.frozencore.pmp2re
The origin for moment calculation is the CENTER OF MASS  = ( 0.355496,  1.206238 -0.018559)

-------------
DIPOLE MOMENT
-------------
                                X             Y             Z
Electronic contribution:     -0.01184       0.02658      -0.19883
Nuclear contribution   :     -1.13412       0.25668       1.31870
                        -----------------------------------------
Total Dipole Moment    :     -1.14595       0.28325       1.11987
                        -----------------------------------------
Magnitude (a.u.)       :      1.62713
Magnitude (Debye)      :      4.13583



--------------------
Rotational spectrum 
--------------------
 
Rotational constants in cm-1:     0.076098     0.026083     0.021071 
Rotational constants in MHz :  2281.363865   781.936377   631.692189 

 Dipole components along the rotational axes: 
x,y,z [a.u.] :     1.140101    -0.864358     0.774985 
x,y,z [Debye]:     2.897907    -2.197025     1.969855 

 

Timings for individual modules:

Sum of individual times         ...       11.668 sec (=   0.194 min)
GTO integral calculation        ...        0.902 sec (=   0.015 min)   7.7 %
SCF iterations                  ...        3.687 sec (=   0.061 min)  31.6 %
MP2 module                      ...        7.079 sec (=   0.118 min)  60.7 %
                             ****ORCA TERMINATED NORMALLY****
TOTAL RUN TIME: 0 days 0 hours 0 minutes 12 seconds 557 msec
