
                                 *****************
                                 * O   R   C   A *
                                 *****************

           --- An Ab Initio, DFT and Semiempirical electronic structure package ---

                  #######################################################
                  #                        -***-                        #
                  #          Department of theory and spectroscopy      #
                  #               Directorship: Frank Neese             #
                  #        Max Planck Institute fuer Kohlenforschung    #
                  #                Kaiser Wilhelm Platz 1               #
                  #                 D-45470 Muelheim/Ruhr               #
                  #                      Germany                        #
                  #                                                     #
                  #                  All rights reserved                #
                  #                        -***-                        #
                  #######################################################


                         Program Version 4.2.0 -  RELEASE  -


 With contributions from (in alphabetic order):
   Daniel Aravena         : Magnetic Suceptibility
   Michael Atanasov       : Ab Initio Ligand Field Theory (pilot matlab implementation)
   Alexander A. Auer      : GIAO ZORA, VPT2
   Ute Becker             : Parallelization
   Giovanni Bistoni       : ED, misc. LED, open-shell LED, HFLED
   Martin Brehm           : Molecular dynamics
   Dmytro Bykov           : SCF Hessian
   Vijay G. Chilkuri      : MRCI spin determinant printing, contributions to CSF-ICE
   Dipayan Datta          : RHF DLPNO-CCSD density
   Achintya Kumar Dutta   : EOM-CC, STEOM-CC
   Dmitry Ganyushin       : Spin-Orbit,Spin-Spin,Magnetic field MRCI
   Miquel Garcia          : C-PCM Hessian, Gaussian charge scheme
   Yang Guo               : DLPNO-NEVPT2, CIM, IAO-localization
   Andreas Hansen         : Spin unrestricted coupled pair/coupled cluster methods
   Benjamin Helmich-Paris : CASSCF linear response (MC-RPA)
   Lee Huntington         : MR-EOM, pCC
   Robert Izsak           : Overlap fitted RIJCOSX, COSX-SCS-MP3, EOM
   Christian Kollmar      : KDIIS, OOCD, Brueckner-CCSD(T), CCSD density
   Simone Kossmann        : Meta GGA functionals, TD-DFT gradient, OOMP2, MP2 Hessian
   Martin Krupicka        : AUTO-CI
   Lucas Lang             : DCDCAS
   Dagmar Lenk            : GEPOL surface, SMD
   Dimitrios Liakos       : Extrapolation schemes; Compound Job, initial MDCI parallelization
   Dimitrios Manganas     : Further ROCIS development; embedding schemes
   Dimitrios Pantazis     : SARC Basis sets
   Taras Petrenko         : DFT Hessian,TD-DFT gradient, ASA, ECA, R-Raman, ABS, FL, XAS/XES, NRVS
   Peter Pinski           : DLPNO-MP2, DLPNO-MP2 Gradient
   Christoph Reimann      : Effective Core Potentials
   Marius Retegan         : Local ZFS, SOC
   Christoph Riplinger    : Optimizer, TS searches, QM/MM, DLPNO-CCSD(T), (RO)-DLPNO pert. Triples
   Tobias Risthaus        : Range-separated hybrids, TD-DFT gradient, RPA, STAB
   Michael Roemelt        : Original ROCIS implementation
   Masaaki Saitow         : Open-shell DLPNO-CCSD energy and density
   Barbara Sandhoefer     : DKH picture change effects
   Avijit Sen             : IP-ROCIS
   Kantharuban Sivalingam : CASSCF convergence, NEVPT2, FIC-MRCI
   Bernardo de Souza      : ESD, SOC TD-DFT
   Georgi Stoychev        : AutoAux, RI-MP2 NMR
   Willem Van den Heuvel  : Paramagnetic NMR
   Boris Wezisla          : Elementary symmetry handling
   Frank Wennmohs         : Technical directorship


 We gratefully acknowledge several colleagues who have allowed us to
 interface, adapt or use parts of their codes:
   Stefan Grimme, W. Hujo, H. Kruse,             : VdW corrections, initial TS optimization,
                  C. Bannwarth                     DFT functionals, gCP, sTDA/sTD-DF
   Ed Valeev, F. Pavosevic, A. Kumar             : LibInt (2-el integral package), F12 methods
   Garnet Chan, S. Sharma, J. Yang, R. Olivares  : DMRG
   Ulf Ekstrom                                   : XCFun DFT Library
   Mihaly Kallay                                 : mrcc  (arbitrary order and MRCC methods)
   Andreas Klamt, Michael Diedenhofen            : otool_cosmo (COSMO solvation model)
   Jiri Pittner, Ondrej Demel                    : Mk-CCSD
   Frank Weinhold                                : gennbo (NPA and NBO analysis)
   Christopher J. Cramer and Donald G. Truhlar   : smd solvation model
   Lars Goerigk                                  : TD-DFT with DH, B97 family of functionals
   V. Asgeirsson, H. Jonsson                     : NEB implementation
   FAccTs GmbH                                   : IRC, NEB, NEB-TS, Multilevel, MM, QM/MM, CI optimization
   S Lehtola, MJT Oliveira, MAL Marques          : LibXC Library


 Your calculation uses the libint2 library for the computation of 2-el integrals
 For citations please refer to: http://libint.valeyev.net

 Your ORCA version has been built with support for libXC version: 4.2.3
 For citations please refer to: https://tddft.org/programs/libxc/

 This ORCA versions uses:
   CBLAS   interface :  Fast vector & matrix operations
   LAPACKE interface :  Fast linear algebra routines
   SCALAPACK package :  Parallel linear algebra routines


----- Orbital basis set information -----
Your calculation utilizes the basis: def2-TZVP
   F. Weigend and R. Ahlrichs, Phys. Chem. Chem. Phys. 7, 3297 (2005).

================================================================================
                                        WARNINGS
                       Please study these warnings very carefully!
================================================================================


WARNING: The frozen-core approximation for MP2-gradient calculations is turned on by default.

INFO   : the flag for use of LIBINT has been found!

================================================================================
                                       INPUT FILE
================================================================================
NAME = 12h2o.su.etal.mol1-orca.engrad-mp2.def2tzvp.frozencore.inp
|  1> # 12h2o.su.etal.mol1
|  2> ! MP2 def2-TZVP EnGrad TightSCF
|  3> 
|  4> %pal
|  5>     nprocs 6
|  6> end
|  7> 
|  8> %maxcore 8000
|  9> 
| 10> %scf
| 11>     ConvForced true
| 12> end
| 13> 
| 14> *xyz 0 1
| 15> O  -1.794470000  -0.923410000   2.768350000
| 16> H  -2.338250000  -1.359750000   3.430940000
| 17> H  -0.879480000  -1.303000000   2.865760000
| 18> *
| 19> 
| 20>                          ****END OF INPUT****
================================================================================

                     *******************************
                     * Energy+Gradient Calculation *
                     *******************************

---------------------------------
CARTESIAN COORDINATES (ANGSTROEM)
---------------------------------
  O     -1.794470   -0.923410    2.768350
  H     -2.338250   -1.359750    3.430940
  H     -0.879480   -1.303000    2.865760

----------------------------
CARTESIAN COORDINATES (A.U.)
----------------------------
  NO LB      ZA    FRAG     MASS         X           Y           Z
   0 O     8.0000    0    15.999   -3.391057   -1.744992    5.231423
   1 H     1.0000    0     1.008   -4.418652   -2.569555    6.483537
   2 H     1.0000    0     1.008   -1.661976   -2.462313    5.415502

--------------------------------
INTERNAL COORDINATES (ANGSTROEM)
--------------------------------
 O      0   0   0     0.000000000000     0.00000000     0.00000000
 H      1   0   0     0.961828878803     0.00000000     0.00000000
 H      1   2   0     0.995381322057   106.21731035     0.00000000

---------------------------
INTERNAL COORDINATES (A.U.)
---------------------------
 O      0   0   0     0.000000000000     0.00000000     0.00000000
 H      1   0   0     1.817593168635     0.00000000     0.00000000
 H      1   2   0     1.880998097508   106.21731035     0.00000000

---------------------
BASIS SET INFORMATION
---------------------
There are 2 groups of distinct atoms

 Group   1 Type O   : 11s6p2d1f contracted to 5s3p2d1f pattern {62111/411/11/1}
 Group   2 Type H   : 5s1p contracted to 3s1p pattern {311/1}

Atom   0O    basis set group =>   1
Atom   1H    basis set group =>   2
Atom   2H    basis set group =>   2


           ************************************************************
           *        Program running with 6 parallel MPI-processes     *
           *              working on a common directory               *
           ************************************************************
------------------------------------------------------------------------------
                           ORCA GTO INTEGRAL CALCULATION
------------------------------------------------------------------------------

                         BASIS SET STATISTICS AND STARTUP INFO

 # of primitive gaussian shells          ...   32
 # of primitive gaussian functions       ...   62
 # of contracted shells                  ...   19
 # of contracted basis functions         ...   43
 Highest angular momentum                ...    3
 Maximum contraction depth               ...    6
 Integral package used                   ... LIBINT
 Integral threshhold            Thresh   ...  2.500e-11
 Primitive cut-off              TCut     ...  2.500e-12


------------------------------ INTEGRAL EVALUATION ----------------------------


 * One electron integrals 
 Pre-screening matrix                    ... done
 Shell pair data                         ... done (   0.000 sec)



           ************************************************************
           *        Program running with 6 parallel MPI-processes     *
           *              working on a common directory               *
           ************************************************************
-------------------------------------------------------------------------------
                                 ORCA SCF
-------------------------------------------------------------------------------

------------
SCF SETTINGS
------------
Hamiltonian:
 Ab initio Hamiltonian  Method          .... Hartree-Fock(GTOs)


General Settings:
 Integral files         IntName         .... 12h2o.su.etal.mol1-orca.engrad-mp2.def2tzvp.frozencore
 Hartree-Fock type      HFTyp           .... RHF
 Total Charge           Charge          ....    0
 Multiplicity           Mult            ....    1
 Number of Electrons    NEL             ....   10
 Basis Dimension        Dim             ....   43
 Nuclear Repulsion      ENuc            ....      8.9925196440 Eh

Convergence Acceleration:
 DIIS                   CNVDIIS         .... on
   Start iteration      DIISMaxIt       ....    12
   Startup error        DIISStart       ....  0.200000
   # of expansion vecs  DIISMaxEq       ....     5
   Bias factor          DIISBfac        ....   1.050
   Max. coefficient     DIISMaxC        ....  10.000
 Newton-Raphson         CNVNR           .... off
 SOSCF                  CNVSOSCF        .... on
   Start iteration      SOSCFMaxIt      ....   150
   Startup grad/error   SOSCFStart      ....  0.003300
 Level Shifting         CNVShift        .... on
   Level shift para.    LevelShift      ....    0.2500
   Turn off err/grad.   ShiftErr        ....    0.0010
 Zerner damping         CNVZerner       .... off
 Static damping         CNVDamp         .... on
   Fraction old density DampFac         ....    0.7000
   Max. Damping (<1)    DampMax         ....    0.9800
   Min. Damping (>=0)   DampMin         ....    0.0000
   Turn off err/grad.   DampErr         ....    0.1000
 Fernandez-Rico         CNVRico         .... off

SCF Procedure:
 Maximum # iterations   MaxIter         ....   125
 SCF integral mode      SCFMode         .... Direct
   Integral package                     .... LIBINT
 Reset frequency        DirectResetFreq ....    20
 Integral Threshold     Thresh          ....  2.500e-11 Eh
 Primitive CutOff       TCut            ....  2.500e-12 Eh

Convergence Tolerance:
 Convergence Check Mode ConvCheckMode   .... Total+1el-Energy
 Convergence forced     ConvForced      .... 1
 Energy Change          TolE            ....  1.000e-08 Eh
 1-El. energy change                    ....  1.000e-05 Eh
 Orbital Gradient       TolG            ....  1.000e-05
 Orbital Rotation angle TolX            ....  1.000e-05
 DIIS Error             TolErr          ....  5.000e-07


Diagonalization of the overlap matrix:
Smallest eigenvalue                        ... 9.021e-03
Time for diagonalization                   ...    0.049 sec
Threshold for overlap eigenvalues          ... 1.000e-08
Number of eigenvalues below threshold      ... 0
Time for construction of square roots      ...    0.001 sec
Total time needed                          ...    0.049 sec

-------------------
DFT GRID GENERATION
-------------------

General Integration Accuracy     IntAcc      ...  4.340
Radial Grid Type                 RadialGrid  ... Gauss-Chebyshev
Angular Grid (max. acc.)         AngularGrid ... Lebedev-110
Angular grid pruning method      GridPruning ... 3 (G Style)
Weight generation scheme         WeightScheme... Becke
Basis function cutoff            BFCut       ...    1.0000e-11
Integration weight cutoff        WCut        ...    1.0000e-14
Grids for H and He will be reduced by one unit

# of grid points (after initial pruning)     ...   3304 (   0.0 sec)
# of grid points (after weights+screening)   ...   3290 (   0.0 sec)
nearest neighbour list constructed           ...    0.0 sec
Grid point re-assignment to atoms done       ...    0.0 sec
Grid point division into batches done        ...    0.0 sec
Reduced shell lists constructed in    0.0 sec

Total number of grid points                  ...     3290
Total number of batches                      ...       53
Average number of points per batch           ...       62
Average number of grid points per atom       ...     1097
Average number of shells per batch           ...    15.00 (78.95%)
Average number of basis functions per batch  ...    34.60 (80.47%)
Average number of large shells per batch     ...    14.40 (96.00%)
Average number of large basis fcns per batch ...    33.60 (97.11%)
Maximum spatial batch extension              ...  16.16, 18.30, 16.08 au
Average spatial batch extension              ...   1.11,  1.17,  1.17 au

Time for grid setup =    0.143 sec

------------------------------
INITIAL GUESS: MODEL POTENTIAL
------------------------------
Loading Hartree-Fock densities                     ... done
Calculating cut-offs                               ... done
Setting up the integral package                    ... done
Initializing the effective Hamiltonian             ... done
Starting the Coulomb interaction                   ... done (   0.0 sec)
Reading the grid                                   ... done
Mapping shells                                     ... done
Starting the XC term evaluation                    ... done (   0.0 sec)
Transforming the Hamiltonian                       ... done (   0.0 sec)
Diagonalizing the Hamiltonian                      ... done (   0.0 sec)
Back transforming the eigenvectors                 ... done (   0.0 sec)
Now organizing SCF variables                       ... done
                      ------------------
                      INITIAL GUESS DONE (   0.2 sec)
                      ------------------
--------------
SCF ITERATIONS
--------------
ITER       Energy         Delta-E        Max-DP      RMS-DP      [F,P]     Damp
               ***  Starting incremental Fock matrix formation  ***
  0    -75.9544234019   0.000000000000 0.04269159  0.00245682  0.3463035 0.7000
  1    -75.9950972925  -0.040673890578 0.02819002  0.00168497  0.2157624 0.7000
                               ***Turning on DIIS***
  2    -76.0161977906  -0.021100498161 0.01637962  0.00091383  0.1638427 0.7000
  3    -76.1937438995  -0.177546108861 0.00757035  0.00038760  0.1219101 0.7000
  4    -76.1565543251   0.037189574386 0.01669001  0.00088072  0.0862350 0.0000
  5    -76.0647688258   0.091785499275 0.00184235  0.00014104  0.0052407 0.0000
                      *** Initiating the SOSCF procedure ***
                           *** Shutting down DIIS ***
                      *** Re-Reading the Fockian *** 
                      *** Removing any level shift *** 
ITER      Energy       Delta-E        Grad      Rot      Max-DP    RMS-DP
  6    -76.05838212   0.0063867062  0.001182  0.001182  0.000962  0.000081
               *** Restarting incremental Fock matrix formation ***
  7    -76.05637936   0.0020027636  0.000390  0.000557  0.000293  0.000035
  8    -76.05638069  -0.0000013318  0.000232  0.000423  0.000372  0.000029
  9    -76.05638100  -0.0000003156  0.000072  0.000059  0.000073  0.000005
 10    -76.05638103  -0.0000000262  0.000008  0.000008  0.000007  0.000001
 11    -76.05638103  -0.0000000005  0.000003  0.000004  0.000003  0.000000
                 **** Energy Check signals convergence ****
              ***Rediagonalizing the Fockian in SOSCF/NRSCF***

               *****************************************************
               *                     SUCCESS                       *
               *           SCF CONVERGED AFTER  12 CYCLES          *
               *****************************************************


----------------
TOTAL SCF ENERGY
----------------

Total Energy       :          -76.05638103 Eh           -2069.59934 eV

Components:
Nuclear Repulsion  :            8.99251964 Eh             244.69890 eV
Electronic Energy  :          -85.04890067 Eh           -2314.29824 eV
One Electron Energy:         -122.72416612 Eh           -3339.49434 eV
Two Electron Energy:           37.67526545 Eh            1025.19609 eV

Virial components:
Potential Energy   :         -151.97728777 Eh           -4135.51225 eV
Kinetic Energy     :           75.92090674 Eh            2065.91290 eV
Virial Ratio       :            2.00178441


---------------
SCF CONVERGENCE
---------------

  Last Energy change         ...   -7.3115e-11  Tolerance :   1.0000e-08
  Last MAX-Density change    ...    6.6807e-07  Tolerance :   1.0000e-07
  Last RMS-Density change    ...    4.7501e-08  Tolerance :   5.0000e-09
  Last Orbital Gradient      ...    4.8590e-07  Tolerance :   1.0000e-05
  Last Orbital Rotation      ...    7.3832e-07  Tolerance :   1.0000e-05

             **** THE GBW FILE WAS UPDATED (12h2o.su.etal.mol1-orca.engrad-mp2.def2tzvp.frozencore.gbw) ****
             **** DENSITY FILE WAS UPDATED (12h2o.su.etal.mol1-orca.engrad-mp2.def2tzvp.frozencore.scfp) ****
             **** ENERGY FILE WAS UPDATED (12h2o.su.etal.mol1-orca.engrad-mp2.def2tzvp.frozencore.en.tmp) ****
             **** THE GBW FILE WAS UPDATED (12h2o.su.etal.mol1-orca.engrad-mp2.def2tzvp.frozencore.gbw) ****
             **** DENSITY FILE WAS UPDATED (12h2o.su.etal.mol1-orca.engrad-mp2.def2tzvp.frozencore.scfp) ****
----------------
ORBITAL ENERGIES
----------------

  NO   OCC          E(Eh)            E(eV) 
   0   2.0000     -20.562685      -559.5391 
   1   2.0000      -1.338019       -36.4094 
   2   2.0000      -0.706452       -19.2235 
   3   2.0000      -0.573838       -15.6149 
   4   2.0000      -0.505821       -13.7641 
   5   0.0000       0.125562         3.4167 
   6   0.0000       0.195099         5.3089 
   7   0.0000       0.520417        14.1613 
   8   0.0000       0.561850        15.2887 
   9   0.0000       0.597975        16.2717 
  10   0.0000       0.630658        17.1611 
  11   0.0000       0.764943        20.8152 
  12   0.0000       0.770060        20.9544 
  13   0.0000       1.422711        38.7139 
  14   0.0000       1.432335        38.9758 
  15   0.0000       1.553558        42.2745 
  16   0.0000       1.786196        48.6049 
  17   0.0000       1.896119        51.5960 
  18   0.0000       2.002833        54.4998 
  19   0.0000       2.292096        62.3711 
  20   0.0000       2.323907        63.2367 
  21   0.0000       2.390316        65.0438 
  22   0.0000       2.574540        70.0568 
  23   0.0000       2.697660        73.4071 
  24   0.0000       2.905653        79.0668 
  25   0.0000       2.974546        80.9415 
  26   0.0000       3.021874        82.2294 
  27   0.0000       3.138464        85.4019 
  28   0.0000       3.979519       108.2882 
  29   0.0000       4.308910       117.2514 
  30   0.0000       5.551642       151.0679 
  31   0.0000       5.640678       153.4907 
  32   0.0000       5.813637       158.1971 
  33   0.0000       5.849601       159.1757 
  34   0.0000       5.917882       161.0337 
  35   0.0000       6.431092       174.9989 
  36   0.0000       6.699136       182.2928 
  37   0.0000       6.822524       185.6503 
  38   0.0000       6.889749       187.4796 
  39   0.0000       6.924247       188.4184 
  40   0.0000       7.374698       200.6757 
  41   0.0000       7.483260       203.6298 
  42   0.0000      44.815639      1219.4955 

                    ********************************
                    * MULLIKEN POPULATION ANALYSIS *
                    ********************************

-----------------------
MULLIKEN ATOMIC CHARGES
-----------------------
   0 O :   -0.697860
   1 H :    0.347118
   2 H :    0.350742
Sum of atomic charges:    0.0000000

--------------------------------
MULLIKEN REDUCED ORBITAL CHARGES
--------------------------------
  0 O s       :     3.813293  s :     3.813293
      pz      :     1.721428  p :     4.857364
      px      :     1.342737
      py      :     1.793198
      dz2     :     0.004426  d :     0.025649
      dxz     :     0.004838
      dyz     :     0.006019
      dx2y2   :     0.002544
      dxy     :     0.007822
      f0      :     0.000092  f :     0.001554
      f+1     :     0.000346
      f-1     :     0.000193
      f+2     :     0.000070
      f-2     :     0.000361
      f+3     :     0.000098
      f-3     :     0.000393
  1 H s       :     0.607006  s :     0.607006
      pz      :     0.017219  p :     0.045876
      px      :     0.013576
      py      :     0.015081
  2 H s       :     0.606904  s :     0.606904
      pz      :     0.011457  p :     0.042355
      px      :     0.017744
      py      :     0.013153


                     *******************************
                     * LOEWDIN POPULATION ANALYSIS *
                     *******************************

----------------------
LOEWDIN ATOMIC CHARGES
----------------------
   0 O :   -0.337670
   1 H :    0.157221
   2 H :    0.180449

-------------------------------
LOEWDIN REDUCED ORBITAL CHARGES
-------------------------------
  0 O s       :     3.476456  s :     3.476456
      pz      :     1.706677  p :     4.826088
      px      :     1.347673
      py      :     1.771738
      dz2     :     0.005073  d :     0.032976
      dxz     :     0.007258
      dyz     :     0.006071
      dx2y2   :     0.004056
      dxy     :     0.010519
      f0      :     0.000079  f :     0.002150
      f+1     :     0.000469
      f-1     :     0.000279
      f+2     :     0.000036
      f-2     :     0.000624
      f+3     :     0.000095
      f-3     :     0.000569
  1 H s       :     0.680025  s :     0.680025
      pz      :     0.066099  p :     0.162754
      px      :     0.043854
      py      :     0.052801
  2 H s       :     0.672398  s :     0.672398
      pz      :     0.033529  p :     0.147153
      px      :     0.069995
      py      :     0.043628


                      *****************************
                      * MAYER POPULATION ANALYSIS *
                      *****************************

  NA   - Mulliken gross atomic population
  ZA   - Total nuclear charge
  QA   - Mulliken gross atomic charge
  VA   - Mayer's total valence
  BVA  - Mayer's bonded valence
  FA   - Mayer's free valence

  ATOM       NA         ZA         QA         VA         BVA        FA
  0 O      8.6979     8.0000    -0.6979     1.7729     1.7729     0.0000
  1 H      0.6529     1.0000     0.3471     0.8941     0.8941     0.0000
  2 H      0.6493     1.0000     0.3507     0.8894     0.8894     0.0000

  Mayer bond orders larger than 0.100000
B(  0-O ,  1-H ) :   0.8888 B(  0-O ,  2-H ) :   0.8841 

-------
TIMINGS
-------

Total SCF time: 0 days 0 hours 0 min 1 sec 

Total time                  ....       1.904 sec
Sum of individual times     ....       1.590 sec  ( 83.5%)

Fock matrix formation       ....       1.338 sec  ( 70.3%)
Diagonalization             ....       0.016 sec  (  0.8%)
Density matrix formation    ....       0.001 sec  (  0.1%)
Population analysis         ....       0.001 sec  (  0.0%)
Initial guess               ....       0.087 sec  (  4.6%)
Orbital Transformation      ....       0.000 sec  (  0.0%)
Orbital Orthonormalization  ....       0.000 sec  (  0.0%)
DIIS solution               ....       0.002 sec  (  0.1%)
SOSCF solution              ....       0.002 sec  (  0.1%)


           ************************************************************
           *        Program running with 6 parallel MPI-processes     *
           *              working on a common directory               *
           ************************************************************

------------------------------------------------------------------------------
                                ORCA  MP2 
------------------------------------------------------------------------------

Freezing NCore=2 chemical core electrons
MP2 will be done in the AO integral direct mode
The Q1-step will be done using symmetric double matrices
Dimension of the basis                    ...   43
Memory devoted for MP2                    ... 8000 MB   
Memory needed for all in one shot         ...    1 MB
Number of MOs that can be treated together... 25776      
MP2 density construction                  ... relaxed
The MP2 gradient is requested => amplitudes will be stored on disk
Total number of MOs              ...    4
Number of MOs treated per batch  ...    1 
Number of batches necessary      ...    1 
OPERATORS   0/  0 PASS   0
-----------------------------------------------
 MP2 CORRELATION ENERGY   :     -0.255571408 Eh
-----------------------------------------------


---------------------
MP2 DENSITY FORMATION
---------------------

Completing the external part of the density      ... done
Storing the unrelaxed density                    ... done

Calculating G(D)                                 ... done
Completing the Lagrangian                        ... done
Solving the Z-vector equations                   ... 

------------------------------------------------------------------------------
                           ORCA CP-SCF CALCULATION
------------------------------------------------------------------------------

Input orbitals are from        ... 12h2o.su.etal.mol1-orca.engrad-mp2.def2tzvp.frozencore.gbw
Input Perturbation             ... 12h2o.su.etal.mol1-orca.engrad-mp2.def2tzvp.frozencore.pin.tmp
Wavefunction output            ... 12h2o.su.etal.mol1-orca.engrad-mp2.def2tzvp.frozencore.pout.tmp
Perturbation mode              ... Real perturbation (singlet)
Solver                         ... POPLE
Max. number of iterations      ... 128
Convergence tolerance          ... 1.000e-08
Integral handling              ... Direct
Number of perturbations        ... 1
Number of operators            ... 1
Orbital ranges used for CP-SCF:
 Operator 0:  Orbitals   0...  4  to   5... 42
Variables per vector in CP-SCF ... 190
Number of vectors sought       ... 1
     CP-SCF ITERATION   0: 
     CP-SCF ITERATION   1:      0.000108630323
     CP-SCF ITERATION   2:      0.000001958761
     CP-SCF ITERATION   3:      0.000000051324
     CP-SCF ITERATION   4:      0.000000000681
                                                 ... done
Finalizing the relaxed density                   ... done
Transforming P to the AO basis                   ... done
Storing the relaxed density                      ... done

------------------------------------
ENERGY WEIGHTED DENSITY FINALIZATION
------------------------------------

Gathering the parts of the W-matrix              ...                                                      done
Forming the Z-density                            ... done
Transforming Z to the AO basis                   ... done
Calculating G(Z)                                 ... done
Finalizing the W-matrix                          ...                                                      done
Transforming W to the AO basis and storing       ... done

                *********************************************
                * UNRELAXED MP2 DENSITY POPULATION ANALYSIS *
                *********************************************

------------------------------------------------------------------------------
                           ORCA POPULATION ANALYSIS
------------------------------------------------------------------------------
Input electron density              ... 12h2o.su.etal.mol1-orca.engrad-mp2.def2tzvp.frozencore.pmp2ur
BaseName (.gbw .S,...)              ... 12h2o.su.etal.mol1-orca.engrad-mp2.def2tzvp.frozencore

                    ********************************
                    * MULLIKEN POPULATION ANALYSIS *
                    ********************************

-----------------------
MULLIKEN ATOMIC CHARGES
-----------------------
   0 O :   -0.693153
   1 H :    0.344978
   2 H :    0.348175
Sum of atomic charges:    0.0000000

--------------------------------
MULLIKEN REDUCED ORBITAL CHARGES
--------------------------------
  0 O s       :     3.808478  s :     3.808478
      pz      :     1.711019  p :     4.828640
      px      :     1.335498
      py      :     1.782123
      dz2     :     0.009758  d :     0.051945
      dxz     :     0.010068
      dyz     :     0.011282
      dx2y2   :     0.007844
      dxy     :     0.012993
      f0      :     0.000459  f :     0.004090
      f+1     :     0.000704
      f-1     :     0.000556
      f+2     :     0.000435
      f-2     :     0.000723
      f+3     :     0.000465
      f-3     :     0.000749
  1 H s       :     0.607509  s :     0.607509
      pz      :     0.017720  p :     0.047513
      px      :     0.013976
      py      :     0.015817
  2 H s       :     0.607856  s :     0.607856
      pz      :     0.012318  p :     0.043970
      px      :     0.017707
      py      :     0.013944


                     *******************************
                     * LOEWDIN POPULATION ANALYSIS *
                     *******************************

----------------------
LOEWDIN ATOMIC CHARGES
----------------------
   0 O :   -0.334966
   1 H :    0.156120
   2 H :    0.178845

-------------------------------
LOEWDIN REDUCED ORBITAL CHARGES
-------------------------------
  0 O s       :     3.472692  s :     3.472692
      pz      :     1.696330  p :     4.797087
      px      :     1.339860
      py      :     1.760897
      dz2     :     0.010487  d :     0.060308
      dxz     :     0.012701
      dyz     :     0.011616
      dx2y2   :     0.009468
      dxy     :     0.016035
      f0      :     0.000455  f :     0.004879
      f+1     :     0.000874
      f-1     :     0.000660
      f+2     :     0.000408
      f-2     :     0.001029
      f+3     :     0.000475
      f-3     :     0.000978
  1 H s       :     0.678016  s :     0.678016
      pz      :     0.067351  p :     0.165863
      px      :     0.044700
      py      :     0.053812
  2 H s       :     0.670799  s :     0.670799
      pz      :     0.034368  p :     0.150356
      px      :     0.071346
      py      :     0.044642


                      *****************************
                      * MAYER POPULATION ANALYSIS *
                      *****************************

  NA   - Mulliken gross atomic population
  ZA   - Total nuclear charge
  QA   - Mulliken gross atomic charge
  VA   - Mayer's total valence
  BVA  - Mayer's bonded valence
  FA   - Mayer's free valence

  ATOM       NA         ZA         QA         VA         BVA        FA
  0 O      8.6932     8.0000    -0.6932     2.0767     1.6907     0.3860
  1 H      0.6550     1.0000     0.3450     0.8999     0.8537     0.0462
  2 H      0.6518     1.0000     0.3482     0.8954     0.8468     0.0486

  Mayer bond orders larger than 0.100000
B(  0-O ,  1-H ) :   0.8488 B(  0-O ,  2-H ) :   0.8419 


                *******************************************
                * RELAXED MP2 DENSITY POPULATION ANALYSIS *
                *******************************************

------------------------------------------------------------------------------
                           ORCA POPULATION ANALYSIS
------------------------------------------------------------------------------
Input electron density              ... 12h2o.su.etal.mol1-orca.engrad-mp2.def2tzvp.frozencore.pmp2re
BaseName (.gbw .S,...)              ... 12h2o.su.etal.mol1-orca.engrad-mp2.def2tzvp.frozencore

                    ********************************
                    * MULLIKEN POPULATION ANALYSIS *
                    ********************************

-----------------------
MULLIKEN ATOMIC CHARGES
-----------------------
   0 O :   -0.680764
   1 H :    0.338603
   2 H :    0.342160
Sum of atomic charges:    0.0000000

--------------------------------
MULLIKEN REDUCED ORBITAL CHARGES
--------------------------------
  0 O s       :     3.813188  s :     3.813188
      pz      :     1.705501  p :     4.813913
      px      :     1.332123
      py      :     1.776289
      dz2     :     0.009465  d :     0.049645
      dxz     :     0.009484
      dyz     :     0.011002
      dx2y2   :     0.007583
      dxy     :     0.012110
      f0      :     0.000457  f :     0.004018
      f+1     :     0.000685
      f-1     :     0.000547
      f+2     :     0.000436
      f-2     :     0.000702
      f+3     :     0.000463
      f-3     :     0.000728
  1 H s       :     0.613157  s :     0.613157
      pz      :     0.017866  p :     0.048239
      px      :     0.013895
      py      :     0.016479
  2 H s       :     0.613220  s :     0.613220
      pz      :     0.013212  p :     0.044620
      px      :     0.016710
      py      :     0.014698


                     *******************************
                     * LOEWDIN POPULATION ANALYSIS *
                     *******************************

----------------------
LOEWDIN ATOMIC CHARGES
----------------------
   0 O :   -0.338375
   1 H :    0.157719
   2 H :    0.180656

-------------------------------
LOEWDIN REDUCED ORBITAL CHARGES
-------------------------------
  0 O s       :     3.474882  s :     3.474882
      pz      :     1.695560  p :     4.799669
      px      :     1.344987
      py      :     1.759122
      dz2     :     0.010298  d :     0.058925
      dxz     :     0.012305
      dyz     :     0.011561
      dx2y2   :     0.009228
      dxy     :     0.015534
      f0      :     0.000457  f :     0.004898
      f+1     :     0.000882
      f-1     :     0.000660
      f+2     :     0.000409
      f-2     :     0.001029
      f+3     :     0.000477
      f-3     :     0.000985
  1 H s       :     0.676378  s :     0.676378
      pz      :     0.067493  p :     0.165903
      px      :     0.043926
      py      :     0.054484
  2 H s       :     0.668794  s :     0.668794
      pz      :     0.035161  p :     0.150550
      px      :     0.069934
      py      :     0.045455


                      *****************************
                      * MAYER POPULATION ANALYSIS *
                      *****************************

  NA   - Mulliken gross atomic population
  ZA   - Total nuclear charge
  QA   - Mulliken gross atomic charge
  VA   - Mayer's total valence
  BVA  - Mayer's bonded valence
  FA   - Mayer's free valence

  ATOM       NA         ZA         QA         VA         BVA        FA
  0 O      8.6808     8.0000    -0.6808     2.0807     1.6995     0.3812
  1 H      0.6614     1.0000     0.3386     0.9045     0.8583     0.0463
  2 H      0.6578     1.0000     0.3422     0.8999     0.8512     0.0487

  Mayer bond orders larger than 0.100000
B(  0-O ,  1-H ) :   0.8533 B(  0-O ,  2-H ) :   0.8462 


----------------------------------
MP2 DERIVATIVE INTEGRAL GENERATION
----------------------------------


Input Wavefunction Amplitudes       ... 12h2o.su.etal.mol1-orca.engrad-mp2.def2tzvp.frozencore.mp2tsaa.tmp
Input Correlated Electron Density   ... 12h2o.su.etal.mol1-orca.engrad-mp2.def2tzvp.frozencore.pmp2re
Input Energy Weighted Density       ... 12h2o.su.etal.mol1-orca.engrad-mp2.def2tzvp.frozencore.wmp2.tmp
Input SCF Electron Density          ... 12h2o.su.etal.mol1-orca.engrad-mp2.def2tzvp.frozencore.scfp

One-Electron Terms    ...
                        ... One-Electron Terms done
Prescreening matrices              ... done

Batch handling in the gradient evaluation:
Memory available                      ... 8000.0 MB
Memory per occupied orbital in Q2     ...    0.1 MB
Memory per occupied orbital in Q3     ...    0.0 MB
Total memory requirement per |i>      ...    0.1 MB
Max. Number of orbitals possible      ... 110341
Number of orbitals treated per batch  ...      4
Number of batches to be done          ...      1
Batch   0: i=    1 ...     4

---------------------------------------
MP2 TOTAL ENERGY:      -76.311952438 Eh
---------------------------------------

The final MP2 gradient
  0:  -0.02717496   0.00811395   0.00054626
  1:  -0.00262802   0.00187960  -0.00113896
  2:   0.02980298  -0.00999356   0.00059271

-----------------------------------
NORM OF THE MP2 GRADIENT:  0.042483
-----------------------------------

-------------------------   --------------------
FINAL SINGLE POINT ENERGY       -76.311952438219
-------------------------   --------------------


                            ***************************************
                            *     ORCA property calculations      *
                            ***************************************

                                    ---------------------
                                    Active property flags
                                    ---------------------
   (+) Dipole Moment


------------------------------------------------------------------------------
                       ORCA ELECTRIC PROPERTIES CALCULATION
------------------------------------------------------------------------------

Dipole Moment Calculation                       ... on
Quadrupole Moment Calculation                   ... off
Polarizability Calculation                      ... off
GBWName                                         ... 12h2o.su.etal.mol1-orca.engrad-mp2.def2tzvp.frozencore.gbw
Electron density file                           ... 12h2o.su.etal.mol1-orca.engrad-mp2.def2tzvp.frozencore.scfp
The origin for moment calculation is the CENTER OF MASS  = (-3.351806, -1.831266  5.311783)

-------------
DIPOLE MOMENT
-------------
                                X             Y             Z
Electronic contribution:     -0.05015       0.09221      -0.08307
Nuclear contribution   :      0.30898      -0.67915       0.63259
                        -----------------------------------------
Total Dipole Moment    :      0.25883      -0.58693       0.54953
                        -----------------------------------------
Magnitude (a.u.)       :      0.84467
Magnitude (Debye)      :      2.14698



--------------------
Rotational spectrum 
--------------------
 
Rotational constants in cm-1:    27.338640    13.631097     9.095876 
Rotational constants in MHz : 819591.815672 408649.993287 272687.501378 

 Dipole components along the rotational axes: 
x,y,z [a.u.] :    -0.051554     0.843096    -0.000000 
x,y,z [Debye]:    -0.131041     2.142979    -0.000000 

 

                         *** MP2 UNRELAXED DENSITY ***

------------------------------------------------------------------------------
                       ORCA ELECTRIC PROPERTIES CALCULATION
------------------------------------------------------------------------------

Dipole Moment Calculation                       ... on
Quadrupole Moment Calculation                   ... off
Polarizability Calculation                      ... off
GBWName                                         ... 12h2o.su.etal.mol1-orca.engrad-mp2.def2tzvp.frozencore.gbw
Electron density file                           ... 12h2o.su.etal.mol1-orca.engrad-mp2.def2tzvp.frozencore.pmp2ur
The origin for moment calculation is the CENTER OF MASS  = (-3.351806, -1.831266  5.311783)

-------------
DIPOLE MOMENT
-------------
                                X             Y             Z
Electronic contribution:     -0.05374       0.09891      -0.08911
Nuclear contribution   :      0.30898      -0.67915       0.63259
                        -----------------------------------------
Total Dipole Moment    :      0.25524      -0.58024       0.54348
                        -----------------------------------------
Magnitude (a.u.)       :      0.83499
Magnitude (Debye)      :      2.12236



--------------------
Rotational spectrum 
--------------------
 
Rotational constants in cm-1:    27.338640    13.631097     9.095876 
Rotational constants in MHz : 819591.815672 408649.993287 272687.501378 

 Dipole components along the rotational axes: 
x,y,z [a.u.] :    -0.050291     0.833470    -0.000000 
x,y,z [Debye]:    -0.127830     2.118511    -0.000000 

 

                           *** MP2 RELAXED DENSITY ***

------------------------------------------------------------------------------
                       ORCA ELECTRIC PROPERTIES CALCULATION
------------------------------------------------------------------------------

Dipole Moment Calculation                       ... on
Quadrupole Moment Calculation                   ... off
Polarizability Calculation                      ... off
GBWName                                         ... 12h2o.su.etal.mol1-orca.engrad-mp2.def2tzvp.frozencore.gbw
Electron density file                           ... 12h2o.su.etal.mol1-orca.engrad-mp2.def2tzvp.frozencore.pmp2re
The origin for moment calculation is the CENTER OF MASS  = (-3.351806, -1.831266  5.311783)

-------------
DIPOLE MOMENT
-------------
                                X             Y             Z
Electronic contribution:     -0.05625       0.10600      -0.09596
Nuclear contribution   :      0.30898      -0.67915       0.63259
                        -----------------------------------------
Total Dipole Moment    :      0.25273      -0.57315       0.53663
                        -----------------------------------------
Magnitude (a.u.)       :      0.82483
Magnitude (Debye)      :      2.09655



--------------------
Rotational spectrum 
--------------------
 
Rotational constants in cm-1:    27.338640    13.631097     9.095876 
Rotational constants in MHz : 819591.815672 408649.993287 272687.501378 

 Dipole components along the rotational axes: 
x,y,z [a.u.] :    -0.050317     0.823294    -0.000000 
x,y,z [Debye]:    -0.127895     2.092646    -0.000000 

 

Timings for individual modules:

Sum of individual times         ...       22.441 sec (=   0.374 min)
GTO integral calculation        ...        6.201 sec (=   0.103 min)  27.6 %
SCF iterations                  ...        6.877 sec (=   0.115 min)  30.6 %
MP2 module                      ...        9.363 sec (=   0.156 min)  41.7 %
                             ****ORCA TERMINATED NORMALLY****
TOTAL RUN TIME: 0 days 0 hours 0 minutes 26 seconds 404 msec
