
                                 *****************
                                 * O   R   C   A *
                                 *****************

           --- An Ab Initio, DFT and Semiempirical electronic structure package ---

                  #######################################################
                  #                        -***-                        #
                  #          Department of theory and spectroscopy      #
                  #               Directorship: Frank Neese             #
                  #        Max Planck Institute fuer Kohlenforschung    #
                  #                Kaiser Wilhelm Platz 1               #
                  #                 D-45470 Muelheim/Ruhr               #
                  #                      Germany                        #
                  #                                                     #
                  #                  All rights reserved                #
                  #                        -***-                        #
                  #######################################################


                         Program Version 4.2.0 -  RELEASE  -


 With contributions from (in alphabetic order):
   Daniel Aravena         : Magnetic Suceptibility
   Michael Atanasov       : Ab Initio Ligand Field Theory (pilot matlab implementation)
   Alexander A. Auer      : GIAO ZORA, VPT2
   Ute Becker             : Parallelization
   Giovanni Bistoni       : ED, misc. LED, open-shell LED, HFLED
   Martin Brehm           : Molecular dynamics
   Dmytro Bykov           : SCF Hessian
   Vijay G. Chilkuri      : MRCI spin determinant printing, contributions to CSF-ICE
   Dipayan Datta          : RHF DLPNO-CCSD density
   Achintya Kumar Dutta   : EOM-CC, STEOM-CC
   Dmitry Ganyushin       : Spin-Orbit,Spin-Spin,Magnetic field MRCI
   Miquel Garcia          : C-PCM Hessian, Gaussian charge scheme
   Yang Guo               : DLPNO-NEVPT2, CIM, IAO-localization
   Andreas Hansen         : Spin unrestricted coupled pair/coupled cluster methods
   Benjamin Helmich-Paris : CASSCF linear response (MC-RPA)
   Lee Huntington         : MR-EOM, pCC
   Robert Izsak           : Overlap fitted RIJCOSX, COSX-SCS-MP3, EOM
   Christian Kollmar      : KDIIS, OOCD, Brueckner-CCSD(T), CCSD density
   Simone Kossmann        : Meta GGA functionals, TD-DFT gradient, OOMP2, MP2 Hessian
   Martin Krupicka        : AUTO-CI
   Lucas Lang             : DCDCAS
   Dagmar Lenk            : GEPOL surface, SMD
   Dimitrios Liakos       : Extrapolation schemes; Compound Job, initial MDCI parallelization
   Dimitrios Manganas     : Further ROCIS development; embedding schemes
   Dimitrios Pantazis     : SARC Basis sets
   Taras Petrenko         : DFT Hessian,TD-DFT gradient, ASA, ECA, R-Raman, ABS, FL, XAS/XES, NRVS
   Peter Pinski           : DLPNO-MP2, DLPNO-MP2 Gradient
   Christoph Reimann      : Effective Core Potentials
   Marius Retegan         : Local ZFS, SOC
   Christoph Riplinger    : Optimizer, TS searches, QM/MM, DLPNO-CCSD(T), (RO)-DLPNO pert. Triples
   Tobias Risthaus        : Range-separated hybrids, TD-DFT gradient, RPA, STAB
   Michael Roemelt        : Original ROCIS implementation
   Masaaki Saitow         : Open-shell DLPNO-CCSD energy and density
   Barbara Sandhoefer     : DKH picture change effects
   Avijit Sen             : IP-ROCIS
   Kantharuban Sivalingam : CASSCF convergence, NEVPT2, FIC-MRCI
   Bernardo de Souza      : ESD, SOC TD-DFT
   Georgi Stoychev        : AutoAux, RI-MP2 NMR
   Willem Van den Heuvel  : Paramagnetic NMR
   Boris Wezisla          : Elementary symmetry handling
   Frank Wennmohs         : Technical directorship


 We gratefully acknowledge several colleagues who have allowed us to
 interface, adapt or use parts of their codes:
   Stefan Grimme, W. Hujo, H. Kruse,             : VdW corrections, initial TS optimization,
                  C. Bannwarth                     DFT functionals, gCP, sTDA/sTD-DF
   Ed Valeev, F. Pavosevic, A. Kumar             : LibInt (2-el integral package), F12 methods
   Garnet Chan, S. Sharma, J. Yang, R. Olivares  : DMRG
   Ulf Ekstrom                                   : XCFun DFT Library
   Mihaly Kallay                                 : mrcc  (arbitrary order and MRCC methods)
   Andreas Klamt, Michael Diedenhofen            : otool_cosmo (COSMO solvation model)
   Jiri Pittner, Ondrej Demel                    : Mk-CCSD
   Frank Weinhold                                : gennbo (NPA and NBO analysis)
   Christopher J. Cramer and Donald G. Truhlar   : smd solvation model
   Lars Goerigk                                  : TD-DFT with DH, B97 family of functionals
   V. Asgeirsson, H. Jonsson                     : NEB implementation
   FAccTs GmbH                                   : IRC, NEB, NEB-TS, Multilevel, MM, QM/MM, CI optimization
   S Lehtola, MJT Oliveira, MAL Marques          : LibXC Library


 Your calculation uses the libint2 library for the computation of 2-el integrals
 For citations please refer to: http://libint.valeyev.net

 Your ORCA version has been built with support for libXC version: 4.2.3
 For citations please refer to: https://tddft.org/programs/libxc/

 This ORCA versions uses:
   CBLAS   interface :  Fast vector & matrix operations
   LAPACKE interface :  Fast linear algebra routines
   SCALAPACK package :  Parallel linear algebra routines


----- Orbital basis set information -----
Your calculation utilizes the basis: def2-TZVP
   F. Weigend and R. Ahlrichs, Phys. Chem. Chem. Phys. 7, 3297 (2005).

================================================================================
                                        WARNINGS
                       Please study these warnings very carefully!
================================================================================


WARNING: The frozen-core approximation for MP2-gradient calculations is turned on by default.

INFO   : the flag for use of LIBINT has been found!

================================================================================
                                       INPUT FILE
================================================================================
NAME = 12h2o.su.etal.mol4,7,9-orca.engrad-mp2.def2tzvp.frozencore.inp
|  1> # 12h2o.su.etal.mol4,7,9
|  2> ! MP2 def2-TZVP EnGrad TightSCF
|  3> 
|  4> %pal
|  5>     nprocs 6
|  6> end
|  7> 
|  8> %maxcore 8000
|  9> 
| 10> %scf
| 11>     ConvForced true
| 12> end
| 13> 
| 14> *xyz 0 1
| 15> O  -0.885520000   1.737840000   0.052730000
| 16> H  -1.032320000   2.090180000  -0.841890000
| 17> H  -1.284090000   0.839590000   0.017130000
| 18> O  -1.737840000  -0.885520000  -0.052730000
| 19> H  -2.090180000  -1.032320000   0.841890000
| 20> H  -0.839590000  -1.284090000  -0.017130000
| 21> O   0.741530000  -1.752130000   2.896280000
| 22> H   0.920500000  -2.036450000   1.984040000
| 23> H   1.242140000  -0.921210000   2.984230000
| 24> *
| 25> 
| 26>                          ****END OF INPUT****
================================================================================

                     *******************************
                     * Energy+Gradient Calculation *
                     *******************************

---------------------------------
CARTESIAN COORDINATES (ANGSTROEM)
---------------------------------
  O     -0.885520    1.737840    0.052730
  H     -1.032320    2.090180   -0.841890
  H     -1.284090    0.839590    0.017130
  O     -1.737840   -0.885520   -0.052730
  H     -2.090180   -1.032320    0.841890
  H     -0.839590   -1.284090   -0.017130
  O      0.741530   -1.752130    2.896280
  H      0.920500   -2.036450    1.984040
  H      1.242140   -0.921210    2.984230

----------------------------
CARTESIAN COORDINATES (A.U.)
----------------------------
  NO LB      ZA    FRAG     MASS         X           Y           Z
   0 O     8.0000    0    15.999   -1.673390    3.284042    0.099645
   1 H     1.0000    0     1.008   -1.950802    3.949868   -1.590942
   2 H     1.0000    0     1.008   -2.426578    1.586595    0.032371
   3 O     8.0000    0    15.999   -3.284042   -1.673390   -0.099645
   4 H     1.0000    0     1.008   -3.949868   -1.950802    1.590942
   5 H     1.0000    0     1.008   -1.586595   -2.426578   -0.032371
   6 O     8.0000    0    15.999    1.401289   -3.311046    5.473176
   7 H     1.0000    0     1.008    1.739493   -3.848333    3.749292
   8 H     1.0000    0     1.008    2.347304   -1.740835    5.639377

--------------------------------
INTERNAL COORDINATES (ANGSTROEM)
--------------------------------
 O      0   0   0     0.000000000000     0.00000000     0.00000000
 H      1   0   0     0.972645187106     0.00000000     0.00000000
 H      1   2   0     0.983350632989   103.67575169     0.00000000
 O      3   1   2     1.785153773264   170.81379649   105.82965911
 H      4   3   1     0.972645187106   101.65007623   109.44492584
 H      4   3   1     0.983350632989    99.09581498     3.33484705
 O      6   4   3     3.347679752321   121.30565948    83.11460775
 H      7   6   4     0.972136791249    46.46358234   170.36223581
 H      7   6   4     0.974050112161   101.65702229   268.49406050

---------------------------
INTERNAL COORDINATES (A.U.)
---------------------------
 O      0   0   0     0.000000000000     0.00000000     0.00000000
 H      1   0   0     1.838033029106     0.00000000     0.00000000
 H      1   2   0     1.858263389967   103.67575169     0.00000000
 O      3   1   2     3.373451738406   170.81379649   105.82965911
 H      4   3   1     1.838033029106   101.65007623   109.44492584
 H      4   3   1     1.858263389967    99.09581498     3.33484705
 O      6   4   3     6.326197915960   121.30565948    83.11460775
 H      7   6   4     1.837072300170    46.46358234   170.36223581
 H      7   6   4     1.840687952699   101.65702229   268.49406050

---------------------
BASIS SET INFORMATION
---------------------
There are 2 groups of distinct atoms

 Group   1 Type O   : 11s6p2d1f contracted to 5s3p2d1f pattern {62111/411/11/1}
 Group   2 Type H   : 5s1p contracted to 3s1p pattern {311/1}

Atom   0O    basis set group =>   1
Atom   1H    basis set group =>   2
Atom   2H    basis set group =>   2
Atom   3O    basis set group =>   1
Atom   4H    basis set group =>   2
Atom   5H    basis set group =>   2
Atom   6O    basis set group =>   1
Atom   7H    basis set group =>   2
Atom   8H    basis set group =>   2


           ************************************************************
           *        Program running with 6 parallel MPI-processes     *
           *              working on a common directory               *
           ************************************************************
------------------------------------------------------------------------------
                           ORCA GTO INTEGRAL CALCULATION
------------------------------------------------------------------------------

                         BASIS SET STATISTICS AND STARTUP INFO

 # of primitive gaussian shells          ...   96
 # of primitive gaussian functions       ...  186
 # of contracted shells                  ...   57
 # of contracted basis functions         ...  129
 Highest angular momentum                ...    3
 Maximum contraction depth               ...    6
 Integral package used                   ... LIBINT
 Integral threshhold            Thresh   ...  2.500e-11
 Primitive cut-off              TCut     ...  2.500e-12


------------------------------ INTEGRAL EVALUATION ----------------------------


 * One electron integrals 
 Pre-screening matrix                    ... done
 Shell pair data                         ... done (   0.000 sec)



           ************************************************************
           *        Program running with 6 parallel MPI-processes     *
           *              working on a common directory               *
           ************************************************************
-------------------------------------------------------------------------------
                                 ORCA SCF
-------------------------------------------------------------------------------

------------
SCF SETTINGS
------------
Hamiltonian:
 Ab initio Hamiltonian  Method          .... Hartree-Fock(GTOs)


General Settings:
 Integral files         IntName         .... 12h2o.su.etal.mol4,7,9-orca.engrad-mp2.def2tzvp.frozencore
 Hartree-Fock type      HFTyp           .... RHF
 Total Charge           Charge          ....    0
 Multiplicity           Mult            ....    1
 Number of Electrons    NEL             ....   30
 Basis Dimension        Dim             ....  129
 Nuclear Repulsion      ENuc            ....     71.5118401982 Eh

Convergence Acceleration:
 DIIS                   CNVDIIS         .... on
   Start iteration      DIISMaxIt       ....    12
   Startup error        DIISStart       ....  0.200000
   # of expansion vecs  DIISMaxEq       ....     5
   Bias factor          DIISBfac        ....   1.050
   Max. coefficient     DIISMaxC        ....  10.000
 Newton-Raphson         CNVNR           .... off
 SOSCF                  CNVSOSCF        .... on
   Start iteration      SOSCFMaxIt      ....   150
   Startup grad/error   SOSCFStart      ....  0.003300
 Level Shifting         CNVShift        .... on
   Level shift para.    LevelShift      ....    0.2500
   Turn off err/grad.   ShiftErr        ....    0.0010
 Zerner damping         CNVZerner       .... off
 Static damping         CNVDamp         .... on
   Fraction old density DampFac         ....    0.7000
   Max. Damping (<1)    DampMax         ....    0.9800
   Min. Damping (>=0)   DampMin         ....    0.0000
   Turn off err/grad.   DampErr         ....    0.1000
 Fernandez-Rico         CNVRico         .... off

SCF Procedure:
 Maximum # iterations   MaxIter         ....   125
 SCF integral mode      SCFMode         .... Direct
   Integral package                     .... LIBINT
 Reset frequency        DirectResetFreq ....    20
 Integral Threshold     Thresh          ....  2.500e-11 Eh
 Primitive CutOff       TCut            ....  2.500e-12 Eh

Convergence Tolerance:
 Convergence Check Mode ConvCheckMode   .... Total+1el-Energy
 Convergence forced     ConvForced      .... 1
 Energy Change          TolE            ....  1.000e-08 Eh
 1-El. energy change                    ....  1.000e-05 Eh
 Orbital Gradient       TolG            ....  1.000e-05
 Orbital Rotation angle TolX            ....  1.000e-05
 DIIS Error             TolErr          ....  5.000e-07


Diagonalization of the overlap matrix:
Smallest eigenvalue                        ... 5.158e-03
Time for diagonalization                   ...    0.003 sec
Threshold for overlap eigenvalues          ... 1.000e-08
Number of eigenvalues below threshold      ... 0
Time for construction of square roots      ...    0.001 sec
Total time needed                          ...    0.004 sec

-------------------
DFT GRID GENERATION
-------------------

General Integration Accuracy     IntAcc      ...  4.340
Radial Grid Type                 RadialGrid  ... Gauss-Chebyshev
Angular Grid (max. acc.)         AngularGrid ... Lebedev-110
Angular grid pruning method      GridPruning ... 3 (G Style)
Weight generation scheme         WeightScheme... Becke
Basis function cutoff            BFCut       ...    1.0000e-11
Integration weight cutoff        WCut        ...    1.0000e-14
Grids for H and He will be reduced by one unit

# of grid points (after initial pruning)     ...   9912 (   0.0 sec)
# of grid points (after weights+screening)   ...   9667 (   0.0 sec)
nearest neighbour list constructed           ...    0.0 sec
Grid point re-assignment to atoms done       ...    0.0 sec
Grid point division into batches done        ...    0.0 sec
Reduced shell lists constructed in    0.0 sec

Total number of grid points                  ...     9667
Total number of batches                      ...      156
Average number of points per batch           ...       61
Average number of grid points per atom       ...     1074
Average number of shells per batch           ...    32.74 (57.44%)
Average number of basis functions per batch  ...    68.15 (52.83%)
Average number of large shells per batch     ...    24.59 (75.11%)
Average number of large basis fcns per batch ...    50.00 (73.37%)
Maximum spatial batch extension              ...  21.59, 14.81, 15.14 au
Average spatial batch extension              ...   1.17,  0.83,  0.83 au

Time for grid setup =    0.021 sec

------------------------------
INITIAL GUESS: MODEL POTENTIAL
------------------------------
Loading Hartree-Fock densities                     ... done
Calculating cut-offs                               ... done
Setting up the integral package                    ... done
Initializing the effective Hamiltonian             ... done
Starting the Coulomb interaction                   ... done (   0.0 sec)
Reading the grid                                   ... done
Mapping shells                                     ... done
Starting the XC term evaluation                    ... done (   0.0 sec)
Transforming the Hamiltonian                       ... done (   0.0 sec)
Diagonalizing the Hamiltonian                      ... done (   0.0 sec)
Back transforming the eigenvectors                 ... done (   0.0 sec)
Now organizing SCF variables                       ... done
                      ------------------
                      INITIAL GUESS DONE (   0.1 sec)
                      ------------------
--------------
SCF ITERATIONS
--------------
ITER       Energy         Delta-E        Max-DP      RMS-DP      [F,P]     Damp
               ***  Starting incremental Fock matrix formation  ***
  0   -227.8891989964   0.000000000000 0.04372284  0.00139555  0.3521777 0.7000
  1   -228.0030145082  -0.113815511809 0.02899310  0.00095975  0.2166197 0.7000
                               ***Turning on DIIS***
  2   -228.0626269834  -0.059612475173 0.01664843  0.00052713  0.1638039 0.7000
  3   -228.5738745070  -0.511247523626 0.00734089  0.00023290  0.1218638 0.7000
  4   -228.4678609759   0.106013531175 0.01590966  0.00053888  0.0862127 0.0000
  5   -228.1995628042   0.268298171656 0.00220112  0.00008909  0.0055799 0.0000
                      *** Initiating the SOSCF procedure ***
                           *** Shutting down DIIS ***
                      *** Re-Reading the Fockian *** 
                      *** Removing any level shift *** 
ITER      Energy       Delta-E        Grad      Rot      Max-DP    RMS-DP
  6   -228.18205069   0.0175121145  0.000936  0.000936  0.001417  0.000054
               *** Restarting incremental Fock matrix formation ***
  7   -228.17693936   0.0051113256  0.000290  0.000386  0.000694  0.000023
  8   -228.17694381  -0.0000044416  0.000158  0.000305  0.000522  0.000019
  9   -228.17694486  -0.0000010501  0.000074  0.000042  0.000111  0.000003
 10   -228.17694494  -0.0000000873  0.000012  0.000007  0.000020  0.000001
                  ***Gradient check signals convergence***
              ***Rediagonalizing the Fockian in SOSCF/NRSCF***

               *****************************************************
               *                     SUCCESS                       *
               *           SCF CONVERGED AFTER  11 CYCLES          *
               *****************************************************


----------------
TOTAL SCF ENERGY
----------------

Total Energy       :         -228.17694495 Eh           -6209.01033 eV

Components:
Nuclear Repulsion  :           71.51184020 Eh            1945.93610 eV
Electronic Energy  :         -299.68878514 Eh           -8154.94643 eV
One Electron Energy:         -456.98725822 Eh          -12435.25549 eV
Two Electron Energy:          157.29847308 Eh            4280.30906 eV

Virial components:
Potential Energy   :         -456.01381307 Eh          -12408.76670 eV
Kinetic Energy     :          227.83686813 Eh            6199.75637 eV
Virial Ratio       :            2.00149263


---------------
SCF CONVERGENCE
---------------

  Last Energy change         ...   -1.8123e-09  Tolerance :   1.0000e-08
  Last MAX-Density change    ...    4.8224e-06  Tolerance :   1.0000e-07
  Last RMS-Density change    ...    1.7493e-07  Tolerance :   5.0000e-09
  Last Orbital Gradient      ...    2.4047e-06  Tolerance :   1.0000e-05
  Last Orbital Rotation      ...    2.9364e-06  Tolerance :   1.0000e-05

             **** THE GBW FILE WAS UPDATED (12h2o.su.etal.mol4,7,9-orca.engrad-mp2.def2tzvp.frozencore.gbw) ****
             **** DENSITY FILE WAS UPDATED (12h2o.su.etal.mol4,7,9-orca.engrad-mp2.def2tzvp.frozencore.scfp) ****
             **** ENERGY FILE WAS UPDATED (12h2o.su.etal.mol4,7,9-orca.engrad-mp2.def2tzvp.frozencore.en.tmp) ****
             **** THE GBW FILE WAS UPDATED (12h2o.su.etal.mol4,7,9-orca.engrad-mp2.def2tzvp.frozencore.gbw) ****
             **** DENSITY FILE WAS UPDATED (12h2o.su.etal.mol4,7,9-orca.engrad-mp2.def2tzvp.frozencore.scfp) ****
----------------
ORBITAL ENERGIES
----------------

  NO   OCC          E(Eh)            E(eV) 
   0   2.0000     -20.598438      -560.5120 
   1   2.0000     -20.577418      -559.9400 
   2   2.0000     -20.529754      -558.6430 
   3   2.0000      -1.378870       -37.5210 
   4   2.0000      -1.356379       -36.9090 
   5   2.0000      -1.311007       -35.6743 
   6   2.0000      -0.736993       -20.0546 
   7   2.0000      -0.719194       -19.5703 
   8   2.0000      -0.687487       -18.7075 
   9   2.0000      -0.617708       -16.8087 
  10   2.0000      -0.593621       -16.1532 
  11   2.0000      -0.566110       -15.4046 
  12   2.0000      -0.523178       -14.2364 
  13   2.0000      -0.520894       -14.1743 
  14   2.0000      -0.478137       -13.0108 
  15   0.0000       0.086056         2.3417 
  16   0.0000       0.148435         4.0391 
  17   0.0000       0.166419         4.5285 
  18   0.0000       0.174338         4.7440 
  19   0.0000       0.230032         6.2595 
  20   0.0000       0.315404         8.5826 
  21   0.0000       0.475194        12.9307 
  22   0.0000       0.485966        13.2238 
  23   0.0000       0.505810        13.7638 
  24   0.0000       0.535278        14.5657 
  25   0.0000       0.559879        15.2351 
  26   0.0000       0.586126        15.9493 
  27   0.0000       0.594838        16.1864 
  28   0.0000       0.619274        16.8513 
  29   0.0000       0.622694        16.9444 
  30   0.0000       0.641632        17.4597 
  31   0.0000       0.689642        18.7661 
  32   0.0000       0.736011        20.0279 
  33   0.0000       0.747221        20.3329 
  34   0.0000       0.760183        20.6856 
  35   0.0000       0.781702        21.2712 
  36   0.0000       0.791046        21.5255 
  37   0.0000       0.944597        25.7038 
  38   0.0000       1.004782        27.3415 
  39   0.0000       1.360765        37.0283 
  40   0.0000       1.389960        37.8227 
  41   0.0000       1.393099        37.9081 
  42   0.0000       1.432358        38.9764 
  43   0.0000       1.450008        39.4567 
  44   0.0000       1.489956        40.5438 
  45   0.0000       1.535075        41.7715 
  46   0.0000       1.556810        42.3630 
  47   0.0000       1.586654        43.1750 
  48   0.0000       1.774877        48.2969 
  49   0.0000       1.782898        48.5151 
  50   0.0000       1.810197        49.2580 
  51   0.0000       1.878969        51.1293 
  52   0.0000       1.903930        51.8086 
  53   0.0000       1.986602        54.0582 
  54   0.0000       2.008493        54.6539 
  55   0.0000       2.058397        56.0118 
  56   0.0000       2.122432        57.7543 
  57   0.0000       2.268396        61.7262 
  58   0.0000       2.286396        62.2160 
  59   0.0000       2.310543        62.8731 
  60   0.0000       2.334702        63.5305 
  61   0.0000       2.344187        63.7886 
  62   0.0000       2.367415        64.4207 
  63   0.0000       2.384373        64.8821 
  64   0.0000       2.454461        66.7893 
  65   0.0000       2.531300        68.8802 
  66   0.0000       2.548178        69.3395 
  67   0.0000       2.577999        70.1509 
  68   0.0000       2.623643        71.3930 
  69   0.0000       2.649536        72.0976 
  70   0.0000       2.666172        72.5502 
  71   0.0000       2.735406        74.4342 
  72   0.0000       2.907375        79.1137 
  73   0.0000       2.911102        79.2151 
  74   0.0000       2.931515        79.7706 
  75   0.0000       2.944599        80.1266 
  76   0.0000       2.949361        80.2562 
  77   0.0000       2.995075        81.5001 
  78   0.0000       3.051016        83.0224 
  79   0.0000       3.077222        83.7355 
  80   0.0000       3.135025        85.3084 
  81   0.0000       3.196191        86.9728 
  82   0.0000       3.225187        87.7618 
  83   0.0000       3.411554        92.8331 
  84   0.0000       4.001129       108.8762 
  85   0.0000       4.009932       109.1158 
  86   0.0000       4.076112       110.9167 
  87   0.0000       4.262639       115.9923 
  88   0.0000       4.293714       116.8379 
  89   0.0000       4.358122       118.5905 
  90   0.0000       5.509342       149.9168 
  91   0.0000       5.533406       150.5716 
  92   0.0000       5.575774       151.7245 
  93   0.0000       5.635163       153.3406 
  94   0.0000       5.637903       153.4151 
  95   0.0000       5.681231       154.5942 
  96   0.0000       5.784044       157.3918 
  97   0.0000       5.806851       158.0125 
  98   0.0000       5.809616       158.0877 
  99   0.0000       5.838323       158.8689 
 100   0.0000       5.848204       159.1377 
 101   0.0000       5.851449       159.2260 
 102   0.0000       5.879658       159.9936 
 103   0.0000       5.886036       160.1672 
 104   0.0000       5.922103       161.1486 
 105   0.0000       6.432092       175.0261 
 106   0.0000       6.473733       176.1592 
 107   0.0000       6.493376       176.6938 
 108   0.0000       6.663681       181.3280 
 109   0.0000       6.679253       181.7517 
 110   0.0000       6.737481       183.3362 
 111   0.0000       6.814419       185.4298 
 112   0.0000       6.834289       185.9704 
 113   0.0000       6.861507       186.7111 
 114   0.0000       6.871641       186.9869 
 115   0.0000       6.874248       187.0578 
 116   0.0000       6.930435       188.5867 
 117   0.0000       6.934285       188.6915 
 118   0.0000       6.986810       190.1208 
 119   0.0000       6.988681       190.1717 
 120   0.0000       7.344172       199.8451 
 121   0.0000       7.355785       200.1611 
 122   0.0000       7.452600       202.7956 
 123   0.0000       7.477717       203.4790 
 124   0.0000       7.493153       203.8991 
 125   0.0000       7.577411       206.1918 
 126   0.0000      44.811656      1219.3872 
 127   0.0000      44.888044      1221.4658 
 128   0.0000      44.948941      1223.1229 

                    ********************************
                    * MULLIKEN POPULATION ANALYSIS *
                    ********************************

-----------------------
MULLIKEN ATOMIC CHARGES
-----------------------
   0 O :   -0.739204
   1 H :    0.336404
   2 H :    0.376240
   3 O :   -0.704770
   4 H :    0.373798
   5 H :    0.355470
   6 O :   -0.690329
   7 H :    0.334263
   8 H :    0.358130
Sum of atomic charges:   -0.0000000

--------------------------------
MULLIKEN REDUCED ORBITAL CHARGES
--------------------------------
  0 O s       :     3.810869  s :     3.810869
      pz      :     1.525115  p :     4.901775
      px      :     1.877535
      py      :     1.499125
      dz2     :     0.011554  d :     0.025106
      dxz     :     0.002577
      dyz     :     0.002894
      dx2y2   :     0.003037
      dxy     :     0.005043
      f0      :     0.000187  f :     0.001454
      f+1     :     0.000126
      f-1     :     0.000454
      f+2     :     0.000078
      f-2     :     0.000042
      f+3     :     0.000450
      f-3     :     0.000118
  1 H s       :     0.618753  s :     0.618753
      pz      :     0.018314  p :     0.044843
      px      :     0.014289
      py      :     0.012240
  2 H s       :     0.569606  s :     0.569606
      pz      :     0.009723  p :     0.054153
      px      :     0.015749
      py      :     0.028681
  3 O s       :     3.807020  s :     3.807020
      pz      :     1.559758  p :     4.870024
      px      :     1.463724
      py      :     1.846541
      dz2     :     0.012204  d :     0.026286
      dxz     :     0.002957
      dyz     :     0.002382
      dx2y2   :     0.003639
      dxy     :     0.005104
      f0      :     0.000168  f :     0.001439
      f+1     :     0.000472
      f-1     :     0.000119
      f+2     :     0.000070
      f-2     :     0.000042
      f+3     :     0.000111
      f-3     :     0.000457
  4 H s       :     0.582548  s :     0.582548
      pz      :     0.019129  p :     0.043654
      px      :     0.011406
      py      :     0.013119
  5 H s       :     0.601809  s :     0.601809
      pz      :     0.009953  p :     0.042721
      px      :     0.018576
      py      :     0.014192
  6 O s       :     3.814956  s :     3.814956
      pz      :     1.491543  p :     4.847331
      px      :     1.818087
      py      :     1.537700
      dz2     :     0.012340  d :     0.026503
      dxz     :     0.003120
      dyz     :     0.001283
      dx2y2   :     0.002137
      dxy     :     0.007622
      f0      :     0.000271  f :     0.001539
      f+1     :     0.000176
      f-1     :     0.000385
      f+2     :     0.000056
      f-2     :     0.000057
      f+3     :     0.000525
      f-3     :     0.000070
  7 H s       :     0.620494  s :     0.620494
      pz      :     0.018731  p :     0.045243
      px      :     0.014008
      py      :     0.012504
  8 H s       :     0.597494  s :     0.597494
      pz      :     0.010451  p :     0.044376
      px      :     0.015541
      py      :     0.018384


                     *******************************
                     * LOEWDIN POPULATION ANALYSIS *
                     *******************************

----------------------
LOEWDIN ATOMIC CHARGES
----------------------
   0 O :   -0.364102
   1 H :    0.158245
   2 H :    0.149445
   3 O :   -0.295977
   4 H :    0.176049
   5 H :    0.174486
   6 O :   -0.328775
   7 H :    0.158653
   8 H :    0.171976

-------------------------------
LOEWDIN REDUCED ORBITAL CHARGES
-------------------------------
  0 O s       :     3.472668  s :     3.472668
      pz      :     1.537401  p :     4.858224
      px      :     1.839806
      py      :     1.481017
      dz2     :     0.015073  d :     0.031140
      dxz     :     0.001737
      dyz     :     0.004317
      dx2y2   :     0.003900
      dxy     :     0.006113
      f0      :     0.000395  f :     0.002070
      f+1     :     0.000197
      f-1     :     0.000758
      f+2     :     0.000048
      f-2     :     0.000046
      f+3     :     0.000559
      f-3     :     0.000067
  1 H s       :     0.683307  s :     0.683307
      pz      :     0.078313  p :     0.158448
      px      :     0.043498
      py      :     0.036637
  2 H s       :     0.666798  s :     0.666798
      pz      :     0.029225  p :     0.183757
      px      :     0.052662
      py      :     0.101870
  3 O s       :     3.469623  s :     3.469623
      pz      :     1.551748  p :     4.790841
      px      :     1.452682
      py      :     1.786410
      dz2     :     0.015575  d :     0.033389
      dxz     :     0.004044
      dyz     :     0.001485
      dx2y2   :     0.005531
      dxy     :     0.006754
      f0      :     0.000357  f :     0.002125
      f+1     :     0.000759
      f-1     :     0.000213
      f+2     :     0.000042
      f-2     :     0.000044
      f+3     :     0.000076
      f-3     :     0.000633
  4 H s       :     0.665150  s :     0.665150
      pz      :     0.080821  p :     0.158801
      px      :     0.035302
      py      :     0.042678
  5 H s       :     0.672301  s :     0.672301
      pz      :     0.029409  p :     0.153213
      px      :     0.074412
      py      :     0.049392
  6 O s       :     3.474134  s :     3.474134
      pz      :     1.503225  p :     4.818504
      px      :     1.788027
      py      :     1.527253
      dz2     :     0.017074  d :     0.033906
      dxz     :     0.002571
      dyz     :     0.002188
      dx2y2   :     0.002293
      dxy     :     0.009780
      f0      :     0.000503  f :     0.002231
      f+1     :     0.000331
      f-1     :     0.000600
      f+2     :     0.000026
      f-2     :     0.000048
      f+3     :     0.000720
      f-3     :     0.000003
  7 H s       :     0.683857  s :     0.683857
      pz      :     0.079635  p :     0.157490
      px      :     0.042426
      py      :     0.035429
  8 H s       :     0.671389  s :     0.671389
      pz      :     0.029468  p :     0.156635
      px      :     0.054762
      py      :     0.072404


                      *****************************
                      * MAYER POPULATION ANALYSIS *
                      *****************************

  NA   - Mulliken gross atomic population
  ZA   - Total nuclear charge
  QA   - Mulliken gross atomic charge
  VA   - Mayer's total valence
  BVA  - Mayer's bonded valence
  FA   - Mayer's free valence

  ATOM       NA         ZA         QA         VA         BVA        FA
  0 O      8.7392     8.0000    -0.7392     1.7208     1.7208    -0.0000
  1 H      0.6636     1.0000     0.3364     0.9007     0.9007    -0.0000
  2 H      0.6238     1.0000     0.3762     0.8945     0.8945    -0.0000
  3 O      8.7048     8.0000    -0.7048     1.7842     1.7842    -0.0000
  4 H      0.6262     1.0000     0.3738     0.8748     0.8748     0.0000
  5 H      0.6445     1.0000     0.3555     0.8917     0.8917     0.0000
  6 O      8.6903     8.0000    -0.6903     1.7843     1.7843    -0.0000
  7 H      0.6657     1.0000     0.3343     0.9038     0.9038    -0.0000
  8 H      0.6419     1.0000     0.3581     0.8859     0.8859    -0.0000

  Mayer bond orders larger than 0.100000
B(  0-O ,  1-H ) :   0.8971 B(  0-O ,  2-H ) :   0.8385 B(  3-O ,  4-H ) :   0.8680 
B(  3-O ,  5-H ) :   0.8786 B(  6-O ,  7-H ) :   0.8965 B(  6-O ,  8-H ) :   0.8810 


-------
TIMINGS
-------

Total SCF time: 0 days 0 hours 0 min 2 sec 

Total time                  ....       2.301 sec
Sum of individual times     ....       2.134 sec  ( 92.7%)

Fock matrix formation       ....       1.990 sec  ( 86.5%)
Diagonalization             ....       0.016 sec  (  0.7%)
Density matrix formation    ....       0.003 sec  (  0.1%)
Population analysis         ....       0.002 sec  (  0.1%)
Initial guess               ....       0.091 sec  (  3.9%)
Orbital Transformation      ....       0.000 sec  (  0.0%)
Orbital Orthonormalization  ....       0.000 sec  (  0.0%)
DIIS solution               ....       0.005 sec  (  0.2%)
SOSCF solution              ....       0.006 sec  (  0.2%)


           ************************************************************
           *        Program running with 6 parallel MPI-processes     *
           *              working on a common directory               *
           ************************************************************

------------------------------------------------------------------------------
                                ORCA  MP2 
------------------------------------------------------------------------------

Freezing NCore=6 chemical core electrons
MP2 will be done in the AO integral direct mode
The Q1-step will be done using symmetric double matrices
Dimension of the basis                    ...  129
Memory devoted for MP2                    ... 8000 MB   
Memory needed for all in one shot         ...   18 MB
Number of MOs that can be treated together...  968      
MP2 density construction                  ... relaxed
The MP2 gradient is requested => amplitudes will be stored on disk
Total number of MOs              ...   12
Number of MOs treated per batch  ...    2 
Number of batches necessary      ...    1 
OPERATORS   0/  0 PASS   0
-----------------------------------------------
 MP2 CORRELATION ENERGY   :     -0.770389932 Eh
-----------------------------------------------


---------------------
MP2 DENSITY FORMATION
---------------------

Completing the external part of the density      ... done
Storing the unrelaxed density                    ... done

Calculating G(D)                                 ... done
Completing the Lagrangian                        ... done
Solving the Z-vector equations                   ... 

------------------------------------------------------------------------------
                           ORCA CP-SCF CALCULATION
------------------------------------------------------------------------------

Input orbitals are from        ... 12h2o.su.etal.mol4,7,9-orca.engrad-mp2.def2tzvp.frozencore.gbw
Input Perturbation             ... 12h2o.su.etal.mol4,7,9-orca.engrad-mp2.def2tzvp.frozencore.pin.tmp
Wavefunction output            ... 12h2o.su.etal.mol4,7,9-orca.engrad-mp2.def2tzvp.frozencore.pout.tmp
Perturbation mode              ... Real perturbation (singlet)
Solver                         ... POPLE
Max. number of iterations      ... 128
Convergence tolerance          ... 1.000e-08
Integral handling              ... Direct
Number of perturbations        ... 1
Number of operators            ... 1
Orbital ranges used for CP-SCF:
 Operator 0:  Orbitals   0... 14  to  15...128
Variables per vector in CP-SCF ... 1710
Number of vectors sought       ... 1
     CP-SCF ITERATION   0: 
     CP-SCF ITERATION   1:      0.000365738546
     CP-SCF ITERATION   2:      0.000007692201
     CP-SCF ITERATION   3:      0.000000294652
     CP-SCF ITERATION   4:      0.000000026584
     CP-SCF ITERATION   5:      0.000000002183
                                                 ... done
Finalizing the relaxed density                   ... done
Transforming P to the AO basis                   ... done
Storing the relaxed density                      ... done

------------------------------------
ENERGY WEIGHTED DENSITY FINALIZATION
------------------------------------

Gathering the parts of the W-matrix              ...                                                      done
Forming the Z-density                            ... done
Transforming Z to the AO basis                   ... done
Calculating G(Z)                                 ... done
Finalizing the W-matrix                          ...                                                      done
Transforming W to the AO basis and storing       ... done

                *********************************************
                * UNRELAXED MP2 DENSITY POPULATION ANALYSIS *
                *********************************************

------------------------------------------------------------------------------
                           ORCA POPULATION ANALYSIS
------------------------------------------------------------------------------
Input electron density              ... 12h2o.su.etal.mol4,7,9-orca.engrad-mp2.def2tzvp.frozencore.pmp2ur
BaseName (.gbw .S,...)              ... 12h2o.su.etal.mol4,7,9-orca.engrad-mp2.def2tzvp.frozencore

                    ********************************
                    * MULLIKEN POPULATION ANALYSIS *
                    ********************************

-----------------------
MULLIKEN ATOMIC CHARGES
-----------------------
   0 O :   -0.733800
   1 H :    0.334000
   2 H :    0.372241
   3 O :   -0.698734
   4 H :    0.371374
   5 H :    0.352740
   6 O :   -0.685434
   7 H :    0.331835
   8 H :    0.355779
Sum of atomic charges:   -0.0000000

--------------------------------
MULLIKEN REDUCED ORBITAL CHARGES
--------------------------------
  0 O s       :     3.805886  s :     3.805886
      pz      :     1.516043  p :     4.872026
      px      :     1.865807
      py      :     1.490177
      dz2     :     0.016610  d :     0.051871
      dxz     :     0.008056
      dyz     :     0.008228
      dx2y2   :     0.008531
      dxy     :     0.010446
      f0      :     0.000566  f :     0.004017
      f+1     :     0.000494
      f-1     :     0.000819
      f+2     :     0.000440
      f-2     :     0.000407
      f+3     :     0.000807
      f-3     :     0.000485
  1 H s       :     0.619434  s :     0.619434
      pz      :     0.018480  p :     0.046567
      px      :     0.015182
      py      :     0.012905
  2 H s       :     0.571906  s :     0.571906
      pz      :     0.010548  p :     0.055854
      px      :     0.016473
      py      :     0.028833
  3 O s       :     3.801906  s :     3.801906
      pz      :     1.550301  p :     4.839695
      px      :     1.455304
      py      :     1.834090
      dz2     :     0.017268  d :     0.053125
      dxz     :     0.008236
      dyz     :     0.007930
      dx2y2   :     0.009148
      dxy     :     0.010543
      f0      :     0.000550  f :     0.004008
      f+1     :     0.000834
      f-1     :     0.000493
      f+2     :     0.000433
      f-2     :     0.000407
      f+3     :     0.000479
      f-3     :     0.000813
  4 H s       :     0.583434  s :     0.583434
      pz      :     0.019251  p :     0.045192
      px      :     0.011994
      py      :     0.013948
  5 H s       :     0.602936  s :     0.602936
      pz      :     0.010775  p :     0.044324
      px      :     0.018622
      py      :     0.014927
  6 O s       :     3.810154  s :     3.810154
      pz      :     1.482808  p :     4.818426
      px      :     1.806824
      py      :     1.528794
      dz2     :     0.017278  d :     0.052770
      dxz     :     0.008511
      dyz     :     0.006587
      dx2y2   :     0.007579
      dxy     :     0.012816
      f0      :     0.000644  f :     0.004084
      f+1     :     0.000545
      f-1     :     0.000747
      f+2     :     0.000413
      f-2     :     0.000419
      f+3     :     0.000878
      f-3     :     0.000437
  7 H s       :     0.621229  s :     0.621229
      pz      :     0.018839  p :     0.046936
      px      :     0.014888
      py      :     0.013209
  8 H s       :     0.598246  s :     0.598246
      pz      :     0.011222  p :     0.045976
      px      :     0.016207
      py      :     0.018547


                     *******************************
                     * LOEWDIN POPULATION ANALYSIS *
                     *******************************

----------------------
LOEWDIN ATOMIC CHARGES
----------------------
   0 O :   -0.361607
   1 H :    0.156804
   2 H :    0.147054
   3 O :   -0.291716
   4 H :    0.174704
   5 H :    0.172775
   6 O :   -0.325872
   7 H :    0.157176
   8 H :    0.170684

-------------------------------
LOEWDIN REDUCED ORBITAL CHARGES
-------------------------------
  0 O s       :     3.468943  s :     3.468943
      pz      :     1.527986  p :     4.828821
      px      :     1.828652
      py      :     1.472183
      dz2     :     0.020780  d :     0.059016
      dxz     :     0.007149
      dyz     :     0.009663
      dx2y2   :     0.009578
      dxy     :     0.011846
      f0      :     0.000804  f :     0.004827
      f+1     :     0.000581
      f-1     :     0.001192
      f+2     :     0.000418
      f-2     :     0.000417
      f+3     :     0.000971
      f-3     :     0.000444
  1 H s       :     0.681401  s :     0.681401
      pz      :     0.080025  p :     0.161796
      px      :     0.044308
      py      :     0.037463
  2 H s       :     0.666386  s :     0.666386
      pz      :     0.030033  p :     0.186560
      px      :     0.053536
      py      :     0.102991
  3 O s       :     3.465710  s :     3.465710
      pz      :     1.542084  p :     4.759856
      px      :     1.443884
      py      :     1.773887
      dz2     :     0.021275  d :     0.061263
      dxz     :     0.009344
      dyz     :     0.006953
      dx2y2   :     0.011211
      dxy     :     0.012479
      f0      :     0.000769  f :     0.004888
      f+1     :     0.001190
      f-1     :     0.000602
      f+2     :     0.000413
      f-2     :     0.000415
      f+3     :     0.000455
      f-3     :     0.001045
  4 H s       :     0.663538  s :     0.663538
      pz      :     0.082281  p :     0.161759
      px      :     0.036026
      py      :     0.043452
  5 H s       :     0.670856  s :     0.670856
      pz      :     0.030206  p :     0.156369
      px      :     0.075817
      py      :     0.050346
  6 O s       :     3.470370  s :     3.470370
      pz      :     1.494054  p :     4.789279
      px      :     1.777082
      py      :     1.518143
      dz2     :     0.022733  d :     0.061255
      dxz     :     0.007901
      dyz     :     0.007427
      dx2y2   :     0.007716
      dxy     :     0.015477
      f0      :     0.000917  f :     0.004968
      f+1     :     0.000723
      f-1     :     0.001016
      f+2     :     0.000388
      f-2     :     0.000418
      f+3     :     0.001130
      f-3     :     0.000375
  7 H s       :     0.682022  s :     0.682022
      pz      :     0.081346  p :     0.160802
      px      :     0.043267
      py      :     0.036188
  8 H s       :     0.669603  s :     0.669603
      pz      :     0.030191  p :     0.159713
      px      :     0.055789
      py      :     0.073733


                      *****************************
                      * MAYER POPULATION ANALYSIS *
                      *****************************

  NA   - Mulliken gross atomic population
  ZA   - Total nuclear charge
  QA   - Mulliken gross atomic charge
  VA   - Mayer's total valence
  BVA  - Mayer's bonded valence
  FA   - Mayer's free valence

  ATOM       NA         ZA         QA         VA         BVA        FA
  0 O      8.7338     8.0000    -0.7338     2.0299     1.6407     0.3892
  1 H      0.6660     1.0000     0.3340     0.9068     0.8582     0.0485
  2 H      0.6278     1.0000     0.3722     0.9017     0.8554     0.0463
  3 O      8.6987     8.0000    -0.6987     2.0901     1.7025     0.3876
  4 H      0.6286     1.0000     0.3714     0.8805     0.8351     0.0454
  5 H      0.6473     1.0000     0.3527     0.8980     0.8499     0.0481
  6 O      8.6854     8.0000    -0.6854     2.0868     1.7018     0.3849
  7 H      0.6682     1.0000     0.3318     0.9100     0.8614     0.0486
  8 H      0.6442     1.0000     0.3558     0.8917     0.8453     0.0464

  Mayer bond orders larger than 0.100000
B(  0-O ,  1-H ) :   0.8551 B(  0-O ,  2-H ) :   0.8008 B(  3-O ,  4-H ) :   0.8288 
B(  3-O ,  5-H ) :   0.8375 B(  6-O ,  7-H ) :   0.8547 B(  6-O ,  8-H ) :   0.8408 



                *******************************************
                * RELAXED MP2 DENSITY POPULATION ANALYSIS *
                *******************************************

------------------------------------------------------------------------------
                           ORCA POPULATION ANALYSIS
------------------------------------------------------------------------------
Input electron density              ... 12h2o.su.etal.mol4,7,9-orca.engrad-mp2.def2tzvp.frozencore.pmp2re
BaseName (.gbw .S,...)              ... 12h2o.su.etal.mol4,7,9-orca.engrad-mp2.def2tzvp.frozencore

                    ********************************
                    * MULLIKEN POPULATION ANALYSIS *
                    ********************************

-----------------------
MULLIKEN ATOMIC CHARGES
-----------------------
   0 O :   -0.716671
   1 H :    0.328030
   2 H :    0.352163
   3 O :   -0.676580
   4 H :    0.364508
   5 H :    0.345190
   6 O :   -0.671337
   7 H :    0.325525
   8 H :    0.349171
Sum of atomic charges:   -0.0000000

--------------------------------
MULLIKEN REDUCED ORBITAL CHARGES
--------------------------------
  0 O s       :     3.806673  s :     3.806673
      pz      :     1.509365  p :     4.856201
      px      :     1.860284
      py      :     1.486551
      dz2     :     0.015417  d :     0.049846
      dxz     :     0.008090
      dyz     :     0.007979
      dx2y2   :     0.008334
      dxy     :     0.010026
      f0      :     0.000552  f :     0.003951
      f+1     :     0.000488
      f-1     :     0.000792
      f+2     :     0.000440
      f-2     :     0.000406
      f+3     :     0.000789
      f-3     :     0.000484
  1 H s       :     0.624621  s :     0.624621
      pz      :     0.017840  p :     0.047348
      px      :     0.016186
      py      :     0.013322
  2 H s       :     0.591542  s :     0.591542
      pz      :     0.011238  p :     0.056295
      px      :     0.017055
      py      :     0.028002
  3 O s       :     3.805328  s :     3.805328
      pz      :     1.544261  p :     4.816354
      px      :     1.452032
      py      :     1.820061
      dz2     :     0.016055  d :     0.050965
      dxz     :     0.007991
      dyz     :     0.007990
      dx2y2   :     0.008863
      dxy     :     0.010066
      f0      :     0.000535  f :     0.003933
      f+1     :     0.000805
      f-1     :     0.000487
      f+2     :     0.000433
      f-2     :     0.000405
      f+3     :     0.000477
      f-3     :     0.000791
  4 H s       :     0.589687  s :     0.589687
      pz      :     0.018566  p :     0.045805
      px      :     0.012353
      py      :     0.014886
  5 H s       :     0.609832  s :     0.609832
      pz      :     0.011503  p :     0.044977
      px      :     0.017812
      py      :     0.015663
  6 O s       :     3.815358  s :     3.815358
      pz      :     1.476650  p :     4.801549
      px      :     1.801046
      py      :     1.523853
      dz2     :     0.015860  d :     0.050423
      dxz     :     0.008480
      dyz     :     0.006518
      dx2y2   :     0.007497
      dxy     :     0.012068
      f0      :     0.000626  f :     0.004007
      f+1     :     0.000535
      f-1     :     0.000725
      f+2     :     0.000414
      f-2     :     0.000418
      f+3     :     0.000853
      f-3     :     0.000438
  7 H s       :     0.626698  s :     0.626698
      pz      :     0.018066  p :     0.047777
      px      :     0.015899
      py      :     0.013812
  8 H s       :     0.604173  s :     0.604173
      pz      :     0.011891  p :     0.046656
      px      :     0.016733
      py      :     0.018032


                     *******************************
                     * LOEWDIN POPULATION ANALYSIS *
                     *******************************

----------------------
LOEWDIN ATOMIC CHARGES
----------------------
   0 O :   -0.364305
   1 H :    0.158494
   2 H :    0.140716
   3 O :   -0.287218
   4 H :    0.175873
   5 H :    0.173655
   6 O :   -0.328286
   7 H :    0.158708
   8 H :    0.172361

-------------------------------
LOEWDIN REDUCED ORBITAL CHARGES
-------------------------------
  0 O s       :     3.470560  s :     3.470560
      pz      :     1.529352  p :     4.830837
      px      :     1.826413
      py      :     1.475072
      dz2     :     0.020173  d :     0.058050
      dxz     :     0.007205
      dyz     :     0.009431
      dx2y2   :     0.009517
      dxy     :     0.011725
      f0      :     0.000802  f :     0.004857
      f+1     :     0.000581
      f-1     :     0.001205
      f+2     :     0.000420
      f-2     :     0.000416
      f+3     :     0.000986
      f-3     :     0.000447
  1 H s       :     0.679368  s :     0.679368
      pz      :     0.079389  p :     0.162139
      px      :     0.045226
      py      :     0.037523
  2 H s       :     0.672034  s :     0.672034
      pz      :     0.030462  p :     0.187250
      px      :     0.054296
      py      :     0.102492
  3 O s       :     3.467441  s :     3.467441
      pz      :     1.543129  p :     4.754738
      px      :     1.447447
      py      :     1.764162
      dz2     :     0.020635  d :     0.060134
      dxz     :     0.009117
      dyz     :     0.007030
      dx2y2   :     0.011083
      dxy     :     0.012268
      f0      :     0.000765  f :     0.004905
      f+1     :     0.001198
      f-1     :     0.000603
      f+2     :     0.000415
      f-2     :     0.000414
      f+3     :     0.000457
      f-3     :     0.001053
  4 H s       :     0.662541  s :     0.662541
      pz      :     0.081458  p :     0.161586
      px      :     0.035902
      py      :     0.044225
  5 H s       :     0.669855  s :     0.669855
      pz      :     0.030690  p :     0.156490
      px      :     0.074767
      py      :     0.051032
  6 O s       :     3.472675  s :     3.472675
      pz      :     1.495814  p :     4.790765
      px      :     1.774890
      py      :     1.520061
      dz2     :     0.021905  d :     0.059862
      dxz     :     0.007929
      dyz     :     0.007273
      dx2y2   :     0.007644
      dxy     :     0.015111
      f0      :     0.000918  f :     0.004984
      f+1     :     0.000720
      f-1     :     0.001025
      f+2     :     0.000390
      f-2     :     0.000417
      f+3     :     0.001138
      f-3     :     0.000375
  7 H s       :     0.680080  s :     0.680080
      pz      :     0.080657  p :     0.161212
      px      :     0.044230
      py      :     0.036324
  8 H s       :     0.667979  s :     0.667979
      pz      :     0.030443  p :     0.159660
      px      :     0.056265
      py      :     0.072952


                      *****************************
                      * MAYER POPULATION ANALYSIS *
                      *****************************

  NA   - Mulliken gross atomic population
  ZA   - Total nuclear charge
  QA   - Mulliken gross atomic charge
  VA   - Mayer's total valence
  BVA  - Mayer's bonded valence
  FA   - Mayer's free valence

  ATOM       NA         ZA         QA         VA         BVA        FA
  0 O      8.7167     8.0000    -0.7167     2.0349     1.6504     0.3845
  1 H      0.6720     1.0000     0.3280     0.9101     0.8615     0.0486
  2 H      0.6478     1.0000     0.3522     0.9286     0.8829     0.0456
  3 O      8.6766     8.0000    -0.6766     2.1196     1.7378     0.3818
  4 H      0.6355     1.0000     0.3645     0.8864     0.8411     0.0454
  5 H      0.6548     1.0000     0.3452     0.9063     0.8584     0.0479
  6 O      8.6713     8.0000    -0.6713     2.0939     1.7140     0.3799
  7 H      0.6745     1.0000     0.3255     0.9151     0.8665     0.0486
  8 H      0.6508     1.0000     0.3492     0.8967     0.8502     0.0465

  Mayer bond orders larger than 0.100000
B(  0-O ,  1-H ) :   0.8586 B(  0-O ,  2-H ) :   0.8032 B(  3-O ,  4-H ) :   0.8330 
B(  3-O ,  5-H ) :   0.8409 B(  6-O ,  7-H ) :   0.8583 B(  6-O ,  8-H ) :   0.8455 



----------------------------------
MP2 DERIVATIVE INTEGRAL GENERATION
----------------------------------


Input Wavefunction Amplitudes       ... 12h2o.su.etal.mol4,7,9-orca.engrad-mp2.def2tzvp.frozencore.mp2tsaa.tmp
Input Correlated Electron Density   ... 12h2o.su.etal.mol4,7,9-orca.engrad-mp2.def2tzvp.frozencore.pmp2re
Input Energy Weighted Density       ... 12h2o.su.etal.mol4,7,9-orca.engrad-mp2.def2tzvp.frozencore.wmp2.tmp
Input SCF Electron Density          ... 12h2o.su.etal.mol4,7,9-orca.engrad-mp2.def2tzvp.frozencore.scfp

One-Electron Terms    ...
                        ... One-Electron Terms done
Prescreening matrices              ... done

Batch handling in the gradient evaluation:
Memory available                      ... 8000.0 MB
Memory per occupied orbital in Q2     ...    1.5 MB
Memory per occupied orbital in Q3     ...    0.0 MB
Total memory requirement per |i>      ...    1.6 MB
Max. Number of orbitals possible      ...   5089
Number of orbitals treated per batch  ...     12
Number of batches to be done          ...      1
Batch   0: i=    3 ...    14

---------------------------------------
MP2 TOTAL ENERGY:     -228.947334877 Eh
---------------------------------------

The final MP2 gradient
  0:   0.00405159   0.00361554   0.01011707
  1:  -0.00159193   0.00291252  -0.01027414
  2:  -0.00371499  -0.01144870   0.00150400
  3:  -0.01437678   0.01073619  -0.00933027
  4:  -0.00166756   0.00053682   0.00597827
  5:   0.01732761  -0.00626311   0.00121667
  6:  -0.00501225  -0.00642300   0.00996080
  7:  -0.00062820  -0.00190092  -0.00972044
  8:   0.00561251   0.00823466   0.00054804

-----------------------------------
NORM OF THE MP2 GRADIENT:  0.039345
-----------------------------------

-------------------------   --------------------
FINAL SINGLE POINT ENERGY      -228.947334876535
-------------------------   --------------------


                            ***************************************
                            *     ORCA property calculations      *
                            ***************************************

                                    ---------------------
                                    Active property flags
                                    ---------------------
   (+) Dipole Moment


------------------------------------------------------------------------------
                       ORCA ELECTRIC PROPERTIES CALCULATION
------------------------------------------------------------------------------

Dipole Moment Calculation                       ... on
Quadrupole Moment Calculation                   ... off
Polarizability Calculation                      ... off
GBWName                                         ... 12h2o.su.etal.mol4,7,9-orca.engrad-mp2.def2tzvp.frozencore.gbw
Electron density file                           ... 12h2o.su.etal.mol4,7,9-orca.engrad-mp2.def2tzvp.frozencore.scfp
The origin for moment calculation is the CENTER OF MASS  = (-1.161410, -0.585996  1.795339)

-------------
DIPOLE MOMENT
-------------
                                X             Y             Z
Electronic contribution:     -0.15044      -0.15823       0.15607
Nuclear contribution   :      0.56611      -0.45337      -0.68611
                        -----------------------------------------
Total Dipole Moment    :      0.41566      -0.61160      -0.53004
                        -----------------------------------------
Magnitude (a.u.)       :      0.90982
Magnitude (Debye)      :      2.31258



--------------------
Rotational spectrum 
--------------------
 
Rotational constants in cm-1:     0.279353     0.077088     0.061277 
Rotational constants in MHz :  8374.779642  2311.029997  1837.045557 

 Dipole components along the rotational axes: 
x,y,z [a.u.] :     0.216356    -0.412548    -0.781516 
x,y,z [Debye]:     0.549934    -1.048614    -1.986457 

 

                         *** MP2 UNRELAXED DENSITY ***

------------------------------------------------------------------------------
                       ORCA ELECTRIC PROPERTIES CALCULATION
------------------------------------------------------------------------------

Dipole Moment Calculation                       ... on
Quadrupole Moment Calculation                   ... off
Polarizability Calculation                      ... off
GBWName                                         ... 12h2o.su.etal.mol4,7,9-orca.engrad-mp2.def2tzvp.frozencore.gbw
Electron density file                           ... 12h2o.su.etal.mol4,7,9-orca.engrad-mp2.def2tzvp.frozencore.pmp2ur
The origin for moment calculation is the CENTER OF MASS  = (-1.161410, -0.585996  1.795339)

-------------
DIPOLE MOMENT
-------------
                                X             Y             Z
Electronic contribution:     -0.15697      -0.15614       0.16356
Nuclear contribution   :      0.56611      -0.45337      -0.68611
                        -----------------------------------------
Total Dipole Moment    :      0.40913      -0.60951      -0.52255
                        -----------------------------------------
Magnitude (a.u.)       :      0.90108
Magnitude (Debye)      :      2.29036



--------------------
Rotational spectrum 
--------------------
 
Rotational constants in cm-1:     0.279353     0.077088     0.061277 
Rotational constants in MHz :  8374.779642  2311.029997  1837.045557 

 Dipole components along the rotational axes: 
x,y,z [a.u.] :     0.217110    -0.412001    -0.771403 
x,y,z [Debye]:     0.551849    -1.047222    -1.960751 

 

                           *** MP2 RELAXED DENSITY ***

------------------------------------------------------------------------------
                       ORCA ELECTRIC PROPERTIES CALCULATION
------------------------------------------------------------------------------

Dipole Moment Calculation                       ... on
Quadrupole Moment Calculation                   ... off
Polarizability Calculation                      ... off
GBWName                                         ... 12h2o.su.etal.mol4,7,9-orca.engrad-mp2.def2tzvp.frozencore.gbw
Electron density file                           ... 12h2o.su.etal.mol4,7,9-orca.engrad-mp2.def2tzvp.frozencore.pmp2re
The origin for moment calculation is the CENTER OF MASS  = (-1.161410, -0.585996  1.795339)

-------------
DIPOLE MOMENT
-------------
                                X             Y             Z
Electronic contribution:     -0.16324      -0.16436       0.17210
Nuclear contribution   :      0.56611      -0.45337      -0.68611
                        -----------------------------------------
Total Dipole Moment    :      0.40286      -0.61773      -0.51401
                        -----------------------------------------
Magnitude (a.u.)       :      0.89894
Magnitude (Debye)      :      2.28492



--------------------
Rotational spectrum 
--------------------
 
Rotational constants in cm-1:     0.279353     0.077088     0.061277 
Rotational constants in MHz :  8374.779642  2311.029997  1837.045557 

 Dipole components along the rotational axes: 
x,y,z [a.u.] :     0.225099    -0.418689    -0.762966 
x,y,z [Debye]:     0.572157    -1.064224    -1.939306 

 

Timings for individual modules:

Sum of individual times         ...        8.732 sec (=   0.146 min)
GTO integral calculation        ...        0.987 sec (=   0.016 min)  11.3 %
SCF iterations                  ...        2.994 sec (=   0.050 min)  34.3 %
MP2 module                      ...        4.751 sec (=   0.079 min)  54.4 %
                             ****ORCA TERMINATED NORMALLY****
TOTAL RUN TIME: 0 days 0 hours 0 minutes 9 seconds 686 msec
