
                                 *****************
                                 * O   R   C   A *
                                 *****************

           --- An Ab Initio, DFT and Semiempirical electronic structure package ---

                  #######################################################
                  #                        -***-                        #
                  #  Department of molecular theory and spectroscopy    #
                  #              Directorship: Frank Neese              #
                  # Max Planck Institute for Chemical Energy Conversion #
                  #                  D-45470 Muelheim/Ruhr              #
                  #                       Germany                       #
                  #                                                     #
                  #                  All rights reserved                #
                  #                        -***-                        #
                  #######################################################


                         Program Version 3.0.3 - RELEASE   -


 With contributions from (in alphabetic order):
   Ute Becker             : Parallelization
   Dmytro Bykov           : SCF Hessian
   Dmitry Ganyushin       : Spin-Orbit,Spin-Spin,Magnetic field MRCI
   Andreas Hansen         : Spin unrestricted coupled pair/coupled cluster methods
   Dimitrios Liakos       : Extrapolation schemes; parallel MDCI
   Robert Izsak           : Overlap fitted RIJCOSX, COSX-SCS-MP3
   Christian Kollmar      : KDIIS, OOCD, Brueckner-CCSD(T), CCSD density
   Simone Kossmann        : Meta GGA functionals, TD-DFT gradient, OOMP2, MP2 Hessian
   Taras Petrenko         : DFT Hessian,TD-DFT gradient, ASA and ECA modules, normal mode analysis, Resonance Raman, ABS, FL, XAS/XES, NRVS
   Christoph Reimann      : Effective Core Potentials
   Michael Roemelt        : Restricted open shell CIS
   Christoph Riplinger    : Improved optimizer, TS searches, QM/MM, DLPNO-CCSD
   Barbara Sandhoefer     : DKH picture change effects
   Igor Schapiro          : Molecular dynamics
   Kantharuban Sivalingam : CASSCF convergence, NEVPT2
   Boris Wezisla          : Elementary symmetry handling
   Frank Wennmohs         : Technical directorship


 We gratefully acknowledge several colleagues who have allowed us to
 interface, adapt or use parts of their codes:
   Stefan Grimme, W. Hujo, H. Kruse, T. Risthaus : VdW corrections, initial TS optimization,
                                                   DFT functionals, gCP
   Ed Valeev                                     : LibInt (2-el integral package), F12 methods
   Garnet Chan, S. Sharma, R. Olivares           : DMRG
   Ulf Ekstrom                                   : XCFun DFT Library
   Mihaly Kallay                                 : mrcc  (arbitrary order and MRCC methods)
   Andreas Klamt, Michael Diedenhofen            : otool_cosmo (COSMO solvation model)
   Frank Weinhold                                : gennbo (NPA and NBO analysis)
   Christopher J. Cramer and Donald G. Truhlar   : smd solvation model


 Your calculation uses the libint2 library for the computation of 2-el integrals
 For citations please refer to: http://libint.valeyev.net

 This ORCA versions uses:
   CBLAS   interface :  Fast vector & matrix operations
   LAPACKE interface :  Fast linear algebra routines
   SCALAPACK package :  Parallel linear algebra routines


Your calculation utilizes the basis: Ahlrichs-TZV
Cite in your paper:
H - Kr: A. Schaefer, H. Horn and R. Ahlrichs, J. Chem. Phys. 97, 2571 (1992).

The def2-TZV basis will be loaded
Cite in your paper:
 	F. Weigend, R. Ahlrichs, Phys. Chem. Chem. Phys. 2005, 7, 3297.

Your calculation utilizes the atom-pairwise dispersion correction
with the Becke-Johnson damping scheme (D3BJ)
Cite in your paper:
S.Grimme, S.Ehrlich, L.Goerigk, J Comput Chem, (2011), 32, 1456–1465 
S.Grimme, J.Antony, S.Ehrlich and H.Krieg, J.Chem.Phys., 132, (2010), 154104 
   

================================================================================
                                        WARNINGS
                       Please study these warnings very carefully!
================================================================================
Now building the actual basis set


INFO   : the flag for use of LIBINT has been found!

================================================================================
                                       INPUT FILE
================================================================================
NAME = 4_B3LYP_SMD_onBP86_SMD_12_waters.inp
|  1> ! B3LYP Def2-TZVP def2-TZVP/J RIJCOSX TightSCF Grid4 D3BJ COSMO
|  2> 
|  3> %pal nprocs 12 end
|  4> 
|  5> %scf
|  6>         maxiter 400
|  7> end
|  8> 
|  9> %cosmo
| 10>         SMD true
| 11>         solvent "WATER"
| 12> end
| 13> 
| 14> * xyz  0  1
| 15> O  0.904218	-3.095578	-0.227893
| 16> H  0.517915	-2.487120	-0.924846
| 17> H  1.008812	-3.965265	-0.661380
| 18> O  -2.765372	1.546274	-0.923281
| 19> H  -2.232254	1.356307	-1.751790
| 20> H  -2.614012	0.732144	-0.372104
| 21> O  2.790146	-1.526608	0.964111
| 22> H  2.236450	-2.222777	0.508908
| 23> H  2.249872	-1.343991	1.785697
| 24> O  -0.925431	3.065912	0.149124
| 25> H  -1.263068	3.940213	0.425736
| 26> H  -1.729109	2.559227	-0.240780
| 27> O  0.977885	-0.959486	2.941220
| 28> H  1.240757	-0.837709	3.874508
| 29> H  0.662506	-0.061221	2.627932
| 30> O  -0.846442	-2.650704	1.826570
| 31> H  -0.219787	-2.117841	2.393315
| 32> H  -0.239918	-2.959744	1.093307
| 33> O  -0.194001	-1.086520	-1.528478
| 34> H  -0.848875	-0.905790	-0.768873
| 35> H  -0.488124	-0.442231	-2.243231
| 36> O  -1.723145	-0.514910	0.547151
| 37> H  -1.554339	-1.381262	1.058442
| 38> H  -1.050439	0.116398	0.963751
| 39> O  0.173378	1.101826	1.508359
| 40> H  0.846026	0.901911	0.770397
| 41> H  -0.233300	1.974016	1.213438
| 42> O  1.765307	0.417805	-0.486942
| 43> H  1.070097	-0.162217	-0.937531
| 44> H  2.315625	-0.264095	0.036656
| 45> O  0.836011	2.600672	-1.848368
| 46> H  0.241583	2.925334	-1.108678
| 47> H  1.388110	1.908290	-1.395525
| 48> O  -0.974371	1.029306	-2.883154
| 49> H  -0.239463	1.685926	-2.589339
| 50> H  -1.112248	1.185903	-3.838030
| 51> **                         ****END OF INPUT****
================================================================================

                       ****************************
                       * Single Point Calculation *
                       ****************************

---------------------------------
CARTESIAN COORDINATES (ANGSTROEM)
---------------------------------
  O      0.904218   -3.095578   -0.227893
  H      0.517915   -2.487120   -0.924846
  H      1.008812   -3.965265   -0.661380
  O     -2.765372    1.546274   -0.923281
  H     -2.232254    1.356307   -1.751790
  H     -2.614012    0.732144   -0.372104
  O      2.790146   -1.526608    0.964111
  H      2.236450   -2.222777    0.508908
  H      2.249872   -1.343991    1.785697
  O     -0.925431    3.065912    0.149124
  H     -1.263068    3.940213    0.425736
  H     -1.729109    2.559227   -0.240780
  O      0.977885   -0.959486    2.941220
  H      1.240757   -0.837709    3.874508
  H      0.662506   -0.061221    2.627932
  O     -0.846442   -2.650704    1.826570
  H     -0.219787   -2.117841    2.393315
  H     -0.239918   -2.959744    1.093307
  O     -0.194001   -1.086520   -1.528478
  H     -0.848875   -0.905790   -0.768873
  H     -0.488124   -0.442231   -2.243231
  O     -1.723145   -0.514910    0.547151
  H     -1.554339   -1.381262    1.058442
  H     -1.050439    0.116398    0.963751
  O      0.173378    1.101826    1.508359
  H      0.846026    0.901911    0.770397
  H     -0.233300    1.974016    1.213438
  O      1.765307    0.417805   -0.486942
  H      1.070097   -0.162217   -0.937531
  H      2.315625   -0.264095    0.036656
  O      0.836011    2.600672   -1.848368
  H      0.241583    2.925334   -1.108678
  H      1.388110    1.908290   -1.395525
  O     -0.974371    1.029306   -2.883154
  H     -0.239463    1.685926   -2.589339
  H     -1.112248    1.185903   -3.838030

----------------------------
CARTESIAN COORDINATES (A.U.)
----------------------------
  NO LB      ZA    FRAG    MASS        X           Y           Z
   0 O     8.0000    0    15.999          1.708724385362006         -5.849794646191681         -0.430655357837716
   1 H     1.0000    0     1.008          0.978717510649825         -4.699975662198224         -1.747705656052534
   2 H     1.0000    0     1.008          1.906378400613366         -7.493264898423252         -1.249827070452837
   3 O     8.0000    0    15.999         -5.225795738414080          2.922034388002949         -1.744748234652947
   4 H     1.0000    0     1.008         -4.218348721350250          2.563048783520331         -3.310403344141909
   5 H     1.0000    0     1.008         -4.939766790783758          1.383551650593641         -0.703174653336633
   6 O     8.0000    0    15.999          5.272611813655844         -2.884871033853254          1.821905752700952
   7 H     1.0000    0     1.008          4.226278012208184         -4.200439786779078          0.961696747361596
   8 H     1.0000    0     1.008          4.251641916377674         -2.539774916454957          3.374478288164778
   9 O     8.0000    0    15.999         -1.748811145840878          5.793734030702772          0.281803519994873
  10 H     1.0000    0     1.008         -2.386852608519648          7.445923479316257          0.804524445351098
  11 H     1.0000    0     1.008         -3.267542465698442          4.836238144536883         -0.455008258525559
  12 O     8.0000    0    15.999          1.847934840469583         -1.813165769331566          5.558100299611864
  13 H     1.0000    0     1.008          2.344690928745730         -1.583040589921038          7.321759023686961
  14 H     1.0000    0     1.008          1.251954902079633         -0.115690923644793          4.966071778567943
  15 O     8.0000    0    15.999         -1.599543568248572         -5.009104622089597          3.451717064436541
  16 H     1.0000    0     1.008         -0.415337237796150         -4.002139485189917          4.522709902205740
  17 H     1.0000    0     1.008         -0.453379314598119         -5.593105586516621          2.066050810299042
  18 O     8.0000    0    15.999         -0.366608759706857         -2.053225239028118         -2.888404821723687
  19 H     1.0000    0     1.008         -1.604141271932403         -1.711695034844531         -1.452959401766435
  20 H     1.0000    0     1.008         -0.922420679394177         -0.835695477930129         -4.239092245122304
  21 O     8.0000    0    15.999         -3.256272139035735         -0.973038883617392          1.033965543901147
  22 H     1.0000    0     1.008         -2.937275029273024         -2.610206899192336          2.000165508639878
  23 H     1.0000    0     1.008         -1.985042030390106          0.219960342536166          1.821225451292740
  24 O     8.0000    0    15.999          0.327636937646999          2.082149387233917          2.850385421635325
  25 H     1.0000    0     1.008          1.598757442176861          1.704364787171050          1.455839344394531
  26 H     1.0000    0     1.008         -0.440873107043828          3.730349623978694          2.293065500493136
  27 O     8.0000    0    15.999          3.335946772294123          0.789537027382968         -0.920187023103882
  28 H     1.0000    0     1.008          2.022190266730730         -0.306545704266304         -1.771676832061325
  29 H     1.0000    0     1.008          4.375897078861398         -0.499067223337933          0.069269801165017
  30 O     8.0000    0    15.999          1.579831834945640          4.914557844157249         -3.492909314703756
  31 H     1.0000    0     1.008          0.456525708611098          5.528080110248391         -2.095097790703546
  32 H     1.0000    0     1.008          2.623147743757428          3.606145484100586         -2.637160063040454
  33 O     8.0000    0    15.999         -1.841294342834984          1.945106448001948         -5.448371461919593
  34 H     1.0000    0     1.008         -0.452519489207185          3.185938422057320         -4.893141577881519
  35 H     1.0000    0     1.008         -2.101844113001644          2.241031891395614         -7.252825593773781

--------------------------------
INTERNAL COORDINATES (ANGSTROEM)
--------------------------------
 O      0   0   0   0.000000     0.000     0.000
 H      1   0   0   1.002594     0.000     0.000
 H      1   2   0   0.977347   105.840     0.000
 O      2   1   3   5.200793   135.536   146.667
 H      4   2   1   1.003359    61.150   167.402
 H      4   2   1   0.994743    43.062   331.189
 O      1   2   3   2.727502   102.775   137.531
 H      7   1   2   0.999220    10.573   232.070
 H      7   1   2   1.000124    95.194   103.825
 O      4   2   1   2.616244    90.379    72.714
 H     10   4   2   0.977198   113.124   188.520
 H     10   4   2   1.026963     6.987   194.337
 O      9   7   1   1.760974   165.723   315.378
 H     13   9   7   0.977219   117.361   188.528
 H     13   9   7   1.002244   102.584   303.915
 O     13   9   7   2.725955    94.567    47.893
 H     16  13   9   0.998919    10.647   128.200
 H     16  13   9   1.000526    94.911   359.078
 O      2   1   3   1.683115   156.534   169.211
 H     19   2   1   1.019080    98.747   320.209
 H     19   2   1   1.006225   155.674   165.981
 O     20  19   2   1.627592   172.084    84.287
 H     22  20  19   1.020039    96.455   267.783
 H     22  20  19   1.012244    97.214    11.129
 O     24  22  20   1.662947   173.432   354.470
 H     25  24  22   1.018337    97.611     2.181
 H     25  24  22   1.006519    96.903   106.333
 O     26  25  24   1.631054   171.566   354.006
 H     28  26  25   1.011322    97.253     9.531
 H     28  26  25   1.020780    96.126   266.077
 O     10   4   2   2.703535    93.176    56.892
 H     31  10   4   1.002941     9.329   142.365
 H     31  10   4   0.994622    98.341   260.408
 O     21  19   2   1.676711   156.609   200.148
 H     34  21  19   1.028381   104.128    53.864
 H     34  21  19   0.977405   123.668   174.638

---------------------------
INTERNAL COORDINATES (A.U.)
---------------------------
 O      0   0   0   0.000000     0.000     0.000
 H      1   0   0   1.894628     0.000     0.000
 H      1   2   0   1.846917   105.840     0.000
 O      2   1   3   9.828074   135.536   146.667
 H      4   2   1   1.896074    61.150   167.402
 H      4   2   1   1.879792    43.062   331.189
 O      1   2   3   5.154231   102.775   137.531
 H      7   1   2   1.888252    10.573   232.070
 H      7   1   2   1.889961    95.194   103.825
 O      4   2   1   4.943986    90.379    72.714
 H     10   4   2   1.846636   113.124   188.520
 H     10   4   2   1.940679     6.987   194.337
 O      9   7   1   3.327758   165.723   315.378
 H     13   9   7   1.846677   117.361   188.528
 H     13   9   7   1.893967   102.584   303.915
 O     13   9   7   5.151309    94.567    47.893
 H     16  13   9   1.887684    10.647   128.200
 H     16  13   9   1.890720    94.911   359.078
 O      2   1   3   3.180627   156.534   169.211
 H     19   2   1   1.925781    98.747   320.209
 H     19   2   1   1.901489   155.674   165.981
 O     20  19   2   3.075702   172.084    84.287
 H     22  20  19   1.927595    96.455   267.783
 H     22  20  19   1.912865    97.214    11.129
 O     24  22  20   3.142515   173.432   354.470
 H     25  24  22   1.924377    97.611     2.181
 H     25  24  22   1.902046    96.903   106.333
 O     26  25  24   3.082246   171.566   354.006
 H     28  26  25   1.911122    97.253     9.531
 H     28  26  25   1.928995    96.126   266.077
 O     10   4   2   5.108940    93.176    56.892
 H     31  10   4   1.895284     9.329   142.365
 H     31  10   4   1.879563    98.341   260.408
 O     21  19   2   3.168524   156.609   200.148
 H     34  21  19   1.943358   104.128    53.864
 H     34  21  19   1.847028   123.668   174.638

---------------------
BASIS SET INFORMATION
---------------------
There are 2 groups of distinct atoms

 Group   1 Type O   : 11s6p2d1f contracted to 5s3p2d1f pattern {62111/411/11/1}
 Group   2 Type H   : 5s1p contracted to 3s1p pattern {311/1}

Atom   0O    basis set group =>   1
Atom   1H    basis set group =>   2
Atom   2H    basis set group =>   2
Atom   3O    basis set group =>   1
Atom   4H    basis set group =>   2
Atom   5H    basis set group =>   2
Atom   6O    basis set group =>   1
Atom   7H    basis set group =>   2
Atom   8H    basis set group =>   2
Atom   9O    basis set group =>   1
Atom  10H    basis set group =>   2
Atom  11H    basis set group =>   2
Atom  12O    basis set group =>   1
Atom  13H    basis set group =>   2
Atom  14H    basis set group =>   2
Atom  15O    basis set group =>   1
Atom  16H    basis set group =>   2
Atom  17H    basis set group =>   2
Atom  18O    basis set group =>   1
Atom  19H    basis set group =>   2
Atom  20H    basis set group =>   2
Atom  21O    basis set group =>   1
Atom  22H    basis set group =>   2
Atom  23H    basis set group =>   2
Atom  24O    basis set group =>   1
Atom  25H    basis set group =>   2
Atom  26H    basis set group =>   2
Atom  27O    basis set group =>   1
Atom  28H    basis set group =>   2
Atom  29H    basis set group =>   2
Atom  30O    basis set group =>   1
Atom  31H    basis set group =>   2
Atom  32H    basis set group =>   2
Atom  33O    basis set group =>   1
Atom  34H    basis set group =>   2
Atom  35H    basis set group =>   2
-------------------------------
AUXILIARY BASIS SET INFORMATION
-------------------------------
There are 2 groups of distinct atoms

 Group   1 Type O   : 12s5p4d2f1g contracted to 6s4p3d1f1g pattern {711111/2111/211/2/1}
 Group   2 Type H   : 5s2p1d contracted to 3s1p1d pattern {311/2/1}

Atom   0O    basis set group =>   1
Atom   1H    basis set group =>   2
Atom   2H    basis set group =>   2
Atom   3O    basis set group =>   1
Atom   4H    basis set group =>   2
Atom   5H    basis set group =>   2
Atom   6O    basis set group =>   1
Atom   7H    basis set group =>   2
Atom   8H    basis set group =>   2
Atom   9O    basis set group =>   1
Atom  10H    basis set group =>   2
Atom  11H    basis set group =>   2
Atom  12O    basis set group =>   1
Atom  13H    basis set group =>   2
Atom  14H    basis set group =>   2
Atom  15O    basis set group =>   1
Atom  16H    basis set group =>   2
Atom  17H    basis set group =>   2
Atom  18O    basis set group =>   1
Atom  19H    basis set group =>   2
Atom  20H    basis set group =>   2
Atom  21O    basis set group =>   1
Atom  22H    basis set group =>   2
Atom  23H    basis set group =>   2
Atom  24O    basis set group =>   1
Atom  25H    basis set group =>   2
Atom  26H    basis set group =>   2
Atom  27O    basis set group =>   1
Atom  28H    basis set group =>   2
Atom  29H    basis set group =>   2
Atom  30O    basis set group =>   1
Atom  31H    basis set group =>   2
Atom  32H    basis set group =>   2
Atom  33O    basis set group =>   1
Atom  34H    basis set group =>   2
Atom  35H    basis set group =>   2
smp-n27.crc.pitt.edu.70370hfi_wait_for_device: The /dev/hfi1_0 device failed to appear after 15.0 seconds: Connection timed out
smp-n27.crc.pitt.edu.70356hfi_wait_for_device: The /dev/hfi1_0 device failed to appear after 15.0 seconds: Connection timed out
smp-n27.crc.pitt.edu.70357hfi_wait_for_device: The /dev/hfi1_0 device failed to appear after 15.0 seconds: Connection timed out
smp-n27.crc.pitt.edu.70358hfi_wait_for_device: The /dev/hfi1_0 device failed to appear after 15.0 seconds: Connection timed out
smp-n27.crc.pitt.edu.70359hfi_wait_for_device: The /dev/hfi1_0 device failed to appear after 15.0 seconds: Connection timed out
smp-n27.crc.pitt.edu.70360hfi_wait_for_device: The /dev/hfi1_0 device failed to appear after 15.0 seconds: Connection timed out
smp-n27.crc.pitt.edu.70362hfi_wait_for_device: The /dev/hfi1_0 device failed to appear after 15.0 seconds: Connection timed out
smp-n27.crc.pitt.edu.70363hfi_wait_for_device: The /dev/hfi1_0 device failed to appear after 15.0 seconds: Connection timed out
smp-n27.crc.pitt.edu.70365hfi_wait_for_device: The /dev/hfi1_0 device failed to appear after 15.0 seconds: Connection timed out
smp-n27.crc.pitt.edu.70367hfi_wait_for_device: The /dev/hfi1_0 device failed to appear after 15.0 seconds: Connection timed out
smp-n27.crc.pitt.edu.70361hfi_wait_for_device: The /dev/hfi1_0 device failed to appear after 15.0 seconds: Connection timed out
smp-n27.crc.pitt.edu.70372hfi_wait_for_device: The /dev/hfi1_0 device failed to appear after 15.0 seconds: Connection timed out


           ************************************************************
           *        Program running with 12 parallel MPI-processes    *
           *              working on a common directory               *
           ************************************************************
------------------------------------------------------------------------------
                           ORCA GTO INTEGRAL CALCULATION
                           -- RI-GTO INTEGRALS CHOSEN --
------------------------------------------------------------------------------

                         BASIS SET STATISTICS AND STARTUP INFO

Gaussian basis set:
 # of primitive gaussian shells          ...  384
 # of primitive gaussian functions       ...  744
 # of contracted shells                  ...  228
 # of contracted basis functions         ...  516
 Highest angular momentum                ...    3
 Maximum contraction depth               ...    6
Auxiliary gaussian basis set:
 # of primitive gaussian shells          ...  480
 # of primitive gaussian functions       ... 1224
 # of contracted shells                  ...  300
 # of contracted aux-basis functions     ...  852
 Highest angular momentum                ...    4
 Maximum contraction depth               ...    7
Ratio of auxiliary to basis functions    ...  1.65
Integral package used                  ... LIBINT
 One Electron integrals                  ... done
 Ordering auxiliary basis shells         ... done
 Integral threshhold             Thresh  ...  2.500e-11
 Primitive cut-off               TCut    ...  2.500e-12
 Pre-screening matrix                    ... done
 Shell pair data                         ... 
 Ordering of the shell pairs             ... done (   0.003 sec) 19894 of 26106 pairs
 Determination of significant pairs      ... done (   0.000 sec)
 Creation of shell pair data             ... done (   0.002 sec)
 Storage of shell pair data              ... done (   0.003 sec)
 Shell pair data done in (   0.008 sec)
 Computing two index integrals           ... done
 Cholesky decomposition of the V-matrix  ... done


Timings:
 Total evaluation time                   ...   0.366 sec (  0.006 min)
 One electron matrix time                ...   0.108 sec (  0.002 min) = 29.4%
 Schwartz matrix evaluation time         ...   0.201 sec (  0.003 min) = 55.0%
 Two index repulsion integral time       ...   0.020 sec (  0.000 min) =  5.3%
 Cholesky decomposition of V             ...   0.016 sec (  0.000 min) =  4.3%
 Three index repulsion integral time     ...   0.000 sec (  0.000 min) =  0.0%

           ************************************************************
           *              Shut down parallel processing               *
           ************************************************************
smp-n27.crc.pitt.edu.70409hfi_wait_for_device: The /dev/hfi1_0 device failed to appear after 15.0 seconds: Connection timed out
smp-n27.crc.pitt.edu.70410hfi_wait_for_device: The /dev/hfi1_0 device failed to appear after 15.0 seconds: Connection timed out
smp-n27.crc.pitt.edu.70411hfi_wait_for_device: The /dev/hfi1_0 device failed to appear after 15.0 seconds: Connection timed out
smp-n27.crc.pitt.edu.70412hfi_wait_for_device: The /dev/hfi1_0 device failed to appear after 15.0 seconds: Connection timed out
smp-n27.crc.pitt.edu.70414hfi_wait_for_device: The /dev/hfi1_0 device failed to appear after 15.0 seconds: Connection timed out
smp-n27.crc.pitt.edu.70415hfi_wait_for_device: The /dev/hfi1_0 device failed to appear after 15.0 seconds: Connection timed out
smp-n27.crc.pitt.edu.70417hfi_wait_for_device: The /dev/hfi1_0 device failed to appear after 15.0 seconds: Connection timed out
smp-n27.crc.pitt.edu.70422hfi_wait_for_device: The /dev/hfi1_0 device failed to appear after 15.0 seconds: Connection timed out
smp-n27.crc.pitt.edu.70424hfi_wait_for_device: The /dev/hfi1_0 device failed to appear after 15.0 seconds: Connection timed out
smp-n27.crc.pitt.edu.70419hfi_wait_for_device: The /dev/hfi1_0 device failed to appear after 15.0 seconds: Connection timed out
smp-n27.crc.pitt.edu.70408hfi_wait_for_device: The /dev/hfi1_0 device failed to appear after 15.0 seconds: Connection timed out
smp-n27.crc.pitt.edu.70413hfi_wait_for_device: The /dev/hfi1_0 device failed to appear after 15.0 seconds: Connection timed out


           ************************************************************
           *        Program running with 12 parallel MPI-processes    *
           *              working on a common directory               *
           ************************************************************
-------------------------------------------------------------------------------
                                 ORCA SCF
-------------------------------------------------------------------------------

------------
SCF SETTINGS
------------
Hamiltonian:
 Density Functional     Method          .... DFT(GTOs)
 Exchange Functional    Exchange        .... B88
   X-Alpha parameter    XAlpha          ....  0.666667
   Becke's b parameter  XBeta           ....  0.004200
 Correlation Functional Correlation     .... LYP
 LDA part of GGA corr.  LDAOpt          .... VWN-5
 Gradients option       PostSCFGGA      .... off
 Hybrid DFT is turned on
   Fraction HF Exchange ScalHFX         ....  0.200000
   Scaling of DF-GGA-X  ScalDFX         ....  0.720000
   Scaling of DF-GGA-C  ScalDFC         ....  0.810000
   Scaling of DF-LDA-C  ScalLDAC        ....  1.000000
   Perturbative correction              ....  0.000000
   NL short-range parameter             ....  4.800000
 RI-approximation to the Coulomb term is turned on
   Number of auxiliary basis functions  .... 852
   RIJ-COSX (HFX calculated with COS-X)).... on


General Settings:
 Integral files         IntName         .... 4_B3LYP_SMD_onBP86_SMD_12_waters
 Hartree-Fock type      HFTyp           .... RHF
 Total Charge           Charge          ....    0
 Multiplicity           Mult            ....    1
 Number of Electrons    NEL             ....  120
 Basis Dimension        Dim             ....  516
 Nuclear Repulsion      ENuc            ....   1055.3636832780 Eh

Convergence Acceleration:
 DIIS                   CNVDIIS         .... on
   Start iteration      DIISMaxIt       ....    12
   Startup error        DIISStart       ....  0.200000
   # of expansion vecs  DIISMaxEq       ....     5
   Bias factor          DIISBfac        ....   1.050
   Max. coefficient     DIISMaxC        ....  10.000
 Newton-Raphson         CNVNR           .... off
 SOSCF                  CNVSOSCF        .... on
   Start iteration      SOSCFMaxIt      ....   150
   Startup grad/error   SOSCFStart      ....  0.003300
 Level Shifting         CNVShift        .... on
   Level shift para.    LevelShift      ....    0.2500
   Turn off err/grad.   ShiftErr        ....    0.0010
 Zerner damping         CNVZerner       .... off
 Static damping         CNVDamp         .... on
   Fraction old density DampFac         ....    0.7000
   Max. Damping (<1)    DampMax         ....    0.9800
   Min. Damping (>=0)   DampMin         ....    0.0000
   Turn off err/grad.   DampErr         ....    0.1000
 Fernandez-Rico         CNVRico         .... off

SCF Procedure:
 Maximum # iterations   MaxIter         ....   400
 SCF integral mode      SCFMode         .... Direct
   Integral package                     .... LIBINT
 Reset frequeny         DirectResetFreq ....    20
 Integral Threshold     Thresh          ....  2.500e-11 Eh
 Primitive CutOff       TCut            ....  2.500e-12 Eh

Convergence Tolerance:
 Convergence Check Mode ConvCheckMode   .... Total+1el-Energy
 Energy Change          TolE            ....  1.000e-08 Eh
 1-El. energy change                    ....  1.000e-05 Eh
 Orbital Gradient       TolG            ....  1.000e-05
 Orbital Rotation angle TolX            ....  1.000e-05
 DIIS Error             TolErr          ....  5.000e-07


Diagonalization of the overlap matrix:
Smallest eigenvalue                        ... 1.896e-03
Time for diagonalization                   ...    0.052 sec
Threshold for overlap eigenvalues          ... 1.000e-08
Number of eigenvalues below threshold      ... 0
Time for construction of square roots      ...    0.026 sec
Total time needed                          ...    0.079 sec

-------------------
DFT GRID GENERATION
-------------------

General Integration Accuracy     IntAcc      ...  4.670
Radial Grid Type                 RadialGrid  ... Gauss-Chebyshev
Angular Grid (max. acc.)         AngularGrid ... Lebedev-302
Angular grid pruning method      GridPruning ... 3 (G Style)
Weight generation scheme         WeightScheme... Becke
Basis function cutoff            BFCut       ...    1.0000e-11
Integration weight cutoff        WCut        ...    1.0000e-14
Grids for H and He will be reduced by one unit

# of grid points (after initial pruning)     ... 156000 (   0.0 sec)
# of grid points (after weights+screening)   ... 137408 (   0.1 sec)
nearest neighbour list constructed           ...    0.0 sec
Grid point re-assignment to atoms done       ...    0.0 sec
Grid point division into batches done        ...    0.3 sec
Reduced shell lists constructed in    0.5 sec

Total number of grid points                  ...   137408
Total number of batches                      ...     2167
Average number of points per batch           ...       63
Average number of grid points per atom       ...     3817
Average number of shells per batch           ...    90.48 (39.69%)
Average number of basis functions per batch  ...   173.82 (33.69%)
Average number of large shells per batch     ...    57.80 (63.88%)
Average number of large basis fcns per batch ...   107.82 (62.03%)
Maximum spatial batch extension              ...  22.65, 14.17, 15.11 au
Average spatial batch extension              ...   0.21,  0.18,  0.20 au

Time for grid setup =    0.665 sec

------------------------------
INITIAL GUESS: MODEL POTENTIAL
------------------------------
Loading Hartree-Fock densities                     ... done
Calculating cut-offs                               ... done
Setting up the integral package                    ... done
Initializing the effective Hamiltonian             ... done
Starting the Coulomb interaction                   ... done (   0.1 sec)
Reading the grid                                   ... done
Mapping shells                                     ... done
Starting the XC term evaluation                    ... done (   0.3 sec)
  promolecular density results
     # of electrons  =    119.985834211
     EX              =   -105.503816332
     EC              =     -4.172342152
     EX+EC           =   -109.676158484
Transforming the Hamiltonian                       ... done (   0.0 sec)
Diagonalizing the Hamiltonian                      ... done (   0.1 sec)
Back transforming the eigenvectors                 ... done (   0.0 sec)
Now organizing SCF variables                       ... done
                      ------------------
                      INITIAL GUESS DONE (   1.2 sec)
                      ------------------
--------------------
COSX GRID GENERATION
--------------------

General Integration Accuracy     IntAcc      ...  3.340
Radial Grid Type                 RadialGrid  ... Gauss-Chebyshev
Angular Grid (max. acc.)         AngularGrid ... Lebedev-50
Angular grid pruning method      GridPruning ... 3 (G Style)
Weight generation scheme         WeightScheme... Becke
Basis function cutoff            BFCut       ...    1.0000e-11
Integration weight cutoff        WCut        ...    1.0000e-14
Grids for H and He will be reduced by one unit

# of grid points (after initial pruning)     ...  14640 (   0.0 sec)
# of grid points (after weights+screening)   ...  13104 (   0.0 sec)
nearest neighbour list constructed           ...    0.0 sec
Grid point re-assignment to atoms done       ...    0.0 sec
Grid point division into batches done        ...    0.0 sec
Reduced shell lists constructed in    0.0 sec

Total number of grid points                  ...    13104
Total number of batches                      ...      221
Average number of points per batch           ...       59
Average number of grid points per atom       ...      364
Average number of shells per batch           ...   103.15 (45.24%)
Average number of basis functions per batch  ...   205.05 (39.74%)
Average number of large shells per batch     ...    67.40 (65.34%)
Average number of large basis fcns per batch ...   128.80 (62.81%)
Maximum spatial batch extension              ...  16.92, 10.51, 14.91 au
Average spatial batch extension              ...   0.50,  0.35,  0.45 au

Overlap Fitting                  UseSFitting ... on
Constructing numerical overlap ... done (      0.0 sec)
Inverting numerical overlap    ... done (      0.0 sec)
Obtaining analytic overlap     ... done (      0.0 sec)
Final contraction and storage  ... done (      0.0 sec)


General Integration Accuracy     IntAcc      ...  3.670
Radial Grid Type                 RadialGrid  ... Gauss-Chebyshev
Angular Grid (max. acc.)         AngularGrid ... Lebedev-50
Angular grid pruning method      GridPruning ... 3 (G Style)
Weight generation scheme         WeightScheme... Becke
Basis function cutoff            BFCut       ...    1.0000e-11
Integration weight cutoff        WCut        ...    1.0000e-14
Grids for H and He will be reduced by one unit

# of grid points (after initial pruning)     ...  19224 (   0.0 sec)
# of grid points (after weights+screening)   ...  17190 (   0.0 sec)
nearest neighbour list constructed           ...    0.0 sec
Grid point re-assignment to atoms done       ...    0.0 sec
Grid point division into batches done        ...    0.0 sec
Reduced shell lists constructed in    0.0 sec

Total number of grid points                  ...    17190
Total number of batches                      ...      287
Average number of points per batch           ...       59
Average number of grid points per atom       ...      478
Average number of shells per batch           ...   102.80 (45.09%)
Average number of basis functions per batch  ...   203.20 (39.38%)
Average number of large shells per batch     ...    66.60 (64.79%)
Average number of large basis fcns per batch ...   126.12 (62.07%)
Maximum spatial batch extension              ...  18.51, 11.32, 16.02 au
Average spatial batch extension              ...   0.44,  0.32,  0.39 au

Overlap Fitting                  UseSFitting ... on
Constructing numerical overlap ... done (      0.0 sec)
Inverting numerical overlap    ... done (      0.0 sec)
Obtaining analytic overlap     ... done (      0.0 sec)
Final contraction and storage  ... done (      0.0 sec)


General Integration Accuracy     IntAcc      ...  4.010
Radial Grid Type                 RadialGrid  ... Gauss-Chebyshev
Angular Grid (max. acc.)         AngularGrid ... Lebedev-110
Angular grid pruning method      GridPruning ... 3 (G Style)
Weight generation scheme         WeightScheme... Becke
Basis function cutoff            BFCut       ...    1.0000e-11
Integration weight cutoff        WCut        ...    1.0000e-14
Grids for H and He will be reduced by one unit

# of grid points (after initial pruning)     ...  33096 (   0.0 sec)
# of grid points (after weights+screening)   ...  29790 (   0.0 sec)
nearest neighbour list constructed           ...    0.0 sec
Grid point re-assignment to atoms done       ...    0.0 sec
Grid point division into batches done        ...    0.0 sec
Reduced shell lists constructed in    0.1 sec

Total number of grid points                  ...    29790
Total number of batches                      ...      483
Average number of points per batch           ...       61
Average number of grid points per atom       ...      828
Average number of shells per batch           ...   100.14 (43.92%)
Average number of basis functions per batch  ...   196.52 (38.09%)
Average number of large shells per batch     ...    64.33 (64.24%)
Average number of large basis fcns per batch ...   121.38 (61.76%)
Maximum spatial batch extension              ...  21.90, 10.92, 17.32 au
Average spatial batch extension              ...   0.37,  0.28,  0.33 au

Overlap Fitting                  UseSFitting ... on
Constructing numerical overlap ... done (      0.0 sec)
Inverting numerical overlap    ... done (      0.0 sec)
Obtaining analytic overlap     ... done (      0.0 sec)
Final contraction and storage  ... done (      0.0 sec)

Time for X-Grid setup             =    0.389 sec

--------------------
COSMO INITIALIZATION
--------------------

Epsilon                                      ...   78.3550
Refractive Index                             ...    1.3300
Potential Evaluation                         ...  ANALYTIC
Technical COSMO parameters:
  rsolv                                      ...    1.3000
  routf                                      ...    0.8500
  disex                                      ...   10.0000
  nppa                                       ... 1082   
  nspa                                       ...   92   
Solvent:                                     ... WATER
Solvent:                                     ... WATER
SMD-CDS solvent descriptors:
  Soln                                       ...    1.3328
  Soln25                                     ...    1.3323
  Sola                                       ...    0.0000
  Solb                                       ...    0.0000
  Solg                                       ...    0.0000
  Solc                                       ...    0.0000
  Solh                                       ...    0.0000
Radii:
 Radius for O  used is    2.8724 Bohr (=   1.5200 Ang.)
 Radius for H  used is    2.2677 Bohr (=   1.2000 Ang.)
Initializing COSMO package            ... done
Setting COSMO radii                   ... done
Setting atoms and making cavity       ...  USING 1082 GRID
done
Cholesky decomposition of A           ... done
--------------
SCF ITERATIONS
--------------
ITER       Energy         Delta-E        Max-DP      RMS-DP      [F,P]     Damp
               ***  Starting incremental Fock matrix formation  ***
  0   -916.4582549739   0.000000000000 0.05339471  0.00100371  0.3107897 0.7000
  1   -916.8904823038  -0.432227329895 0.03376990  0.00061756  0.1315464 0.7000
                               ***Turning on DIIS***
  2   -917.0352510454  -0.144768741620 0.03739416  0.00075716  0.0344908 0.0000
  3   -917.2828324774  -0.247581431978 0.02098905  0.00038766  0.0736785 0.0000
  4   -917.3321404650  -0.049307987582 0.00463245  0.00011820  0.0156478 0.0000
  5   -917.3342185593  -0.002078094259 0.00182519  0.00004061  0.0033838 0.0000
                      *** Initiating the SOSCF procedure ***
                           *** Shutting down DIIS ***
                      *** Re-Reading the Fockian *** 
                      *** Removing any level shift *** 
ITER      Energy       Delta-E        Grad      Rot      Max-DP    RMS-DP
  6   -917.33430995  -0.0000913910  0.000274  0.000274  0.000597  0.000015
               *** Restarting incremental Fock matrix formation ***
  7   -917.33433362  -0.0000236716  0.000111  0.000263  0.000362  0.000008
  8   -917.33433446  -0.0000008387  0.000054  0.000086  0.000154  0.000003
  9   -917.33433456  -0.0000001006  0.000037  0.000074  0.000105  0.000002
 10   -917.33433474  -0.0000001771  0.000006  0.000009  0.000019  0.000000
 11   -917.33433480  -0.0000000580  0.000010  0.000005  0.000013  0.000000
                  ***Gradient check signals convergence***
              ***Rediagonalizing the Fockian in SOSCF/NRSCF***

               *****************************************************
               *                     SUCCESS                       *
               *           SCF CONVERGED AFTER  12 CYCLES          *
               *****************************************************

Setting up the final grid:

General Integration Accuracy     IntAcc      ...  5.010
Radial Grid Type                 RadialGrid  ... Gauss-Chebyshev
Angular Grid (max. acc.)         AngularGrid ... Lebedev-434
Angular grid pruning method      GridPruning ... 3 (G Style)
Weight generation scheme         WeightScheme... Becke
Basis function cutoff            BFCut       ...    1.0000e-11
Integration weight cutoff        WCut        ...    1.0000e-14
Grids for H and He will be reduced by one unit

# of grid points (after initial pruning)     ... 290712 (   0.0 sec)
# of grid points (after weights+screening)   ... 255303 (   0.2 sec)
nearest neighbour list constructed           ...    0.0 sec
Grid point re-assignment to atoms done       ...    0.0 sec
Grid point division into batches done        ...    1.2 sec
Reduced shell lists constructed in    1.5 sec

Total number of grid points                  ...   255303
Total number of batches                      ...     4007
Average number of points per batch           ...       63
Average number of grid points per atom       ...     7092
Average number of shells per batch           ...    87.59 (38.41%)
Average number of basis functions per batch  ...   166.77 (32.32%)
Average number of large shells per batch     ...    55.81 (63.72%)
Average number of large basis fcns per batch ...   103.92 (62.31%)
Maximum spatial batch extension              ...  14.39, 13.59, 16.58 au
Average spatial batch extension              ...   0.16,  0.15,  0.17 au

Final grid set up in    1.8 sec
Final integration                            ... done (   0.6 sec)
Change in XC energy                          ...    -0.000088838
Integrated number of electrons               ...   119.999651915
Previous integrated no of electrons          ...   119.999048222
Old exchange energy                            =    -21.415492638 Eh
New exchange energy                            =    -21.414539830 Eh
Exchange energy change after final integration =      0.000952808 Eh
Total energy after final integration           =   -917.333470803 Eh
Final COS-X integration done in                =     3.685 sec
   1.89474368242572       -4.01683154658501       0.465329261101267     
  6.344536496301684E-004  8.049910166566177E-002  7.881499749714664E-003
Total Energy after outlying charge correction =   -917.338121285 Eh

SMD CDS free energy correction energy :                 6.65700     Kcal/mol
Total Energy after SMD CDS correction =              -917.322862200 Eh

----------------
TOTAL SCF ENERGY
----------------

Total Energy       :         -917.32286220 Eh          -24961.62410 eV
Total Energy       :         -917.32286220 Eh          -24961.62410 eV
COSMO(ediel)       :           -0.05944972 Eh              -1.61771 eV
SMD CDS (Gcds)     :            0.01060860 Eh               0.28867 eV

Components:
Nuclear Repulsion  :         1055.36368328 Eh           28717.90581 eV
Electronic Energy  :        -1972.68654548 Eh          -53679.52992 eV

One Electron Energy:        -3366.62388128 Eh          -91610.49320 eV
Two Electron Energy:         1393.93733580 Eh           37930.96328 eV

Virial components:
Potential Energy   :        -1830.74660168 Eh          -49817.14769 eV
Kinetic Energy     :          913.42373948 Eh           24855.52358 eV
Virial Ratio       :            2.00426869


DFT components:
N(Alpha)           :       59.999825957685 electrons
N(Beta)            :       59.999825957685 electrons
N(Total)           :      119.999651915370 electrons
E(X)               :      -85.370999767298 Eh       
E(C)               :       -4.926471245012 Eh       
E(XC)              :      -90.297471012310 Eh       

---------------
SCF CONVERGENCE
---------------

  Last Energy change         ...    2.2767e-08  Tolerance :   1.0000e-08
  Last MAX-Density change    ...    2.0317e-14  Tolerance :   1.0000e-07
  Last RMS-Density change    ...    3.7044e-16  Tolerance :   5.0000e-09
  Last Orbital Gradient      ...    7.3157e-07  Tolerance :   1.0000e-05
  Last Orbital Rotation      ...    9.3405e-07  Tolerance :   1.0000e-05

             **** THE GBW FILE WAS UPDATED (4_B3LYP_SMD_onBP86_SMD_12_waters.gbw) ****
             **** DENSITY FILE WAS UPDATED (4_B3LYP_SMD_onBP86_SMD_12_waters.scfp.tmp) ****
             **** ENERGY FILE WAS UPDATED (4_B3LYP_SMD_onBP86_SMD_12_waters.en.tmp) ****
----------------
ORBITAL ENERGIES
----------------

  NO   OCC          E(Eh)            E(eV) 
   0   2.0000     -19.138276      -520.7790 
   1   2.0000     -19.138111      -520.7745 
   2   2.0000     -19.133598      -520.6517 
   3   2.0000     -19.133091      -520.6379 
   4   2.0000     -19.123758      -520.3839 
   5   2.0000     -19.123410      -520.3744 
   6   2.0000     -19.123120      -520.3666 
   7   2.0000     -19.122852      -520.3593 
   8   2.0000     -19.120590      -520.2977 
   9   2.0000     -19.120452      -520.2940 
  10   2.0000     -19.119051      -520.2558 
  11   2.0000     -19.118601      -520.2436 
  12   2.0000      -1.034658       -28.1545 
  13   2.0000      -1.023904       -27.8618 
  14   2.0000      -1.020347       -27.7650 
  15   2.0000      -1.012315       -27.5465 
  16   2.0000      -1.010213       -27.4893 
  17   2.0000      -1.009356       -27.4660 
  18   2.0000      -1.000469       -27.2242 
  19   2.0000      -0.996045       -27.1038 
  20   2.0000      -0.991794       -26.9881 
  21   2.0000      -0.987382       -26.8680 
  22   2.0000      -0.984384       -26.7865 
  23   2.0000      -0.969366       -26.3778 
  24   2.0000      -0.552199       -15.0261 
  25   2.0000      -0.551867       -15.0171 
  26   2.0000      -0.538165       -14.6442 
  27   2.0000      -0.534222       -14.5369 
  28   2.0000      -0.532042       -14.4776 
  29   2.0000      -0.526919       -14.3382 
  30   2.0000      -0.519029       -14.1235 
  31   2.0000      -0.518762       -14.1162 
  32   2.0000      -0.512347       -13.9417 
  33   2.0000      -0.509681       -13.8691 
  34   2.0000      -0.509660       -13.8686 
  35   2.0000      -0.507020       -13.7967 
  36   2.0000      -0.470675       -12.8077 
  37   2.0000      -0.450124       -12.2485 
  38   2.0000      -0.437458       -11.9038 
  39   2.0000      -0.426655       -11.6099 
  40   2.0000      -0.413885       -11.2624 
  41   2.0000      -0.408895       -11.1266 
  42   2.0000      -0.406055       -11.0493 
  43   2.0000      -0.403647       -10.9838 
  44   2.0000      -0.390177       -10.6173 
  45   2.0000      -0.380366       -10.3503 
  46   2.0000      -0.373562       -10.1651 
  47   2.0000      -0.358124        -9.7450 
  48   2.0000      -0.332691        -9.0530 
  49   2.0000      -0.329724        -8.9722 
  50   2.0000      -0.328282        -8.9330 
  51   2.0000      -0.326688        -8.8896 
  52   2.0000      -0.322493        -8.7755 
  53   2.0000      -0.321368        -8.7449 
  54   2.0000      -0.318018        -8.6537 
  55   2.0000      -0.317870        -8.6497 
  56   2.0000      -0.317383        -8.6364 
  57   2.0000      -0.314423        -8.5559 
  58   2.0000      -0.310321        -8.4443 
  59   2.0000      -0.310002        -8.4356 
  60   0.0000       0.015480         0.4212 
  61   0.0000       0.040673         1.1068 
  62   0.0000       0.052791         1.4365 
  63   0.0000       0.065175         1.7735 
  64   0.0000       0.088228         2.4008 
  65   0.0000       0.093620         2.5475 
  66   0.0000       0.124834         3.3969 
  67   0.0000       0.128519         3.4972 
  68   0.0000       0.132105         3.5948 
  69   0.0000       0.132216         3.5978 
  70   0.0000       0.171491         4.6665 
  71   0.0000       0.179977         4.8974 
  72   0.0000       0.193495         5.2653 
  73   0.0000       0.195243         5.3128 
  74   0.0000       0.204667         5.5693 
  75   0.0000       0.211824         5.7640 
  76   0.0000       0.212021         5.7694 
  77   0.0000       0.216087         5.8800 
  78   0.0000       0.217389         5.9154 
  79   0.0000       0.225741         6.1427 
  80   0.0000       0.229940         6.2570 
  81   0.0000       0.232907         6.3377 
  82   0.0000       0.244808         6.6616 
  83   0.0000       0.247905         6.7458 
  84   0.0000       0.251056         6.8316 
  85   0.0000       0.276831         7.5330 
  86   0.0000       0.291978         7.9451 
  87   0.0000       0.299074         8.1382 
  88   0.0000       0.300956         8.1894 
  89   0.0000       0.313358         8.5269 
  90   0.0000       0.315283         8.5793 
  91   0.0000       0.323599         8.8056 
  92   0.0000       0.325784         8.8650 
  93   0.0000       0.335272         9.1232 
  94   0.0000       0.341786         9.3005 
  95   0.0000       0.344324         9.3695 
  96   0.0000       0.359098         9.7715 
  97   0.0000       0.360989         9.8230 
  98   0.0000       0.369399        10.0519 
  99   0.0000       0.375586        10.2202 
 100   0.0000       0.387085        10.5331 
 101   0.0000       0.387545        10.5456 
 102   0.0000       0.397545        10.8178 
 103   0.0000       0.405289        11.0285 
 104   0.0000       0.425918        11.5898 
 105   0.0000       0.428419        11.6579 
 106   0.0000       0.439500        11.9594 
 107   0.0000       0.453894        12.3511 
 108   0.0000       0.478749        13.0274 
 109   0.0000       0.485850        13.2206 
 110   0.0000       0.492439        13.3999 
 111   0.0000       0.502564        13.6755 
 112   0.0000       0.505378        13.7520 
 113   0.0000       0.506535        13.7835 
 114   0.0000       0.527623        14.3573 
 115   0.0000       0.534294        14.5389 
 116   0.0000       0.537973        14.6390 
 117   0.0000       0.559381        15.2215 
 118   0.0000       0.569526        15.4976 
 119   0.0000       0.582751        15.8575 
 120   0.0000       0.589926        16.0527 
 121   0.0000       0.602984        16.4080 
 122   0.0000       0.614910        16.7325 
 123   0.0000       0.619593        16.8600 
 124   0.0000       0.621133        16.9019 
 125   0.0000       0.631952        17.1963 
 126   0.0000       0.654909        17.8210 
 127   0.0000       0.658187        17.9102 
 128   0.0000       0.662637        18.0313 
 129   0.0000       0.664404        18.0793 
 130   0.0000       0.667887        18.1741 
 131   0.0000       0.674683        18.3591 
 132   0.0000       0.680511        18.5176 
 133   0.0000       0.681830        18.5535 
 134   0.0000       0.688552        18.7365 
 135   0.0000       0.706032        19.2121 
 136   0.0000       0.707910        19.2632 
 137   0.0000       0.752971        20.4894 
 138   0.0000       0.756028        20.5726 
 139   0.0000       0.763056        20.7638 
 140   0.0000       0.796065        21.6620 
 141   0.0000       0.800621        21.7860 
 142   0.0000       0.850093        23.1322 
 143   0.0000       0.856276        23.3005 
 144   0.0000       0.873935        23.7810 
 145   0.0000       0.879359        23.9286 
 146   0.0000       0.892513        24.2865 
 147   0.0000       0.893100        24.3025 
 148   0.0000       0.903056        24.5734 
 149   0.0000       0.909271        24.7425 
 150   0.0000       0.921283        25.0694 
 151   0.0000       0.974384        26.5143 
 152   0.0000       0.993849        27.0440 
 153   0.0000       0.994109        27.0511 
 154   0.0000       1.009440        27.4683 
 155   0.0000       1.081400        29.4264 
 156   0.0000       1.123083        30.5607 
 157   0.0000       1.134697        30.8767 
 158   0.0000       1.143626        31.1196 
 159   0.0000       1.151700        31.3394 
 160   0.0000       1.158590        31.5268 
 161   0.0000       1.159054        31.5395 
 162   0.0000       1.164829        31.6966 
 163   0.0000       1.172544        31.9065 
 164   0.0000       1.185506        32.2593 
 165   0.0000       1.189150        32.3584 
 166   0.0000       1.190767        32.4024 
 167   0.0000       1.192835        32.4587 
 168   0.0000       1.209585        32.9145 
 169   0.0000       1.210870        32.9495 
 170   0.0000       1.225258        33.3410 
 171   0.0000       1.252514        34.0826 
 172   0.0000       1.273980        34.6668 
 173   0.0000       1.296052        35.2674 
 174   0.0000       1.298065        35.3222 
 175   0.0000       1.303551        35.4714 
 176   0.0000       1.319925        35.9170 
 177   0.0000       1.331764        36.2392 
 178   0.0000       1.333977        36.2994 
 179   0.0000       1.340967        36.4896 
 180   0.0000       1.342855        36.5409 
 181   0.0000       1.360191        37.0127 
 182   0.0000       1.361648        37.0523 
 183   0.0000       1.364389        37.1269 
 184   0.0000       1.367518        37.2120 
 185   0.0000       1.370229        37.2858 
 186   0.0000       1.385071        37.6897 
 187   0.0000       1.394414        37.9439 
 188   0.0000       1.395476        37.9728 
 189   0.0000       1.400762        38.1167 
 190   0.0000       1.406289        38.2671 
 191   0.0000       1.421064        38.6691 
 192   0.0000       1.534387        41.7528 
 193   0.0000       1.546717        42.0883 
 194   0.0000       1.627251        44.2797 
 195   0.0000       1.643029        44.7091 
 196   0.0000       1.646782        44.8112 
 197   0.0000       1.659328        45.1526 
 198   0.0000       1.663957        45.2786 
 199   0.0000       1.675871        45.6028 
 200   0.0000       1.678133        45.6643 
 201   0.0000       1.681761        45.7630 
 202   0.0000       1.688663        45.9509 
 203   0.0000       1.695101        46.1260 
 204   0.0000       1.706412        46.4338 
 205   0.0000       1.711666        46.5768 
 206   0.0000       1.718171        46.7538 
 207   0.0000       1.727436        47.0059 
 208   0.0000       1.738793        47.3150 
 209   0.0000       1.745951        47.5097 
 210   0.0000       1.750135        47.6236 
 211   0.0000       1.766671        48.0735 
 212   0.0000       1.777922        48.3797 
 213   0.0000       1.794842        48.8401 
 214   0.0000       1.803295        49.0701 
 215   0.0000       1.844202        50.1833 
 216   0.0000       1.863480        50.7079 
 217   0.0000       1.867257        50.8107 
 218   0.0000       1.876839        51.0714 
 219   0.0000       1.890202        51.4350 
 220   0.0000       1.909836        51.9693 
 221   0.0000       1.911786        52.0223 
 222   0.0000       1.934013        52.6272 
 223   0.0000       1.937246        52.7152 
 224   0.0000       1.943667        52.8899 
 225   0.0000       1.961612        53.3782 
 226   0.0000       1.963684        53.4345 
 227   0.0000       1.986983        54.0686 
 228   0.0000       1.991924        54.2030 
 229   0.0000       1.996141        54.3178 
 230   0.0000       2.008136        54.6442 
 231   0.0000       2.014994        54.8308 
 232   0.0000       2.030077        55.2412 
 233   0.0000       2.045206        55.6529 
 234   0.0000       2.058441        56.0130 
 235   0.0000       2.076453        56.5032 
 236   0.0000       2.079745        56.5927 
 237   0.0000       2.084410        56.7197 
 238   0.0000       2.086904        56.7875 
 239   0.0000       2.094068        56.9825 
 240   0.0000       2.109882        57.4128 
 241   0.0000       2.122339        57.7518 
 242   0.0000       2.123837        57.7925 
 243   0.0000       2.131674        58.0058 
 244   0.0000       2.154163        58.6178 
 245   0.0000       2.164601        58.9018 
 246   0.0000       2.170182        59.0537 
 247   0.0000       2.182890        59.3995 
 248   0.0000       2.203199        59.9521 
 249   0.0000       2.204895        59.9982 
 250   0.0000       2.218699        60.3739 
 251   0.0000       2.227552        60.6148 
 252   0.0000       2.232834        60.7585 
 253   0.0000       2.248581        61.1870 
 254   0.0000       2.259701        61.4896 
 255   0.0000       2.261399        61.5358 
 256   0.0000       2.285065        62.1798 
 257   0.0000       2.287007        62.2326 
 258   0.0000       2.295320        62.4588 
 259   0.0000       2.309150        62.8352 
 260   0.0000       2.314282        62.9748 
 261   0.0000       2.325284        63.2742 
 262   0.0000       2.328225        63.3542 
 263   0.0000       2.344341        63.7927 
 264   0.0000       2.345686        63.8294 
 265   0.0000       2.352460        64.0137 
 266   0.0000       2.368497        64.4501 
 267   0.0000       2.371832        64.5408 
 268   0.0000       2.377675        64.6998 
 269   0.0000       2.383756        64.8653 
 270   0.0000       2.385146        64.9031 
 271   0.0000       2.390873        65.0590 
 272   0.0000       2.394205        65.1496 
 273   0.0000       2.400651        65.3250 
 274   0.0000       2.411726        65.6264 
 275   0.0000       2.413354        65.6707 
 276   0.0000       2.414461        65.7008 
 277   0.0000       2.419050        65.8257 
 278   0.0000       2.441536        66.4376 
 279   0.0000       2.449124        66.6441 
 280   0.0000       2.481743        67.5317 
 281   0.0000       2.482849        67.5618 
 282   0.0000       2.494253        67.8721 
 283   0.0000       2.496636        67.9369 
 284   0.0000       2.519632        68.5627 
 285   0.0000       2.531705        68.8912 
 286   0.0000       2.537812        69.0574 
 287   0.0000       2.545357        69.2627 
 288   0.0000       2.549783        69.3831 
 289   0.0000       2.595484        70.6267 
 290   0.0000       2.610180        71.0266 
 291   0.0000       2.619934        71.2920 
 292   0.0000       2.623285        71.3832 
 293   0.0000       2.632047        71.6216 
 294   0.0000       2.639403        71.8218 
 295   0.0000       2.646789        72.0228 
 296   0.0000       2.661157        72.4138 
 297   0.0000       2.670589        72.6704 
 298   0.0000       2.674631        72.7804 
 299   0.0000       2.690606        73.2151 
 300   0.0000       2.692985        73.2798 
 301   0.0000       2.718324        73.9693 
 302   0.0000       2.729244        74.2665 
 303   0.0000       2.736470        74.4631 
 304   0.0000       2.739223        74.5380 
 305   0.0000       2.745589        74.7113 
 306   0.0000       2.768760        75.3418 
 307   0.0000       2.802344        76.2557 
 308   0.0000       2.844973        77.4156 
 309   0.0000       2.868691        78.0610 
 310   0.0000       2.894092        78.7523 
 311   0.0000       2.901113        78.9433 
 312   0.0000       2.904510        79.0357 
 313   0.0000       2.920855        79.4805 
 314   0.0000       2.935020        79.8659 
 315   0.0000       2.969207        80.7962 
 316   0.0000       2.970594        80.8340 
 317   0.0000       2.995816        81.5203 
 318   0.0000       2.996479        81.5383 
 319   0.0000       3.024251        82.2940 
 320   0.0000       3.043092        82.8067 
 321   0.0000       3.054414        83.1148 
 322   0.0000       3.067824        83.4797 
 323   0.0000       3.089258        84.0630 
 324   0.0000       3.095144        84.2232 
 325   0.0000       3.098210        84.3066 
 326   0.0000       3.108590        84.5890 
 327   0.0000       3.131176        85.2036 
 328   0.0000       3.134281        85.2881 
 329   0.0000       3.163905        86.0942 
 330   0.0000       3.166567        86.1667 
 331   0.0000       3.176099        86.4261 
 332   0.0000       3.194300        86.9213 
 333   0.0000       3.209782        87.3426 
 334   0.0000       3.234561        88.0169 
 335   0.0000       3.241856        88.2154 
 336   0.0000       3.726058       101.3912 
 337   0.0000       3.735680       101.6530 
 338   0.0000       3.738874       101.7399 
 339   0.0000       3.762143       102.3731 
 340   0.0000       3.768760       102.5532 
 341   0.0000       3.769355       102.5694 
 342   0.0000       3.780112       102.8621 
 343   0.0000       3.825709       104.1028 
 344   0.0000       3.865493       105.1854 
 345   0.0000       3.866791       105.2207 
 346   0.0000       3.885020       105.7168 
 347   0.0000       3.902403       106.1898 
 348   0.0000       3.903213       106.2118 
 349   0.0000       3.916270       106.5671 
 350   0.0000       3.931885       106.9920 
 351   0.0000       3.961478       107.7973 
 352   0.0000       3.962469       107.8243 
 353   0.0000       3.975654       108.1830 
 354   0.0000       3.979040       108.2752 
 355   0.0000       3.982800       108.3775 
 356   0.0000       4.020634       109.4070 
 357   0.0000       4.032720       109.7359 
 358   0.0000       4.060770       110.4992 
 359   0.0000       4.064621       110.6040 
 360   0.0000       5.089409       138.4899 
 361   0.0000       5.089816       138.5009 
 362   0.0000       5.091082       138.5354 
 363   0.0000       5.091980       138.5598 
 364   0.0000       5.094720       138.6344 
 365   0.0000       5.095312       138.6505 
 366   0.0000       5.096658       138.6871 
 367   0.0000       5.100184       138.7831 
 368   0.0000       5.105570       138.9296 
 369   0.0000       5.109222       139.0290 
 370   0.0000       5.116939       139.2390 
 371   0.0000       5.118152       139.2720 
 372   0.0000       5.191252       141.2611 
 373   0.0000       5.198005       141.4449 
 374   0.0000       5.206694       141.6814 
 375   0.0000       5.211722       141.8182 
 376   0.0000       5.215311       141.9158 
 377   0.0000       5.222002       142.0979 
 378   0.0000       5.231367       142.3527 
 379   0.0000       5.234637       142.4417 
 380   0.0000       5.239718       142.5800 
 381   0.0000       5.242567       142.6575 
 382   0.0000       5.250732       142.8797 
 383   0.0000       5.254415       142.9799 
 384   0.0000       5.300091       144.2228 
 385   0.0000       5.310366       144.5024 
 386   0.0000       5.316219       144.6617 
 387   0.0000       5.328539       144.9969 
 388   0.0000       5.330923       145.0618 
 389   0.0000       5.332803       145.1129 
 390   0.0000       5.342264       145.3704 
 391   0.0000       5.346335       145.4812 
 392   0.0000       5.353681       145.6811 
 393   0.0000       5.357967       145.7977 
 394   0.0000       5.360354       145.8627 
 395   0.0000       5.363229       145.9409 
 396   0.0000       5.367517       146.0576 
 397   0.0000       5.368843       146.0937 
 398   0.0000       5.384427       146.5177 
 399   0.0000       5.388544       146.6297 
 400   0.0000       5.392541       146.7385 
 401   0.0000       5.403043       147.0243 
 402   0.0000       5.405351       147.0871 
 403   0.0000       5.412453       147.2803 
 404   0.0000       5.417104       147.4069 
 405   0.0000       5.418580       147.4470 
 406   0.0000       5.421697       147.5319 
 407   0.0000       5.423283       147.5750 
 408   0.0000       5.428973       147.7299 
 409   0.0000       5.429784       147.7519 
 410   0.0000       5.433871       147.8632 
 411   0.0000       5.440144       148.0338 
 412   0.0000       5.442973       148.1108 
 413   0.0000       5.443416       148.1229 
 414   0.0000       5.451657       148.3471 
 415   0.0000       5.455996       148.4652 
 416   0.0000       5.461610       148.6180 
 417   0.0000       5.466107       148.7403 
 418   0.0000       5.473940       148.9535 
 419   0.0000       5.478466       149.0766 
 420   0.0000       5.878374       159.9587 
 421   0.0000       5.883402       160.0955 
 422   0.0000       5.895262       160.4182 
 423   0.0000       5.916578       160.9983 
 424   0.0000       5.925338       161.2366 
 425   0.0000       5.932889       161.4421 
 426   0.0000       5.936332       161.5358 
 427   0.0000       5.949693       161.8994 
 428   0.0000       5.969637       162.4421 
 429   0.0000       5.990535       163.0107 
 430   0.0000       5.992244       163.0572 
 431   0.0000       6.026577       163.9915 
 432   0.0000       6.073925       165.2799 
 433   0.0000       6.131399       166.8439 
 434   0.0000       6.132637       166.8775 
 435   0.0000       6.159999       167.6221 
 436   0.0000       6.170816       167.9164 
 437   0.0000       6.195617       168.5913 
 438   0.0000       6.217532       169.1876 
 439   0.0000       6.240836       169.8218 
 440   0.0000       6.266159       170.5108 
 441   0.0000       6.280208       170.8931 
 442   0.0000       6.285700       171.0426 
 443   0.0000       6.294728       171.2883 
 444   0.0000       6.303863       171.5368 
 445   0.0000       6.319288       171.9566 
 446   0.0000       6.334517       172.3710 
 447   0.0000       6.341868       172.5710 
 448   0.0000       6.361226       173.0978 
 449   0.0000       6.361631       173.1088 
 450   0.0000       6.366038       173.2287 
 451   0.0000       6.375941       173.4982 
 452   0.0000       6.378510       173.5681 
 453   0.0000       6.385553       173.7597 
 454   0.0000       6.389790       173.8750 
 455   0.0000       6.396992       174.0710 
 456   0.0000       6.399156       174.1299 
 457   0.0000       6.402446       174.2194 
 458   0.0000       6.421614       174.7410 
 459   0.0000       6.424389       174.8165 
 460   0.0000       6.440062       175.2430 
 461   0.0000       6.442130       175.2993 
 462   0.0000       6.447986       175.4586 
 463   0.0000       6.456324       175.6855 
 464   0.0000       6.460491       175.7989 
 465   0.0000       6.469562       176.0457 
 466   0.0000       6.482600       176.4005 
 467   0.0000       6.492899       176.6808 
 468   0.0000       6.501301       176.9094 
 469   0.0000       6.524776       177.5482 
 470   0.0000       6.548525       178.1944 
 471   0.0000       6.553259       178.3232 
 472   0.0000       6.591738       179.3703 
 473   0.0000       6.626239       180.3091 
 474   0.0000       6.639233       180.6627 
 475   0.0000       6.662909       181.3070 
 476   0.0000       6.675417       181.6473 
 477   0.0000       6.744407       183.5246 
 478   0.0000       6.768784       184.1880 
 479   0.0000       6.790610       184.7819 
 480   0.0000       6.868025       186.8885 
 481   0.0000       6.886720       187.3972 
 482   0.0000       6.934733       188.7037 
 483   0.0000       6.936435       188.7500 
 484   0.0000       6.945758       189.0037 
 485   0.0000       6.973861       189.7684 
 486   0.0000       6.979448       189.9204 
 487   0.0000       6.992292       190.2699 
 488   0.0000       7.010120       190.7551 
 489   0.0000       7.022815       191.1005 
 490   0.0000       7.054875       191.9729 
 491   0.0000       7.066421       192.2871 
 492   0.0000       7.074523       192.5076 
 493   0.0000       7.076096       192.5504 
 494   0.0000       7.087008       192.8473 
 495   0.0000       7.090610       192.9453 
 496   0.0000       7.114715       193.6013 
 497   0.0000       7.120762       193.7658 
 498   0.0000       7.148798       194.5287 
 499   0.0000       7.155530       194.7119 
 500   0.0000       7.206633       196.1024 
 501   0.0000       7.247964       197.2271 
 502   0.0000       7.251279       197.3173 
 503   0.0000       7.269033       197.8004 
 504   0.0000      43.414187      1181.3601 
 505   0.0000      43.420166      1181.5228 
 506   0.0000      43.455865      1182.4942 
 507   0.0000      43.456823      1182.5203 
 508   0.0000      43.488728      1183.3885 
 509   0.0000      43.511011      1183.9948 
 510   0.0000      43.563920      1185.4345 
 511   0.0000      43.601205      1186.4491 
 512   0.0000      43.660887      1188.0731 
 513   0.0000      43.688380      1188.8213 
 514   0.0000      43.708910      1189.3799 
 515   0.0000      43.947885      1195.8827 

                    ********************************
                    * MULLIKEN POPULATION ANALYSIS *
                    ********************************

-----------------------
MULLIKEN ATOMIC CHARGES
-----------------------
   0 O :   -0.735208
   1 H :    0.392872
   2 H :    0.390422
   3 O :   -0.748635
   4 H :    0.376440
   5 H :    0.388996
   6 O :   -0.760780
   7 H :    0.374039
   8 H :    0.370872
   9 O :   -0.751962
  10 H :    0.388729
  11 H :    0.377867
  12 O :   -0.735254
  13 H :    0.390113
  14 H :    0.392739
  15 O :   -0.762039
  16 H :    0.374496
  17 H :    0.370409
  18 O :   -0.781141
  19 H :    0.371330
  20 H :    0.389681
  21 O :   -0.796709
  22 H :    0.392264
  23 H :    0.361823
  24 O :   -0.779925
  25 H :    0.370583
  26 H :    0.389958
  27 O :   -0.796496
  28 H :    0.360945
  29 H :    0.392888
  30 O :   -0.746692
  31 H :    0.375333
  32 H :    0.389458
  33 O :   -0.753829
  34 H :    0.378092
  35 H :    0.388321
Sum of atomic charges:   -0.0000000

--------------------------------
MULLIKEN REDUCED ORBITAL CHARGES
--------------------------------
  0 O s       :     3.802358  s :     3.802358
      pz      :     1.635677  p :     4.914807
      px      :     1.852863
      py      :     1.426267
      dz2     :     0.001857  d :     0.016953
      dxz     :     0.003134
      dyz     :     0.008250
      dx2y2   :     0.002524
      dxy     :     0.001187
      f0      :     0.000070  f :     0.001090
      f+1     :     0.000075
      f-1     :     0.000041
      f+2     :     0.000291
      f-2     :     0.000202
      f+3     :     0.000168
      f-3     :     0.000244
  1 H s       :     0.553484  s :     0.553484
      pz      :     0.018208  p :     0.053644
      px      :     0.015567
      py      :     0.019869
  2 H s       :     0.566084  s :     0.566084
      pz      :     0.012403  p :     0.043494
      px      :     0.012997
      py      :     0.018095
  3 O s       :     3.796352  s :     3.796352
      pz      :     1.481664  p :     4.931770
      px      :     1.839838
      py      :     1.610267
      dz2     :     0.001216  d :     0.019557
      dxz     :     0.005745
      dyz     :     0.005118
      dx2y2   :     0.004152
      dxy     :     0.003326
      f0      :     0.000080  f :     0.000956
      f+1     :     0.000316
      f-1     :     0.000059
      f+2     :     0.000297
      f-2     :     0.000067
      f+3     :     0.000049
      f-3     :     0.000088
  4 H s       :     0.569941  s :     0.569941
      pz      :     0.024008  p :     0.053619
      px      :     0.019045
      py      :     0.010567
  5 H s       :     0.560376  s :     0.560376
      pz      :     0.015871  p :     0.050627
      px      :     0.012331
      py      :     0.022426
  6 O s       :     3.801224  s :     3.801224
      pz      :     1.519303  p :     4.939146
      px      :     1.751873
      py      :     1.667970
      dz2     :     0.001809  d :     0.019461
      dxz     :     0.008004
      dyz     :     0.001780
      dx2y2   :     0.002032
      dxy     :     0.005837
      f0      :     0.000090  f :     0.000949
      f+1     :     0.000253
      f-1     :     0.000097
      f+2     :     0.000103
      f-2     :     0.000238
      f+3     :     0.000125
      f-3     :     0.000043
  7 H s       :     0.573395  s :     0.573395
      pz      :     0.014509  p :     0.052566
      px      :     0.018141
      py      :     0.019916
  8 H s       :     0.576635  s :     0.576635
      pz      :     0.023252  p :     0.052493
      px      :     0.017540
      py      :     0.011700
  9 O s       :     3.801667  s :     3.801667
      pz      :     1.820463  p :     4.932526
      px      :     1.632061
      py      :     1.480002
      dz2     :     0.002113  d :     0.016725
      dxz     :     0.003235
      dyz     :     0.001715
      dx2y2   :     0.003421
      dxy     :     0.006241
      f0      :     0.000244  f :     0.001044
      f+1     :     0.000052
      f-1     :     0.000130
      f+2     :     0.000140
      f-2     :     0.000215
      f+3     :     0.000147
      f-3     :     0.000114
 10 H s       :     0.567739  s :     0.567739
      pz      :     0.013499  p :     0.043532
      px      :     0.011699
      py      :     0.018334
 11 H s       :     0.564628  s :     0.564628
      pz      :     0.015365  p :     0.057505
      px      :     0.024568
      py      :     0.017572
 12 O s       :     3.802748  s :     3.802748
      pz      :     1.483466  p :     4.914429
      px      :     1.842570
      py      :     1.588393
      dz2     :     0.006337  d :     0.016989
      dxz     :     0.001691
      dyz     :     0.002436
      dx2y2   :     0.003973
      dxy     :     0.002552
      f0      :     0.000342  f :     0.001089
      f+1     :     0.000272
      f-1     :     0.000013
      f+2     :     0.000076
      f-2     :     0.000098
      f+3     :     0.000190
      f-3     :     0.000098
 13 H s       :     0.566350  s :     0.566350
      pz      :     0.019405  p :     0.043537
      px      :     0.013735
      py      :     0.010396
 14 H s       :     0.553732  s :     0.553732
      pz      :     0.013004  p :     0.053528
      px      :     0.014134
      py      :     0.026390
 15 O s       :     3.801759  s :     3.801759
      pz      :     1.544474  p :     4.939876
      px      :     1.634534
      py      :     1.760868
      dz2     :     0.000805  d :     0.019457
      dxz     :     0.008684
      dyz     :     0.002271
      dx2y2   :     0.002638
      dxy     :     0.005060
      f0      :     0.000073  f :     0.000948
      f+1     :     0.000143
      f-1     :     0.000166
      f+2     :     0.000071
      f-2     :     0.000391
      f+3     :     0.000019
      f-3     :     0.000085
 16 H s       :     0.572938  s :     0.572938
      pz      :     0.015593  p :     0.052566
      px      :     0.018633
      py      :     0.018340
 17 H s       :     0.576781  s :     0.576781
      pz      :     0.022237  p :     0.052810
      px      :     0.017995
      py      :     0.012578
 18 O s       :     3.806274  s :     3.806274
      pz      :     1.494976  p :     4.956211
      px      :     1.692343
      py      :     1.768892
      dz2     :     0.000405  d :     0.017702
      dxz     :     0.006201
      dyz     :     0.005386
      dx2y2   :     0.002524
      dxy     :     0.003185
      f0      :     0.000025  f :     0.000953
      f+1     :     0.000223
      f-1     :     0.000200
      f+2     :     0.000229
      f-2     :     0.000166
      f+3     :     0.000071
      f-3     :     0.000040
 19 H s       :     0.571675  s :     0.571675
      pz      :     0.025779  p :     0.056996
      px      :     0.020168
      py      :     0.011049
 20 H s       :     0.554889  s :     0.554889
      pz      :     0.019010  p :     0.055430
      px      :     0.012749
      py      :     0.023672
 21 O s       :     3.810114  s :     3.810114
      pz      :     1.723316  p :     4.967499
      px      :     1.762579
      py      :     1.481604
      dz2     :     0.001095  d :     0.018187
      dxz     :     0.004265
      dyz     :     0.005472
      dx2y2   :     0.002406
      dxy     :     0.004950
      f0      :     0.000183  f :     0.000909
      f+1     :     0.000029
      f-1     :     0.000019
      f+2     :     0.000195
      f-2     :     0.000208
      f+3     :     0.000114
      f-3     :     0.000159
 22 H s       :     0.551068  s :     0.551068
      pz      :     0.016832  p :     0.056668
      px      :     0.012092
      py      :     0.027744
 23 H s       :     0.582493  s :     0.582493
      pz      :     0.014102  p :     0.055685
      px      :     0.022640
      py      :     0.018943
 24 O s       :     3.805768  s :     3.805768
      pz      :     1.708593  p :     4.955416
      px      :     1.650534
      py      :     1.596289
      dz2     :     0.002553  d :     0.017792
      dxz     :     0.006438
      dyz     :     0.003839
      dx2y2   :     0.002645
      dxy     :     0.002317
      f0      :     0.000066  f :     0.000950
      f+1     :     0.000194
      f-1     :     0.000032
      f+2     :     0.000178
      f-2     :     0.000137
      f+3     :     0.000270
      f-3     :     0.000073
 25 H s       :     0.572586  s :     0.572586
      pz      :     0.024706  p :     0.056831
      px      :     0.021191
      py      :     0.010934
 26 H s       :     0.554510  s :     0.554510
      pz      :     0.014149  p :     0.055532
      px      :     0.015212
      py      :     0.026171
 27 O s       :     3.810147  s :     3.810147
      pz      :     1.716554  p :     4.967299
      px      :     1.611215
      py      :     1.639530
      dz2     :     0.001249  d :     0.018139
      dxz     :     0.002883
      dyz     :     0.005184
      dx2y2   :     0.001501
      dxy     :     0.007322
      f0      :     0.000219  f :     0.000910
      f+1     :     0.000068
      f-1     :     0.000007
      f+2     :     0.000050
      f-2     :     0.000435
      f+3     :     0.000070
      f-3     :     0.000061
 28 H s       :     0.583772  s :     0.583772
      pz      :     0.015160  p :     0.055284
      px      :     0.023088
      py      :     0.017036
 29 H s       :     0.550132  s :     0.550132
      pz      :     0.018590  p :     0.056980
      px      :     0.015419
      py      :     0.022970
 30 O s       :     3.795739  s :     3.795739
      pz      :     1.630014  p :     4.930347
      px      :     1.621412
      py      :     1.678921
      dz2     :     0.002806  d :     0.019650
      dxz     :     0.007147
      dyz     :     0.005227
      dx2y2   :     0.001140
      dxy     :     0.003330
      f0      :     0.000044  f :     0.000956
      f+1     :     0.000127
      f-1     :     0.000018
      f+2     :     0.000057
      f-2     :     0.000375
      f+3     :     0.000190
      f-3     :     0.000143
 31 H s       :     0.570881  s :     0.570881
      pz      :     0.022138  p :     0.053785
      px      :     0.019594
      py      :     0.012054
 32 H s       :     0.559898  s :     0.559898
      pz      :     0.014240  p :     0.050644
      px      :     0.015158
      py      :     0.021246
 33 O s       :     3.802211  s :     3.802211
      pz      :     1.476833  p :     4.933836
      px      :     1.710874
      py      :     1.746129
      dz2     :     0.007220  d :     0.016739
      dxz     :     0.001035
      dyz     :     0.002299
      dx2y2   :     0.000837
      dxy     :     0.005348
      f0      :     0.000439  f :     0.001043
      f+1     :     0.000111
      f-1     :     0.000081
      f+2     :     0.000022
      f-2     :     0.000116
      f+3     :     0.000104
      f-3     :     0.000169
 34 H s       :     0.564094  s :     0.564094
      pz      :     0.012072  p :     0.057814
      px      :     0.024715
      py      :     0.021028
 35 H s       :     0.568165  s :     0.568165
      pz      :     0.019557  p :     0.043514
      px      :     0.011959
      py      :     0.011998


                     *******************************
                     * LOEWDIN POPULATION ANALYSIS *
                     *******************************

----------------------
LOEWDIN ATOMIC CHARGES
----------------------
   0 O :   -0.272982
   1 H :    0.157538
   2 H :    0.193083
   3 O :   -0.319564
   4 H :    0.148447
   5 H :    0.153152
   6 O :   -0.335553
   7 H :    0.148248
   8 H :    0.148070
[...]
      f+1     :     0.000549
      f-1     :     0.000118
      f+2     :     0.000515
      f-2     :     0.000244
      f+3     :     0.000092
      f-3     :     0.000202
  4 H s       :     0.665807  s :     0.665807
      pz      :     0.086833  p :     0.185746
      px      :     0.066031
      py      :     0.032882
  5 H s       :     0.669595  s :     0.669595
      pz      :     0.051227  p :     0.177253
      px      :     0.041002
      py      :     0.085023
  6 O s       :     3.475604  s :     3.475604
      pz      :     1.490071  p :     4.830212
      px      :     1.716354
      py      :     1.623787
      dz2     :     0.003132  d :     0.027843
      dxz     :     0.011051
      dyz     :     0.004616
      dx2y2   :     0.001927
      dxy     :     0.007116
      f0      :     0.000203  f :     0.001894
      f+1     :     0.000579
      f-1     :     0.000079
      f+2     :     0.000201
      f-2     :     0.000473
      f+3     :     0.000277
      f-3     :     0.000084
  7 H s       :     0.669779  s :     0.669779
      pz      :     0.045404  p :     0.181973
      px      :     0.064281
      py      :     0.072288
  8 H s       :     0.669987  s :     0.669987
      pz      :     0.084635  p :     0.181942
      px      :     0.062300
      py      :     0.035008
  9 O s       :     3.462105  s :     3.462105
      pz      :     1.747355  p :     4.791023
      px      :     1.606089
      py      :     1.437579
      dz2     :     0.002641  d :     0.027864
      dxz     :     0.005700
      dyz     :     0.003746
      dx2y2   :     0.005656
      dxy     :     0.010120
      f0      :     0.000372  f :     0.002048
      f+1     :     0.000076
      f-1     :     0.000159
      f+2     :     0.000251
      f-2     :     0.000406
      f+3     :     0.000427
      f-3     :     0.000357
 10 H s       :     0.654076  s :     0.654076
      pz      :     0.043096  p :     0.157247
      px      :     0.040204
      py      :     0.073947
 11 H s       :     0.645371  s :     0.645371
      pz      :     0.050713  p :     0.203246
      px      :     0.093850
      py      :     0.058683
 12 O s       :     3.454617  s :     3.454617
      pz      :     1.450356  p :     4.790046
      px      :     1.771873
      py      :     1.567817
      dz2     :     0.010782  d :     0.027026
      dxz     :     0.003612
      dyz     :     0.003760
      dx2y2   :     0.004865
      dxy     :     0.004006
      f0      :     0.000696  f :     0.002056
      f+1     :     0.000414
      f-1     :     0.000179
      f+2     :     0.000164
      f-2     :     0.000135
      f+3     :     0.000323
      f-3     :     0.000144
 13 H s       :     0.650937  s :     0.650937
      pz      :     0.080615  p :     0.156188
      px      :     0.043337
      py      :     0.032237
 14 H s       :     0.655261  s :     0.655261
      pz      :     0.040509  p :     0.187060
      px      :     0.045736
      py      :     0.100816
 15 O s       :     3.476146  s :     3.476146
      pz      :     1.510093  p :     4.831725
      px      :     1.625982
      py      :     1.695649
      dz2     :     0.001187  d :     0.027767
      dxz     :     0.013034
      dyz     :     0.004528
      dx2y2   :     0.001920
      dxy     :     0.007098
      f0      :     0.000188  f :     0.001889
      f+1     :     0.000369
      f-1     :     0.000150
      f+2     :     0.000177
      f-2     :     0.000710
      f+3     :     0.000080
      f-3     :     0.000216
 16 H s       :     0.669943  s :     0.669943
      pz      :     0.053501  p :     0.182076
      px      :     0.066949
      py      :     0.061627
 17 H s       :     0.669964  s :     0.669964
      pz      :     0.076614  p :     0.182725
      px      :     0.064579
      py      :     0.041532
 18 O s       :     3.471268  s :     3.471268
      pz      :     1.453373  p :     4.815324
      px      :     1.663385
      py      :     1.698566
      dz2     :     0.001666  d :     0.028925
      dxz     :     0.010414
      dyz     :     0.008913
      dx2y2   :     0.003348
      dxy     :     0.004583
      f0      :     0.000058  f :     0.001827
      f+1     :     0.000451
      f-1     :     0.000324
      f+2     :     0.000386
      f-2     :     0.000410
      f+3     :     0.000126
      f-3     :     0.000072
 19 H s       :     0.658355  s :     0.658355
      pz      :     0.091605  p :     0.202596
      px      :     0.074764
      py      :     0.036227
 20 H s       :     0.659838  s :     0.659838
      pz      :     0.068238  p :     0.191764
      px      :     0.041024
      py      :     0.082503
 21 O s       :     3.479927  s :     3.479927
      pz      :     1.680779  p :     4.820288
      px      :     1.709007
      py      :     1.430502
      dz2     :     0.001700  d :     0.029106
      dxz     :     0.005670
      dyz     :     0.009699
      dx2y2   :     0.003969
      dxy     :     0.008068
      f0      :     0.000295  f :     0.001806
      f+1     :     0.000069
      f-1     :     0.000034
      f+2     :     0.000412
      f-2     :     0.000521
      f+3     :     0.000180
      f-3     :     0.000296
 22 H s       :     0.654950  s :     0.654950
      pz      :     0.058423  p :     0.196974
      px      :     0.038836
      py      :     0.099715
 23 H s       :     0.665234  s :     0.665234
      pz      :     0.049547  p :     0.197989
      px      :     0.082663
      py      :     0.065779
 24 O s       :     3.471074  s :     3.471074
      pz      :     1.662055  p :     4.813219
      px      :     1.607512
      py      :     1.543651
      dz2     :     0.003255  d :     0.029028
      dxz     :     0.009645
      dyz     :     0.005910
      dx2y2   :     0.004577
      dxy     :     0.005640
      f0      :     0.000155  f :     0.001834
      f+1     :     0.000385
      f-1     :     0.000126
      f+2     :     0.000425
      f-2     :     0.000248
      f+3     :     0.000403
      f-3     :     0.000092
 25 H s       :     0.658642  s :     0.658642
      pz      :     0.092318  p :     0.202083
      px      :     0.076093
      py      :     0.033672
 26 H s       :     0.659419  s :     0.659419
      pz      :     0.046143  p :     0.192038
      px      :     0.047637
      py      :     0.098259
 27 O s       :     3.479824  s :     3.479824
      pz      :     1.653213  p :     4.820511
      px      :     1.561260
      py      :     1.606039
      dz2     :     0.001430  d :     0.029082
      dxz     :     0.006220
      dyz     :     0.008545
      dx2y2   :     0.001605
      dxy     :     0.011283
      f0      :     0.000385  f :     0.001803
      f+1     :     0.000054
      f-1     :     0.000030
      f+2     :     0.000057
      f-2     :     0.000774
      f+3     :     0.000268
      f-3     :     0.000236
 28 H s       :     0.666275  s :     0.666275
      pz      :     0.051480  p :     0.196481
      px      :     0.081142
      py      :     0.063860
 29 H s       :     0.654286  s :     0.654286
      pz      :     0.061719  p :     0.198067
      px      :     0.053258
      py      :     0.083090
 30 O s       :     3.470425  s :     3.470425
      pz      :     1.616167  p :     4.816786
      px      :     1.574227
      py      :     1.626392
      dz2     :     0.002397  d :     0.028173
      dxz     :     0.011092
      dyz     :     0.007238
      dx2y2   :     0.001397
      dxy     :     0.006050
      f0      :     0.000202  f :     0.001921
      f+1     :     0.000353
      f-1     :     0.000108
      f+2     :     0.000156
      f-2     :     0.000702
      f+3     :     0.000245
      f-3     :     0.000155
 31 H s       :     0.665973  s :     0.665973
      pz      :     0.081333  p :     0.186052
      px      :     0.065183
      py      :     0.039536
 32 H s       :     0.669370  s :     0.669370
      pz      :     0.049345  p :     0.177402
      px      :     0.053701
      py      :     0.074356
 33 O s       :     3.463074  s :     3.463074
      pz      :     1.440979  p :     4.792396
      px      :     1.659417
      py      :     1.692000
      dz2     :     0.012069  d :     0.027837
      dxz     :     0.002962
      dyz     :     0.003643
      dx2y2   :     0.001547
      dxy     :     0.007616
      f0      :     0.000920  f :     0.002043
      f+1     :     0.000179
      f-1     :     0.000229
      f+2     :     0.000050
      f-2     :     0.000209
      f+3     :     0.000169
      f-3     :     0.000288
 34 H s       :     0.644670  s :     0.644670
      pz      :     0.037752  p :     0.204347
      px      :     0.090040
      py      :     0.076554
 35 H s       :     0.654491  s :     0.654491
      pz      :     0.083081  p :     0.157234
      px      :     0.036161
      py      :     0.037993


                      *****************************
                      * MAYER POPULATION ANALYSIS *
                      *****************************

  NA   - Mulliken gross atomic population
  ZA   - Total nuclear charge
  QA   - Mulliken gross atomic charge
  VA   - Mayer's total valence
  BVA  - Mayer's bonded valence
  FA   - Mayer's free valence

  ATOM       NA         ZA         QA         VA         BVA        FA
  0 O      8.7352     8.0000    -0.7352     1.8252     1.8252     0.0000
  1 H      0.6071     1.0000     0.3929     0.8831     0.8831     0.0000
  2 H      0.6096     1.0000     0.3904     0.8652     0.8652     0.0000
  3 O      8.7486     8.0000    -0.7486     1.7745     1.7745    -0.0000
  4 H      0.6236     1.0000     0.3764     0.9171     0.9171     0.0000
  5 H      0.6110     1.0000     0.3890     0.8929     0.8929     0.0000
  6 O      8.7608     8.0000    -0.7608     1.7670     1.7670     0.0000
  7 H      0.6260     1.0000     0.3740     0.9157     0.9157     0.0000
  8 H      0.6291     1.0000     0.3709     0.9203     0.9203     0.0000
  9 O      8.7520     8.0000    -0.7520     1.7957     1.7957    -0.0000
 10 H      0.6113     1.0000     0.3887     0.8676     0.8676    -0.0000
 11 H      0.6221     1.0000     0.3779     0.9153     0.9153    -0.0000
 12 O      8.7353     8.0000    -0.7353     1.8258     1.8258     0.0000
 13 H      0.6099     1.0000     0.3901     0.8656     0.8656    -0.0000
 14 H      0.6073     1.0000     0.3927     0.8829     0.8829    -0.0000
 15 O      8.7620     8.0000    -0.7620     1.7652     1.7652    -0.0000
 16 H      0.6255     1.0000     0.3745     0.9152     0.9152    -0.0000
 17 H      0.6296     1.0000     0.3704     0.9208     0.9208    -0.0000
 18 O      8.7811     8.0000    -0.7811     1.7177     1.7177     0.0000
 19 H      0.6287     1.0000     0.3713     0.9214     0.9214     0.0000
 20 H      0.6103     1.0000     0.3897     0.9150     0.9150     0.0000
 21 O      8.7967     8.0000    -0.7967     1.7298     1.7298    -0.0000
 22 H      0.6077     1.0000     0.3923     0.9166     0.9166     0.0000
 23 H      0.6382     1.0000     0.3618     0.9316     0.9316     0.0000
 24 O      8.7799     8.0000    -0.7799     1.7197     1.7197    -0.0000
 25 H      0.6294     1.0000     0.3706     0.9222     0.9222    -0.0000
 26 H      0.6100     1.0000     0.3900     0.9148     0.9148    -0.0000
 27 O      8.7965     8.0000    -0.7965     1.7299     1.7299     0.0000
 28 H      0.6391     1.0000     0.3609     0.9320     0.9320    -0.0000
 29 H      0.6071     1.0000     0.3929     0.9163     0.9163    -0.0000
 30 O      8.7467     8.0000    -0.7467     1.7767     1.7767     0.0000
 31 H      0.6247     1.0000     0.3753     0.9182     0.9182    -0.0000
 32 H      0.6105     1.0000     0.3895     0.8924     0.8924    -0.0000
 33 O      8.7538     8.0000    -0.7538     1.7936     1.7936     0.0000
 34 H      0.6219     1.0000     0.3781     0.9151     0.9151     0.0000
 35 H      0.6117     1.0000     0.3883     0.8681     0.8681     0.0000

  Mayer bond orders larger than 0.1
B(  0-O ,  1-H ) :   0.7824 B(  0-O ,  2-H ) :   0.8477 B(  0-O ,  7-H ) :   0.1037 
B(  0-O , 17-H ) :   0.1115 B(  3-O ,  4-H ) :   0.7895 B(  3-O ,  5-H ) :   0.8115 
B(  3-O , 11-H ) :   0.1732 B(  4-H , 33-O ) :   0.1190 B(  6-O ,  7-H ) :   0.8032 
B(  6-O ,  8-H ) :   0.8011 B(  6-O , 29-H ) :   0.1568 B(  8-H , 12-O ) :   0.1106 
B(  9-O , 10-H ) :   0.8478 B(  9-O , 11-H ) :   0.7291 B(  9-O , 26-H ) :   0.1305 
B(  9-O , 31-H ) :   0.1187 B( 12-O , 13-H ) :   0.8479 B( 12-O , 14-H ) :   0.7833 
B( 12-O , 16-H ) :   0.1031 B( 15-O , 16-H ) :   0.8034 B( 15-O , 17-H ) :   0.8008 
B( 15-O , 22-H ) :   0.1549 B( 18-O , 19-H ) :   0.7413 B( 18-O , 20-H ) :   0.7689 
B( 18-O , 28-H ) :   0.1515 B( 19-H , 21-O ) :   0.1658 B( 20-H , 33-O ) :   0.1301 
B( 21-O , 22-H ) :   0.7476 B( 21-O , 23-H ) :   0.7559 B( 23-H , 24-O ) :   0.1534 
B( 24-O , 25-H ) :   0.7428 B( 24-O , 26-H ) :   0.7686 B( 25-H , 27-O ) :   0.1647 
B( 27-O , 28-H ) :   0.7585 B( 27-O , 29-H ) :   0.7455 B( 30-O , 31-H ) :   0.7907 
B( 30-O , 32-H ) :   0.8110 B( 30-O , 34-H ) :   0.1753 B( 33-O , 34-H ) :   0.7270 
B( 33-O , 35-H ) :   0.8482 

-------
TIMINGS
-------

Total SCF time: 0 days 0 hours 0 min 43 sec 

Total time                  ....      43.190 sec
Sum of individual times     ....      45.390 sec  (105.1%)

Fock matrix formation       ....      33.216 sec  ( 76.9%)
  Coulomb formation         ....      28.989 sec  ( 87.3% of F)
  Split-RI-J                ....       3.204 sec  (  9.6% of F)
  Chain of spheres X        ....      24.889 sec  ( 74.9% of F)
  COS-X 1 center corr.      ....       0.000 sec  (  0.0% of F)
  XC integration            ....       4.146 sec  ( 12.5% of F)
    Basis function eval.    ....       1.134 sec  ( 27.3% of XC)
    Density eval.           ....       0.992 sec  ( 23.9% of XC)
    XC-Functional eval.     ....       0.132 sec  (  3.2% of XC)
    XC-Potential eval.      ....       1.530 sec  ( 36.9% of XC)
Diagonalization             ....       0.667 sec  (  1.5%)
Density matrix formation    ....       0.043 sec  (  0.1%)
Population analysis         ....       0.397 sec  (  0.9%)
Initial guess               ....       1.232 sec  (  2.9%)
Orbital Transformation      ....       0.000 sec  (  0.0%)
Orbital Orthonormalization  ....       0.000 sec  (  0.0%)
DIIS solution               ....       0.233 sec  (  0.5%)
SOSCF solution              ....       0.688 sec  (  1.6%)
Grid generation             ....       2.842 sec  (  6.6%)
COSMO(total)                ....       6.071 sec  ( 14.1%)
   Initialization           ....       1.658 sec  ( 27.3% of COSMO)
   Potential evaluation     ....       2.262 sec  ( 37.3% of COSMO)
   Charge calculation       ....       0.419 sec  (  6.9% of COSMO)
   Fock-Matrix contrib.     ....       1.796 sec  ( 29.6% of COSMO)
   Outer-lying charge       ....       0.180 sec  (  3.0% of COSMO)
           ************************************************************
           *              Shut down parallel processing               *
           ************************************************************

Entering the calculation of the dispersion correction...

Checking the input atom types...

Done


-------------------------------------------------------------------------------
                          DFT DISPERSION CORRECTION                            
                                                                               
                                DFTD3 V2.1  Rev 6                               
                          USING Becke-Johnson damping                          
-------------------------------------------------------------------------------
The B3LYP functional is recognized
Active option DFTDOPT                   ...         4   

molecular C6(AA) [au] = 6406.897201 


            DFT-D V3
 parameters
 s6 scaling factor         :     1.0000 
 a1 scaling factor         :     0.3981 
 s8 scaling factor         :     1.9889 
 a2 scaling factor         :     4.4211 
 ad hoc parameters k1-k3   :    16.0000     1.3333    -4.0000 

 Edisp/kcal,au: -27.968527673690  -0.044570681155 
 E6   /kcal   : -15.408123633 
 E8   /kcal   : -12.560404041 
 % E8         :  44.909064172 

-------------------------   ----------------
Dispersion correction           -0.044570681
-------------------------   ----------------


-------------------------   --------------------
FINAL SINGLE POINT ENERGY      -917.367432880990
-------------------------   --------------------


                            ***************************************
                            *     ORCA property calculations      *
                            ***************************************

                                    ---------------------
                                    Active property flags
                                    ---------------------
   (+) Dipole Moment


------------------------------------------------------------------------------
                       ORCA ELECTRIC PROPERTIES CALCULATION
------------------------------------------------------------------------------

Dipole Moment Calculation                       ... on
Quadrupole Moment Calculation                   ... off
Polarizability Calculation                      ... off
GBWName                                         ... 4_B3LYP_SMD_onBP86_SMD_12_waters.gbw
Electron density file                           ... 4_B3LYP_SMD_onBP86_SMD_12_waters.scfp.tmp

-------------
DIPOLE MOMENT
-------------
                                X             Y             Z
Electronic contribution:     -0.00662       0.04593      -0.01634
Nuclear contribution   :     -0.06954       0.23175      -0.13056
                        -----------------------------------------
Total Dipole Moment    :     -0.07617       0.27768      -0.14691
                        -----------------------------------------
Magnitude (a.u.)       :      0.32325
Magnitude (Debye)      :      0.82164

smp-n27.crc.pitt.edu.70507hfi_wait_for_device: The /dev/hfi1_0 device failed to appear after 15.0 seconds: Connection timed out
smp-n27.crc.pitt.edu.70508hfi_wait_for_device: The /dev/hfi1_0 device failed to appear after 15.0 seconds: Connection timed out
smp-n27.crc.pitt.edu.70509hfi_wait_for_device: The /dev/hfi1_0 device failed to appear after 15.0 seconds: Connection timed out
smp-n27.crc.pitt.edu.70510hfi_wait_for_device: The /dev/hfi1_0 device failed to appear after 15.0 seconds: Connection timed out
smp-n27.crc.pitt.edu.70511hfi_wait_for_device: The /dev/hfi1_0 device failed to appear after 15.0 seconds: Connection timed out
smp-n27.crc.pitt.edu.70513hfi_wait_for_device: The /dev/hfi1_0 device failed to appear after 15.0 seconds: Connection timed out
smp-n27.crc.pitt.edu.70516hfi_wait_for_device: The /dev/hfi1_0 device failed to appear after 15.0 seconds: Connection timed out
smp-n27.crc.pitt.edu.70521hfi_wait_for_device: The /dev/hfi1_0 device failed to appear after 15.0 seconds: Connection timed out
smp-n27.crc.pitt.edu.70512hfi_wait_for_device: The /dev/hfi1_0 device failed to appear after 15.0 seconds: Connection timed out
smp-n27.crc.pitt.edu.70514hfi_wait_for_device: The /dev/hfi1_0 device failed to appear after 15.0 seconds: Connection timed out
smp-n27.crc.pitt.edu.70518hfi_wait_for_device: The /dev/hfi1_0 device failed to appear after 15.0 seconds: Connection timed out
smp-n27.crc.pitt.edu.70523hfi_wait_for_device: The /dev/hfi1_0 device failed to appear after 15.0 seconds: Connection timed out

Timings for individual modules:

Sum of individual times         ...       75.943 sec (=   1.266 min)
GTO integral calculation        ...       15.724 sec (=   0.262 min)  20.7 %
SCF iterations                  ...       60.220 sec (=   1.004 min)  79.3 %
                             ****ORCA TERMINATED NORMALLY****
TOTAL RUN TIME: 0 days 0 hours 1 minutes 31 seconds 454 msec
cp: cannot stat ‘/scratch/slurm-1328762/*.{prop}’: No such file or directory
