60
Energy:   -337.98322544
O   -3.27904945  -2.01234185  -0.89946844
H   -3.11467818  -1.28555266  -1.51848607
C   -4.29198751  -1.59093319  -0.00007697
H   -4.46468782  -2.42126708   0.68999942
H   -5.24323627  -1.36461500  -0.50671609
H   -3.99570341  -0.71093500   0.59203472
O   -2.52356632   0.04044476  -2.64794185
H   -1.65420210   0.46248436  -2.71511102
C   -2.95451945  -0.26918934  -3.96359374
H   -3.93501045  -0.74380902  -3.86947275
H   -2.28178885  -0.97423346  -4.47654955
H   -3.06760198   0.62551746  -4.59564549
O    0.29093182  -0.76018180   3.69563059
H    0.61026336  -1.44562863   3.09014460
C   -0.69182251  -1.34886730   4.53239643
H   -1.04074773  -0.56316192   5.20797281
H   -0.29141183  -2.17226857   5.14432695
H   -1.56005040  -1.72505507   3.96897790
O    0.07408196   1.08546221  -2.77260723
H    0.88738458   0.70780724  -2.40608459
C    0.07523882   2.47402609  -2.48205124
H   -0.84752928   2.88359851  -2.90185436
H    0.92410706   3.00396908  -2.94179082
H    0.08016167   2.68219036  -1.40065365
O    2.37637059   0.06883048  -1.50756587
H    2.55362232   0.65025201  -0.75327540
C    3.55098554   0.02396720  -2.30179555
H    3.33388792  -0.63508798  -3.14678081
H    4.41549418  -0.38983821  -1.75942370
H    3.83172592   1.01082087  -2.70189804
O    2.69655481   1.86319725   0.60672036
H    2.00482337   2.52245660   0.76580523
C    2.92640030   1.17739986   1.82712470
H    3.70809175   0.43875816   1.63001530
H    2.03440576   0.64225749   2.18871249
H    3.28075945   1.84372318   2.62913477
O    1.02781279  -2.57581938   1.70776202
H    0.46409191  -2.80748167   0.95478484
C    2.37082764  -2.55956411   1.25105571
H    2.99212583  -2.29694732   2.11158240
H    2.54321176  -1.80904402   0.46379424
H    2.70423550  -3.53973348   0.87570983
O    0.40978720   3.43964322   1.13147763
H   -0.14605346   2.68747730   1.38388775
C    0.03654356   4.54202163   1.94264025
H    0.67226786   5.38040100   1.64521823
H    0.19861760   4.35457314   3.01566047
H   -1.01324733   4.84111234   1.79682820
O   -0.65754010  -3.01459625  -0.50381780
H   -1.60226972  -2.82252007  -0.59877017
C   -0.00810428  -2.57567746  -1.68623785
H    1.05491974  -2.79957805  -1.56240871
H   -0.11173830  -1.49175268  -1.85099344
H   -0.36470003  -3.09969556  -2.58680535
O   -0.88776835   1.07693402   1.89364348
H   -0.52524424   0.51069661   2.59104920
C   -0.88636086   0.32928806   0.68800784
H   -1.29769061   0.98190572  -0.08683616
H   -1.51697664  -0.57170071   0.74563006
H    0.12555489   0.02586066   0.37698428
