60
Energy:   -339.38705224
O   -2.72964443  -2.04385177  -0.18939831
H   -2.70545680  -1.47451732  -0.97278616
C   -3.42242747  -3.23080117  -0.54116038
H   -3.44043792  -3.86059319   0.35244067
H   -2.92185558  -3.79299147  -1.34499318
H   -4.46347355  -3.04104824  -0.84610990
O   -2.35490851  -0.42778899  -2.44007476
H   -1.51559989  -0.00389093  -2.67308711
C   -3.30984815  -0.06094487  -3.42295291
H   -4.24910477  -0.54688334  -3.14520121
H   -3.03389531  -0.40330752  -4.43261383
H   -3.48564137   1.02554998  -3.46040970
O   -0.62200099  -0.30343021   3.36765803
H    0.12918530  -0.91075161   3.29483534
C   -1.80662448  -1.08381457   3.38184351
H   -2.64277262  -0.38413833   3.46427314
H   -1.85190890  -1.77250505   4.23999972
H   -1.94118406  -1.66936121   2.45891005
O    0.09466165   0.82852263  -2.96156310
H    1.01735053   0.56427586  -2.83025379
C   -0.01087531   2.20345743  -2.62847149
H   -1.05629764   2.48454536  -2.78198671
H    0.61297622   2.84548393  -3.26986729
H    0.24662569   2.40732870  -1.57732589
O    2.74583657   0.24008669  -2.17346806
H    2.74974180   0.71277039  -1.32790425
C    4.03271843   0.38392064  -2.75293390
H    4.01076680  -0.15433248  -3.70439957
H    4.83007648  -0.05323273  -2.13172992
H    4.29052978   1.43421796  -2.96074676
O    2.49339930   1.68111614   0.20827472
H    1.93869644   2.45860629   0.37025333
C    2.23187358   0.74327861   1.24006871
H    2.86478592  -0.12607321   1.04224408
H    1.18346445   0.40645181   1.25284922
H    2.48500575   1.12940922   2.23987099
O    1.39564466  -2.17794590   2.70506572
H    0.96533040  -2.41278044   1.86953855
C    2.51589276  -3.03304603   2.86749029
H    2.98886417  -2.75496661   3.81324664
H    3.26108481  -2.91463962   2.06533939
H    2.23443859  -4.09611691   2.92615183
O    0.59420217   3.70931261   0.74541372
H   -0.13907512   3.16287042   1.06498943
C    0.89838800   4.65594523   1.75728893
H    1.72620417   5.26303619   1.38092986
H    1.22161981   4.18364068   2.69815394
H    0.05467323   5.32841118   1.97799747
O   -0.01329379  -2.61665949   0.33647109
H   -0.96374647  -2.47580770   0.21308653
C    0.65575361  -2.03026526  -0.76854075
H    1.72500386  -2.19805583  -0.61350708
H    0.48745679  -0.94429308  -0.84008057
H    0.37383731  -2.48959363  -1.72891462
O   -1.28909276   1.86517001   1.67974599
H   -1.10868182   1.16534916   2.32482424
C   -1.87336890   1.25824265   0.53834581
H   -2.07010363   2.06050478  -0.17800335
H   -2.82923951   0.76008331   0.76401364
H   -1.20552928   0.52684085   0.05686997
