60
Energy:   -336.67213670
O   -1.53410308  -1.55673778  -2.45478070
H   -1.84931849  -0.70313670  -2.78708735
C   -2.63084235  -2.45642766  -2.47074583
H   -2.25827493  -3.41265237  -2.09350184
H   -3.03078596  -2.62143966  -3.48346172
H   -3.45721358  -2.13114283  -1.81953335
O   -2.34129843   1.03498671  -3.16871871
H   -1.62244945   1.57100918  -2.80216813
C   -3.19285933   1.90067827  -3.90217349
H   -3.99685302   1.28073451  -4.30806644
H   -2.67913512   2.38853772  -4.74529740
H   -3.64830475   2.68196595  -3.27373387
O   -1.18452915  -1.00178225   3.39751141
H   -0.63160918  -1.70847999   3.03243461
C   -2.07475921  -1.59093908   4.33181246
H   -2.68996763  -0.78111654   4.73329879
H   -1.55136088  -2.07139053   5.17323857
H   -2.74545884  -2.33274577   3.87065935
O   -0.22350350   2.39634497  -1.93819597
H   -0.14553315   2.77734740  -1.05096373
C    0.81018944   1.43615191  -2.08666141
H    0.70765258   1.01694930  -3.09127107
H    0.73073110   0.61035743  -1.36241892
H    1.81568870   1.87722573  -2.00179426
O    3.88029920   0.26688299  -0.79163789
H    3.31958255   0.65600257  -0.10417439
C    4.97093219   1.14807971  -1.00738265
H    5.59225802   0.69459712  -1.78442381
H    5.59278330   1.28308143  -0.10857618
H    4.65188782   2.14084365  -1.36151226
O    2.15795620   1.46064059   1.10487700
H    1.43595582   2.10214004   1.02992916
C    1.63965826   0.30116973   1.73695956
H    2.46587804  -0.41087298   1.81338767
H    0.83215067  -0.17375485   1.15803343
H    1.26673579   0.50177407   2.75355390
O    0.38569366  -2.91770579   2.10014672
H    0.41100742  -2.79150552   1.14001340
C    1.57790946  -3.58741671   2.47782719
H    1.53295713  -3.72148221   3.56202778
H    2.48412499  -3.00747496   2.24284142
H    1.67199330  -4.58201566   2.01447150
O   -0.16537317   3.08982286   0.82069514
H   -0.84429665   2.47333876   1.13283860
C   -0.19711787   4.22895122   1.66562864
H    0.57360354   4.91288911   1.29997491
H    0.03175322   3.98641531   2.71518650
H   -1.16385021   4.75542405   1.63349932
O    0.44317221  -2.35984155  -0.63944186
H   -0.22563105  -2.12896038  -1.30112106
C    1.70368630  -2.37894512  -1.29003624
H    2.44533152  -2.64063690  -0.53045413
H    1.97886927  -1.40003393  -1.71286546
H    1.75672037  -3.13135252  -2.09243754
O   -1.90265734   1.07175379   1.63997457
H   -1.72299787   0.39307931   2.30746742
C   -2.22140808   0.40874355   0.42698275
H   -2.42090534   1.18777712  -0.31382272
H   -3.12072633  -0.22137347   0.51038872
H   -1.39403815  -0.21433234   0.05279992
