60
Energy:   -337.32813845
O   -1.49967718  -1.61575882   3.33916704
H   -0.61938662  -1.92089187   3.07382644
C   -2.27223636  -2.76041971   3.66387853
H   -3.26047314  -2.39863904   3.96050625
H   -1.85144967  -3.33271678   4.50541994
H   -2.40092773  -3.44300540   2.80930692
O   -2.75148381   1.32628275  -1.56181934
H   -2.24917917   2.12886816  -1.35695355
C   -3.50097237   1.57657696  -2.74001860
H   -4.06067010   0.66257634  -2.95641294
H   -2.86374737   1.80066757  -3.60979158
H   -4.22362284   2.39852469  -2.61772570
O    2.56716642  -2.40679863   0.10117639
H    3.02161871  -1.77632426  -0.47709558
C    1.99232024  -3.40892493  -0.72212703
H    1.48453681  -4.11060111  -0.05482520
H    2.74513603  -3.96953503  -1.29811490
H    1.24654097  -3.00568338  -1.42496903
O   -1.28877800   1.07866086   2.54749722
H   -1.43214688   0.19840839   2.92568266
C   -2.52098266   1.51686244   1.99778382
H   -2.34154357   2.50960828   1.57618862
H   -3.31636960   1.60588762   2.75423042
H   -2.88235149   0.86269180   1.18892618
O    0.87118590  -0.38204348  -2.76018457
H    0.07984493  -0.75988324  -2.34855383
C    0.60572535   0.98552778  -3.02816466
H    1.50717481   1.39559566  -3.49154182
H    0.39730410   1.56508289  -2.11522776
H   -0.23248786   1.12674019  -3.72833249
O    0.65256775   2.11503564   0.79827410
H    0.05823846   1.75660243   1.47408591
C    1.68975869   1.16942463   0.59190413
H    2.34994818   1.58896825  -0.17204495
H    1.31538510   0.20089169   0.22507218
H    2.28804273   0.98975924   1.49885169
O   -1.49416091  -1.18787301  -1.43111383
H   -2.02463882  -0.37800972  -1.46484682
C   -1.33301402  -1.54033048  -0.06643834
H   -0.73334136  -2.45438196  -0.04674577
H   -2.29104837  -1.74970656   0.43466959
H   -0.79963152  -0.76958811   0.51169368
O   -1.08448591   3.48635192  -0.90593363
H   -0.39730586   3.08199016  -0.35575327
C   -1.17381417   4.85562309  -0.54586323
H   -1.95225488   5.29575901  -1.17498614
H   -0.23686025   5.40508182  -0.72749412
H   -1.46313647   5.00050879   0.50678965
O    3.49256444  -0.54512925  -1.80796354
H    2.61788949  -0.43486321  -2.20947121
C    4.45330375  -0.50325455  -2.85092100
H    5.43260714  -0.62892970  -2.38118084
H    4.45402120   0.45697448  -3.39012136
H    4.32007773  -1.31365470  -3.58459652
O    1.06673800  -2.31061465   2.46903266
H    1.59361622  -2.38855231   1.65986745
C    1.90518871  -1.77131390   3.47833384
H    1.29599068  -1.69023039   4.38265039
H    2.27985464  -0.76648717   3.22788224
H    2.76783181  -2.41738814   3.70463519
