60
Energy:   -337.36326439
O   -1.90438580   0.55993789  -2.96472840
H   -1.20778836  -0.06809074  -3.20712335
C   -3.03976108   0.27365328  -3.76566401
H   -3.81464462   0.99009625  -3.47974418
H   -3.43394694  -0.74079600  -3.59747512
H   -2.84243825   0.39571257  -4.84220596
O    1.98245295  -1.56996321   3.28561980
H    1.22962462  -2.10557009   2.99441875
C    3.16142680  -2.17010383   2.77338384
H    3.99951488  -1.55424707   3.11074719
H    3.18025012  -2.19882697   1.67265772
H    3.31611121  -3.19320047   3.15037631
O    1.83475581  -0.42025196  -1.34720316
H    2.06028673   0.51571693  -1.45454048
C    1.16722137  -0.56226292  -0.10351331
H    0.92042822  -1.62225583   0.00133606
H    0.22929816   0.01292264  -0.05619587
H    1.79642525  -0.27196080   0.75240986
O    1.30178809   3.02240976   1.11555069
H    1.15409209   2.36876805   1.81509460
C    2.27828052   3.93943397   1.58252278
H    2.43255772   4.66855388   0.78248034
H    3.24535364   3.45825781   1.79703716
H    1.95389073   4.48417689   2.48296920
O    0.93267799   1.04667157   3.07648463
H    1.38594554   0.20543089   3.23550009
C   -0.46165732   0.81334660   3.19447734
H   -0.95693925   1.77097348   3.01245599
H   -0.75102767   0.46469619   4.19821287
H   -0.83581916   0.08928375   2.45386055
O   -2.16269688  -1.58691431   0.63598896
H   -2.38228017  -0.67214470   0.40489805
C   -2.16731839  -2.34650964  -0.56214599
H   -1.91812188  -3.37404198  -0.28364359
H   -1.41705470  -1.99837394  -1.28925208
H   -3.15161639  -2.35580620  -1.05595602
O    2.06148194   2.39454394  -1.52312822
H    1.81402371   2.70369488  -0.63903921
C    1.00840156   2.73779416  -2.40954503
H    1.30349900   2.38236607  -3.40054129
H    0.84249169   3.82468670  -2.47212179
H    0.05470702   2.25543702  -2.14388424
O   -2.54232282   1.05040682  -0.28306793
H   -2.34892955   0.97007314  -1.22888441
C   -2.16041427   2.35426937   0.12512574
H   -2.38503301   2.42766185   1.19266739
H   -2.72181783   3.14483689  -0.39699146
H   -1.08428663   2.54440576  -0.01116359
O    0.15576078  -1.28414903  -3.40400335
H    0.77731480  -1.09821687  -2.68461255
C    0.91056411  -1.72150140  -4.52272074
H    0.19508820  -1.92650073  -5.32369183
H    1.47197532  -2.64725000  -4.32126524
H    1.61742106  -0.95799260  -4.88353218
O   -0.34211491  -2.82814940   2.36655416
H   -0.98981155  -2.45193076   1.75224815
C   -1.05833229  -3.41074109   3.44365831
H   -0.31372097  -3.82965717   4.12596946
H   -1.72270242  -4.22733006   3.12028220
H   -1.65812855  -2.67547925   4.00259642
