
                                 *****************
                                 * O   R   C   A *
                                 *****************

           --- An Ab Initio, DFT and Semiempirical electronic structure package ---

                  #######################################################
                  #                        -***-                        #
                  #  Department of molecular theory and spectroscopy    #
                  #              Directorship: Frank Neese              #
                  # Max Planck Institute for Chemical Energy Conversion #
                  #                  D-45470 Muelheim/Ruhr              #
                  #                       Germany                       #
                  #                                                     #
                  #                  All rights reserved                #
                  #                        -***-                        #
                  #######################################################


                         Program Version 3.0.3 - RELEASE   -


 With contributions from (in alphabetic order):
   Ute Becker             : Parallelization
   Dmytro Bykov           : SCF Hessian
   Dmitry Ganyushin       : Spin-Orbit,Spin-Spin,Magnetic field MRCI
   Andreas Hansen         : Spin unrestricted coupled pair/coupled cluster methods
   Dimitrios Liakos       : Extrapolation schemes; parallel MDCI
   Robert Izsak           : Overlap fitted RIJCOSX, COSX-SCS-MP3
   Christian Kollmar      : KDIIS, OOCD, Brueckner-CCSD(T), CCSD density
   Simone Kossmann        : Meta GGA functionals, TD-DFT gradient, OOMP2, MP2 Hessian
   Taras Petrenko         : DFT Hessian,TD-DFT gradient, ASA and ECA modules, normal mode analysis, Resonance Raman, ABS, FL, XAS/XES, NRVS
   Christoph Reimann      : Effective Core Potentials
   Michael Roemelt        : Restricted open shell CIS
   Christoph Riplinger    : Improved optimizer, TS searches, QM/MM, DLPNO-CCSD
   Barbara Sandhoefer     : DKH picture change effects
   Igor Schapiro          : Molecular dynamics
   Kantharuban Sivalingam : CASSCF convergence, NEVPT2
   Boris Wezisla          : Elementary symmetry handling
   Frank Wennmohs         : Technical directorship


 We gratefully acknowledge several colleagues who have allowed us to
 interface, adapt or use parts of their codes:
   Stefan Grimme, W. Hujo, H. Kruse, T. Risthaus : VdW corrections, initial TS optimization,
                                                   DFT functionals, gCP
   Ed Valeev                                     : LibInt (2-el integral package), F12 methods
   Garnet Chan, S. Sharma, R. Olivares           : DMRG
   Ulf Ekstrom                                   : XCFun DFT Library
   Mihaly Kallay                                 : mrcc  (arbitrary order and MRCC methods)
   Andreas Klamt, Michael Diedenhofen            : otool_cosmo (COSMO solvation model)
   Frank Weinhold                                : gennbo (NPA and NBO analysis)
   Christopher J. Cramer and Donald G. Truhlar   : smd solvation model


 Your calculation uses the libint2 library for the computation of 2-el integrals
 For citations please refer to: http://libint.valeyev.net

 This ORCA versions uses:
   CBLAS   interface :  Fast vector & matrix operations
   LAPACKE interface :  Fast linear algebra routines
   SCALAPACK package :  Parallel linear algebra routines


Your calculation utilizes the basis: Ahlrichs-VDZ
Cite in your paper:
H - Kr: A. Schaefer, H. Horn and R. Ahlrichs, J. Chem. Phys. 97, 2571 (1992).

Your calculation utilizes the basis: Ahlrichs SVPalls1+f
Cite in your paper:
Rb - Xe: A. Schaefer, C. Huber and R. Ahlrichs, J. Chem. Phys. 100, 5829 (1994).

Your calculation utilizes the atom-pairwise dispersion correction
with the Becke-Johnson damping scheme (D3BJ)
Cite in your paper:
S.Grimme, S.Ehrlich, L.Goerigk, J Comput Chem, (2011), 32, 1456–1465 
S.Grimme, J.Antony, S.Ehrlich and H.Krieg, J.Chem.Phys., 132, (2010), 154104 
   

================================================================================
                                        WARNINGS
                       Please study these warnings very carefully!
================================================================================

WARNING: The RI method has been chosen with no auxiliary basis (AUX or GTOAUX in BASIS block)
        Standard SV/J expansion basis used (GTOAUX=VDZ_J)

Now building the actual basis set

WARNING: Geometry Optimization
  ===> : Switching off AutoStart
         For restart on a previous wavefunction, please use MOREAD


INFO   : the flag for use of LIBINT has been found!

================================================================================
                                       INPUT FILE
================================================================================
NAME = 4_BP86_8_h2o_rst.inp
|  1> ! BP86 Def2-SVP TightSCF Opt D3BJ
|  2> 
|  3> %pal nprocs 12 end
|  4> 
|  5> %scf
|  6>         maxiter 800
|  7> end
|  8> 
|  9> * xyz  0  1
| 10>   O      0.626597    2.379461    0.094233
| 11>   H     -0.213615    2.080784   -0.253715
| 12>   H      0.536947    3.330545    0.154512
| 13>   O     -2.032177   -0.481306    1.304586
| 14>   H     -1.239469   -0.118478    1.699809
| 15>   H     -2.694487   -0.416911    1.992649
| 16>   O     -1.649780    1.290088   -0.812103
| 17>   H     -1.962881    0.718868   -0.110742
| 18>   H     -1.286441    0.691632   -1.464841
| 19>   O      1.704338   -1.378437    0.833847
| 20>   H      0.963887   -1.873508    0.483319
| 21>   H      1.990121   -0.826462    0.105916
| 22>   O     -0.269659   -0.559013   -2.261623
| 23>   H     -0.416590   -1.298503   -1.671879
| 24>   H      0.616019   -0.260065   -2.055625
| 25>   O      2.096410    0.456491   -1.211328
| 26>   H      1.682289    1.202595   -0.777665
| 27>   H      2.890792    0.817990   -1.604402
| 28>   O     -0.688242   -2.358141   -0.190066
| 29>   H     -1.245921   -1.791886    0.343395
| 30>   H     -1.116937   -3.213479   -0.160919
| 31>   O      0.294926    0.539564    2.160439
| 32>   H      0.886527   -0.151572    1.862830
| 33>   H      0.482342    1.280515    1.584159
| 34> **                         ****END OF INPUT****
================================================================================

                       *****************************
                       * Geometry Optimization Run *
                       *****************************

Geometry optimization settings:
Update method            Update   .... BFGS
Choice of coordinates    CoordSys .... Redundant Internals
Initial Hessian          InHess   .... Almoef's Model

Convergence Tolerances:
Energy Change            TolE     ....  5.0000e-06 Eh
Max. Gradient            TolMAXG  ....  3.0000e-04 Eh/bohr
RMS Gradient             TolRMSG  ....  1.0000e-04 Eh/bohr
Max. Displacement        TolMAXD  ....  4.0000e-03 bohr
RMS Displacement         TolRMSD  ....  2.0000e-03 bohr

------------------------------------------------------------------------------
                        ORCA OPTIMIZATION COORDINATE SETUP
------------------------------------------------------------------------------

The optimization will be done in new redundant internal coordinates
Making redundant internal coordinates   ...  (new redundants) done
Evaluating the initial hessian          ...  (Almloef) done
Evaluating the coordinates              ...  done
Calculating the B-matrix                .... done
Calculating the G-matrix                .... done
Diagonalizing the G-matrix              .... done
The first mode is                       ....  528
The number of degrees of freedom        ....   66

    -----------------------------------------------------------------
                    Redundant Internal Coordinates


    -----------------------------------------------------------------
         Definition                    Initial Value    Approx d2E/dq
    -----------------------------------------------------------------
      1. B(H   1,O   0)                  0.9572         0.525332   
      2. B(H   2,O   0)                  0.9572         0.525333   
      3. B(H   4,O   3)                  0.9572         0.525333   
      4. B(H   5,O   3)                  0.9572         0.525332   
      5. B(O   6,H   1)                  1.7319         0.030508   
      6. B(H   7,H   1)                  2.2215         0.001079   
      7. B(H   7,O   6)                  0.9572         0.525332   
      8. B(H   7,O   3)                  1.8570         0.019271   
      9. B(H   7,H   4)                  2.1219         0.001556   
     10. B(H   8,O   6)                  0.9572         0.525332   
     11. B(H   8,H   1)                  2.1325         0.001497   
     12. B(H  10,O   9)                  0.9572         0.525331   
     13. B(H  11,O   9)                  0.9572         0.525332   
     14. B(O  12,H   8)                  1.7980         0.023932   
     15. B(H  13,O  12)                  0.9572         0.525332   
     16. B(H  13,H   8)                  2.1818         0.001249   
     17. B(H  14,O  12)                  0.9572         0.525333   
     18. B(H  14,H   8)                  2.2077         0.001136   
     19. B(O  15,H  14)                  1.8487         0.019863   
     20. B(O  15,H  11)                  1.8418         0.020372   
     21. B(H  16,H  14)                  2.2157         0.001103   
     22. B(H  16,H   1)                  2.1541         0.001383   
     23. B(H  16,O   0)                  1.8055         0.023285   
     24. B(H  16,O  15)                  0.9572         0.525333   
     25. B(H  16,H  11)                  2.2344         0.001030   
     26. B(H  17,O  15)                  0.9572         0.525333   
     27. B(O  18,H  13)                  1.8418         0.020372   
     28. B(O  18,H  10)                  1.8487         0.019863   
     29. B(H  19,O   3)                  1.8055         0.023285   
     30. B(H  19,H  13)                  2.2344         0.001030   
     31. B(H  19,O  18)                  0.9572         0.525333   
     32. B(H  19,H  10)                  2.2157         0.001103   
     33. B(H  19,H   4)                  2.1541         0.001383   
     34. B(H  20,O  18)                  0.9572         0.525332   
     35. B(O  21,H   4)                  1.7319         0.030508   
     36. B(H  22,O  21)                  0.9572         0.525332   
     37. B(H  22,H  11)                  2.1818         0.001249   
     38. B(H  22,H  10)                  2.2077         0.001136   
     39. B(H  22,O   9)                  1.7980         0.023932   
     40. B(H  22,H   4)                  2.1325         0.001497   
     41. B(H  23,H   4)                  2.2215         0.001079   
     42. B(H  23,H   1)                  2.1219         0.001556   
     43. B(H  23,O   0)                  1.8570         0.019271   
     44. B(H  23,O  21)                  0.9572         0.525332   
     45. A(H   1,O   0,H  23)           92.2241         0.199701   
     46. A(H   1,O   0,H   2)          104.5200         0.322921   
     47. A(H   2,O   0,H  23)          122.0196         0.199701   
     48. A(H  16,O   0,H  23)           92.7018         0.143681   
     49. A(H   1,O   0,H  16)           97.7192         0.204546   
     50. A(H   2,O   0,H  16)          137.1255         0.204546   
     51. A(O   0,H   1,H   7)          149.2130         0.135646   
     52. A(O   0,H   1,H  16)           56.1557         0.138335   
     53. A(H   7,H   1,H  16)          117.3068         0.098838   
     54. A(O   6,H   1,H  23)          112.2744         0.115609   
     55. A(H   8,H   1,H  16)           92.2391         0.099594   
     56. A(O   0,H   1,H   8)          148.3547         0.139230   
     57. A(O   6,H   1,H   8)           26.1448         0.115376   
     58. A(O   0,H   1,H  23)           60.9834         0.139673   
     59. A(H   8,H   1,H  23)          114.2826         0.099881   
     60. A(O   0,H   1,O   6)          170.9442         0.211831   
     61. A(H   7,H   1,H  23)           88.3558         0.099105   
     62. A(O   6,H   1,H  16)          117.7290         0.114906   
     63. A(H   7,H   1,H   8)           40.6290         0.099016   
     64. A(H  16,H   1,H  23)           76.5998         0.099687   
     65. A(O   6,H   1,H   7)           24.2051         0.113494   
     66. A(H   7,O   3,H  19)           92.7018         0.143681   
     67. A(H   5,O   3,H  19)          137.1256         0.204546   
     68. A(H   4,O   3,H   7)           92.2241         0.199701   
     69. A(H   4,O   3,H   5)          104.5200         0.322921   
     70. A(H   4,O   3,H  19)           97.7192         0.204546   
     71. A(H   5,O   3,H   7)          122.0195         0.199701   
     72. A(O   3,H   4,H  19)           56.1557         0.138335   
     73. A(H   7,H   4,H  23)           88.3558         0.099105   
     74. A(O   3,H   4,O  21)          170.9441         0.211831   
     75. A(H  19,H   4,O  21)          117.7289         0.114906   
     76. A(H   7,H   4,H  22)          114.2825         0.099881   
     77. A(O  21,H   4,H  23)           24.2051         0.113494   
     78. A(H  19,H   4,H  23)          117.3067         0.098838   
     79. A(O   3,H   4,H  22)          148.3546         0.139230   
     80. A(H  19,H   4,H  22)           92.2390         0.099594   
     81. A(H   7,H   4,O  21)          112.2743         0.115609   
     82. A(O  21,H   4,H  22)           26.1448         0.115376   
     83. A(O   3,H   4,H   7)           60.9834         0.139673   
     84. A(H  22,H   4,H  23)           40.6289         0.099016   
     85. A(O   3,H   4,H  23)          149.2130         0.135646   
     86. A(H   7,H   4,H  19)           76.5998         0.099687   
     87. A(H   7,O   6,H   8)          104.5201         0.322921   
     88. A(H   1,O   6,H   8)          100.9838         0.211831   
     89. A(H   1,O   6,H   7)          107.9058         0.211831   
     90. A(O   3,H   7,O   6)          163.0092         0.199701   
     91. A(H   1,H   7,O   6)           47.8891         0.135646   
     92. A(H   1,H   7,O   3)          118.3368         0.111075   
     93. A(H   4,H   7,O   6)          138.5191         0.139673   
     94. A(O   3,H   7,H   4)           26.7924         0.112981   
     95. A(H   1,H   7,H   4)           91.6267         0.099105   
     96. A(H   1,H   8,H  14)           89.9581         0.099132   
     97. A(O   6,H   8,H  14)          141.1775         0.136184   
     98. A(O  12,H   8,H  13)           25.5791         0.112963   
     99. A(H   1,H   8,H  13)          116.5848         0.099353   
    100. A(O   6,H   8,H  13)          141.8453         0.137213   
    101. A(H   1,H   8,O  12)          114.8532         0.113966   
    102. A(O   6,H   8,O  12)          162.1261         0.205265   
    103. A(O  12,H   8,H  14)           25.0771         0.112452   
    104. A(H  13,H   8,H  14)           40.3448         0.098725   
    105. A(H   1,H   8,O   6)           52.8714         0.139230   
    106. A(H  10,O   9,H  22)          102.1599         0.205265   
    107. A(H  11,O   9,H  22)          100.2262         0.205265   
    108. A(H  10,O   9,H  11)          104.5199         0.322920   
    109. A(O  18,H  10,H  19)           25.2300         0.111334   
    110. A(O   9,H  10,H  19)          140.8560         0.135871   
    111. A(O   9,H  10,O  18)          163.7927         0.200462   
    112. A(H  19,H  10,H  22)           88.6122         0.098454   
    113. A(O  18,H  10,H  22)          113.6245         0.111483   
    114. A(O   9,H  10,H  22)           52.7629         0.136184   
    115. A(O   9,H  11,H  16)          141.5596         0.135149   
    116. A(H  16,H  11,H  22)           88.1576         0.098512   
    117. A(O  15,H  11,H  22)          112.9316         0.112106   
    118. A(O  15,H  11,H  16)           24.8508         0.111116   
    119. A(O   9,H  11,O  15)          164.3188         0.201103   
    120. A(O   9,H  11,H  22)           54.1947         0.137213   
    121. A(H   8,O  12,H  14)          102.1601         0.205265   
    122. A(H  13,O  12,H  14)          104.5201         0.322921   
    123. A(H   8,O  12,H  13)          100.2262         0.205265   
    124. A(O  18,H  13,H  19)           24.8508         0.111116   
    125. A(O  12,H  13,H  19)          141.5596         0.135149   
    126. A(O  12,H  13,O  18)          164.3187         0.201103   
    127. A(H   8,H  13,O  12)           54.1948         0.137213   
    128. A(H   8,H  13,H  19)           88.1576         0.098512   
    129. A(H   8,H  13,O  18)          112.9316         0.112106   
    130. A(H   8,H  14,O  12)           52.7628         0.136184   
    131. A(O  15,H  14,H  16)           25.2300         0.111334   
    132. A(H   8,H  14,H  16)           88.6122         0.098454   
    133. A(O  12,H  14,H  16)          140.8559         0.135871   
    134. A(H   8,H  14,O  15)          113.6246         0.111483   
    135. A(O  12,H  14,O  15)          163.7926         0.200462   
    136. A(H  11,O  15,H  14)           90.5972         0.142416   
    137. A(H  11,O  15,H  17)          127.2032         0.201103   
    138. A(H  11,O  15,H  16)          101.1842         0.201103   
    139. A(H  16,O  15,H  17)          104.5200         0.322921   
    140. A(H  14,O  15,H  17)          128.5640         0.200462   
    141. A(H  14,O  15,H  16)           99.3567         0.200462   
    142. A(H  11,H  16,H  14)           72.2370         0.098247   
    143. A(H   1,H  16,H  11)          113.2837         0.098733   
    144. A(O   0,H  16,H  11)          118.7846         0.111796   
    145. A(H  11,H  16,O  15)           53.9651         0.135149   
    146. A(H   1,H  16,H  14)           89.1901         0.098885   
    147. A(O   0,H  16,H  14)          115.3053         0.112152   
    148. A(H  14,H  16,O  15)           55.4133         0.135871   
    149. A(O   0,H  16,H   1)           26.1251         0.113369   
    150. A(H   1,H  16,O  15)          143.9739         0.138335   
    151. A(O   0,H  16,O  15)          168.4770         0.204546   
    152. A(H  10,O  18,H  13)           90.5972         0.142416   
    153. A(H  10,O  18,H  20)          128.5640         0.200462   
    154. A(H  10,O  18,H  19)           99.3568         0.200462   
    155. A(H  19,O  18,H  20)          104.5200         0.322921   
    156. A(H  13,O  18,H  20)          127.2032         0.201103   
    157. A(H  13,O  18,H  19)          101.1841         0.201103   
    158. A(H   4,H  19,H  10)           89.1901         0.098885   
    159. A(O   3,H  19,H  10)          115.3053         0.112152   
    160. A(H  10,H  19,H  13)           72.2370         0.098247   
    161. A(H  10,H  19,O  18)           55.4132         0.135871   
    162. A(H  13,H  19,O  18)           53.9651         0.135149   
    163. A(O   3,H  19,H   4)           26.1251         0.113369   
    164. A(H   4,H  19,H  13)          113.2837         0.098733   
    165. A(H   4,H  19,O  18)          143.9739         0.138335   
    166. A(O   3,H  19,H  13)          118.7847         0.111796   
    167. A(O   3,H  19,O  18)          168.4770         0.204546   
    168. A(H   4,O  21,H  23)          107.9058         0.211831   
    169. A(H   4,O  21,H  22)          100.9839         0.211831   
    170. A(H  22,O  21,H  23)          104.5200         0.322920   
    171. A(H   4,H  22,O  21)           52.8713         0.139230   
    172. A(H  10,H  22,H  11)           40.3448         0.098725   
    173. A(O   9,H  22,H  11)           25.5790         0.112963   
    174. A(H   4,H  22,H  11)          116.5849         0.099353   
    175. A(H  11,H  22,O  21)          141.8454         0.137213   
    176. A(O   9,H  22,H  10)           25.0772         0.112452   
    177. A(H   4,H  22,H  10)           89.9582         0.099132   
    178. A(H  10,H  22,O  21)          141.1776         0.136184   
    179. A(H   4,H  22,O   9)          114.8534         0.113966   
    180. A(O   9,H  22,O  21)          162.1262         0.205265   
    181. A(H   1,H  23,H   4)           91.6267         0.099105   
    182. A(O   0,H  23,H   4)          118.3369         0.111075   
    183. A(H   4,H  23,O  21)           47.8891         0.135646   
    184. A(O   0,H  23,H   1)           26.7925         0.112981   
    185. A(H   1,H  23,O  21)          138.5191         0.139673   
    186. A(O   0,H  23,O  21)          163.0092         0.199701   
    187. D(O   6,H   1,O   0,H   2)   -167.3488         0.526489   
    188. D(H   7,H   1,O   0,H  23)     -5.6864         0.526489   
    189. D(H  23,H   1,O   0,H   2)   -123.9296         0.526489   
    190. D(H   7,H   1,O   0,H   2)   -129.6160         0.526489   
    191. D(H   8,H   1,O   0,H   2)    146.2831         0.526489   
    192. D(H  23,H   1,O   0,H  16)     93.0306         0.526489   
    193. D(H  16,H   1,O   0,H   2)    143.0398         0.526489   
    194. D(O   6,H   1,O   0,H  16)     49.6114         0.526489   
    195. D(H   8,H   1,O   0,H  23)    -89.7873         0.526489   
    196. D(H   7,H   1,O   0,H  16)     87.3442         0.526489   
    197. D(O   6,H   1,O   0,H  23)    -43.4192         0.526489   
    198. D(H  16,H   1,O   0,H  23)    -93.0306         0.526489   
    199. D(H   8,H   1,O   0,H  16)      3.2433         0.526489   
    200. D(H  22,H   4,O   3,H   5)    146.2832         0.526491   
    201. D(H  22,H   4,O   3,H   7)    -89.7873         0.526491   
    202. D(H  23,H   4,O   3,H   7)     -5.6866         0.526491   
    203. D(O  21,H   4,O   3,H  19)     49.6108         0.526491   
    204. D(H  23,H   4,O   3,H  19)     87.3440         0.526491   
    205. D(O  21,H   4,O   3,H   7)    -43.4198         0.526491   
    206. D(H  19,H   4,O   3,H   7)    -93.0306         0.526491   
    207. D(H   7,H   4,O   3,H   5)   -123.9295         0.526491   
    208. D(H  19,H   4,O   3,H   5)    143.0399         0.526491   
    209. D(O  21,H   4,O   3,H   5)   -167.3493         0.526491   
    210. D(H  22,H   4,O   3,H  19)      3.2433         0.526491   
    211. D(H   7,H   4,O   3,H  19)     93.0306         0.526491   
    212. D(H  23,H   4,O   3,H   5)   -129.6161         0.526491   
    213. D(H   7,O   6,H   1,O   0)     49.8175         0.002211   
    214. D(H   8,O   6,H   1,H   7)   -109.3360         0.002211   
    215. D(H   7,O   6,H   1,H  23)      9.3118         0.002211   
    216. D(H   8,O   6,H   1,H  23)   -100.0243         0.002211   
    217. D(H   8,O   6,H   1,O   0)    -59.5185         0.002211   
    218. D(H   8,O   6,H   1,H  16)    -13.9015         0.002211   
    219. D(H   7,O   6,H   1,H   8)    109.3360         0.002211   
    220. D(H   7,O   6,H   1,H  16)     95.4346         0.002211   
    221. D(O   6,H   7,H   4,H  23)     12.6692         0.001532   
    222. D(O   6,H   7,H   4,H  22)    -19.5627         0.001532   
    223. D(H   1,H   7,H   4,O   3)   -175.7083         0.001532   
    224. D(O   6,H   7,H   4,H  19)   -105.9264         0.001532   
    225. D(O   6,H   7,H   4,O   3)   -164.4225         0.001532   
    226. D(H   1,H   7,O   3,H   5)    113.5512         0.001757   
    227. D(O   6,H   7,H   4,O  21)      8.8637         0.001532   
    228. D(O   3,H   7,H   1,H   8)    128.0577         0.001516   
    229. D(H   1,H   7,O   3,H   4)      4.8754         0.001757   
    230. D(O   3,H   7,H   1,H  16)     70.3490         0.001516   
    231. D(O   6,H   7,O   3,H  19)    -60.3439         0.001757   
    232. D(H   4,H   7,H   1,H  23)     -1.4483         0.001516   
    233. D(O   3,H   7,H   1,O   6)    167.7403         0.001516   
    234. D(H   4,H   7,H   1,O   6)    169.9367         0.001516   
    235. D(H   4,H   7,H   1,O   0)      3.5244         0.001516   
    236. D(O   6,H   7,O   3,H   5)    146.1717         0.001757   
    237. D(H   4,H   7,O   3,H  19)    -97.8397         0.001757   
    238. D(O   6,H   7,O   3,H   4)     37.4958         0.001757   
    239. D(H   1,H   7,H   4,O  21)     -2.4221         0.001532   
    240. D(O   3,H   7,H   1,H  23)     -3.6447         0.001516   
    241. D(H   4,H   7,H   1,H   8)    130.2541         0.001516   
    242. D(H   4,H   7,H   1,H  16)     72.5454         0.001516   
    243. D(H   4,H   7,O   6,H   8)     91.5993         0.429907   
    244. D(H   1,H   7,O   3,H  19)    -92.9644         0.001757   
    245. D(H   1,H   7,H   4,H  22)    -30.8485         0.001532   
    246. D(H   1,H   7,H   4,H  19)   -117.2122         0.001532   
    247. D(H   4,H   7,O   3,H   5)    108.6759         0.001757   
    248. D(O   6,H   7,H   1,H  23)   -171.3850         0.001516   
    249. D(O   6,H   7,H   1,H  16)    -97.3913         0.001516   
    250. D(O   6,H   7,H   1,O   0)   -166.4123         0.001516   
    251. D(O   6,H   7,H   1,H   8)    -39.6826         0.001516   
    252. D(H   1,H   7,O   6,H   8)    106.8889         0.429907   
    253. D(H   4,H   7,O   6,H   1)    -15.2896         0.429907   
    254. D(O   3,H   7,H   4,H  19)     58.4961         0.001532   
    255. D(O   3,H   7,H   4,H  22)    144.8598         0.001532   
    256. D(O   3,H   7,H   4,O  21)    173.2862         0.001532   
    257. D(O   3,H   7,O   6,H   1)    -39.7610         0.429907   
    258. D(O   3,H   7,O   6,H   8)     67.1279         0.429907   
    259. D(O   3,H   7,H   1,O   0)      1.3280         0.001516   
    260. D(H   1,H   7,H   4,H  23)      1.3834         0.001532   
    261. D(O   3,H   7,H   4,H  23)    177.0917         0.001532   
    262. D(H  13,H   8,H   1,H   7)    -99.9363         0.001531   
    263. D(H  14,H   8,O   6,H   1)     19.5543         0.463788   
    264. D(H  14,H   8,H   1,H  23)    -76.4780         0.001531   
    265. D(H   1,H   8,O   6,H   7)   -111.9495         0.463788   
    266. D(O  12,H   8,O   6,H   1)     50.9455         0.463788   
    267. D(O  12,H   8,O   6,H   7)    -61.0040         0.463788   
    268. D(H  14,H   8,O   6,H   7)    -92.3953         0.463788   
    269. D(H  13,H   8,O   6,H   1)     86.8435         0.463788   
    270. D(H  14,H   8,H   1,H  16)     -0.1757         0.001531   
    271. D(H  14,H   8,H   1,H   7)   -131.4366         0.001531   
    272. D(H  14,H   8,H   1,O   0)     -2.8711         0.001531   
    273. D(H  13,H   8,H   1,H  23)    -44.9777         0.001531   
    274. D(O  12,H   8,H   1,O   6)   -164.7717         0.001531   
    275. D(O  12,H   8,H   1,H   7)   -128.3205         0.001531   
    276. D(O   6,H   8,H   1,H  23)     91.4098         0.001531   
    277. D(O  12,H   8,H   1,H  16)      2.9404         0.001531   
    278. D(H  13,H   8,H   1,O   0)     28.6292         0.001531   
    279. D(O  12,H   8,H   1,H  23)    -73.3619         0.001531   
    280. D(O   6,H   8,H   1,H  16)    167.7121         0.001531   
    281. D(O  12,H   8,H   1,O   0)      0.2451         0.001531   
    282. D(H  13,H   8,H   1,O   6)   -136.3875         0.001531   
    283. D(H  13,H   8,H   1,H  16)     31.3246         0.001531   
    284. D(H  13,H   8,O   6,H   7)    -25.1060         0.463788   
    285. D(H  14,H   8,H   1,O   6)   -167.8878         0.001531   
    286. D(O   6,H   8,H   1,H   7)     36.4512         0.001531   
    287. D(O   6,H   8,H   1,O   0)    165.0167         0.001531   
    288. D(H  19,H  10,O   9,H  11)    -93.1940         0.429905   
    289. D(O  18,H  10,O   9,H  22)     35.7578         0.429905   
    290. D(O  18,H  10,O   9,H  11)    -68.3299         0.429905   
    291. D(H  19,H  10,O   9,H  22)     10.8937         0.429905   
    292. D(H  22,H  10,O   9,H  11)   -104.0877         0.429905   
    293. D(O  15,H  11,O   9,H  22)    -37.6203         0.429907   
    294. D(O  15,H  11,O   9,H  10)     67.9146         0.429907   
    295. D(H  16,H  11,O   9,H  10)     92.0868         0.429907   
    296. D(H  16,H  11,O   9,H  22)    -13.4481         0.429907   
    297. D(H  22,H  11,O   9,H  10)    105.5349         0.429907   
    298. D(H  14,O  12,H   8,H  13)   -107.4267         0.001901   
    299. D(H  14,O  12,H   8,H   1)     -7.3688         0.001901   
    300. D(H  14,O  12,H   8,O   6)    -50.3939         0.001901   
    301. D(H  13,O  12,H   8,H  14)    107.4267         0.001901   
    302. D(H  13,O  12,H   8,H   1)    100.0579         0.001901   
    303. D(H  13,O  12,H   8,O   6)     57.0328         0.001901   
    304. D(H  19,H  13,H   8,O  12)    171.6822         0.001520   
    305. D(O  18,H  13,H   8,H  14)    131.0238         0.001520   
    306. D(H  19,H  13,H   8,H   1)     79.2130         0.001520   
    307. D(O  18,H  13,H   8,O  12)    169.6797         0.001520   
    308. D(O  18,H  13,H   8,H   1)     77.2105         0.001520   
    309. D(O  12,H  13,H   8,H  14)    -38.6559         0.001520   
    310. D(H  19,H  13,H   8,O   6)     16.3159         0.001520   
    311. D(O  12,H  13,H   8,H   1)    -92.4692         0.001520   
    312. D(O  12,H  13,H   8,O   6)   -155.3664         0.001520   
    313. D(O  18,H  13,H   8,O   6)     14.3134         0.001520   
    314. D(H  19,H  13,O  12,H   8)    -13.4484         0.429906   
    315. D(H  19,H  13,O  12,H  14)     92.0867         0.429906   
    316. D(O  18,H  13,O  12,H   8)    -37.6210         0.429906   
    317. D(O  18,H  13,O  12,H  14)     67.9141         0.429906   
    318. D(H   8,H  13,O  12,H  14)    105.5351         0.429906   
    319. D(H  19,H  13,H   8,H  14)    133.0263         0.001520   
    320. D(H  16,H  14,O  12,H  13)    -93.1941         0.429910   
    321. D(O  12,H  14,H   8,H   1)    173.3169         0.001516   
    322. D(H   8,H  14,O  12,H  13)   -104.0878         0.429910   
    323. D(H  16,H  14,H   8,H  13)   -133.6288         0.001516   
    324. D(H  16,H  14,H   8,O  12)   -173.1461         0.001516   
    325. D(O  15,H  14,H   8,H  13)   -130.2280         0.001516   
    326. D(O  15,H  14,H   8,O  12)   -169.7454         0.001516   
    327. D(O  15,H  14,H   8,H   1)      3.5715         0.001516   
    328. D(H  16,H  14,H   8,H   1)      0.1708         0.001516   
    329. D(O  15,H  14,H   8,O   6)    -11.9054         0.001516   
    330. D(O  12,H  14,H   8,H  13)     39.5173         0.001516   
    331. D(H  16,H  14,H   8,O   6)    -15.3062         0.001516   
    332. D(O  15,H  14,O  12,H   8)     35.7577         0.429910   
    333. D(O  12,H  14,H   8,O   6)    157.8400         0.001516   
    334. D(H  16,H  14,O  12,H   8)     10.8937         0.429910   
    335. D(O  15,H  14,O  12,H  13)    -68.3301         0.429910   
    336. D(H  11,O  15,H  14,H  16)    101.4380         0.001773   
    337. D(H  11,O  15,H  14,H   8)     93.4408         0.001773   
    338. D(H  11,O  15,H  14,O  12)     62.9243         0.001773   
    339. D(H  17,O  15,H  14,H  16)   -117.1511         0.001773   
    340. D(H  17,O  15,H  14,H   8)   -125.1483         0.001773   
    341. D(H  17,O  15,H  14,O  12)   -155.6648         0.001773   
    342. D(H  16,O  15,H  14,H   8)     -7.9972         0.001773   
    343. D(H  16,O  15,H  14,O  12)    -38.5137         0.001773   
    344. D(H  14,O  15,H  11,H  22)    -94.8928         0.001788   
    345. D(H  14,O  15,H  11,H  16)    -99.6598         0.001788   
    346. D(H  17,O  15,H  11,H  22)    122.8638         0.001788   
    347. D(H  17,O  15,H  11,H  16)    118.0969         0.001788   
    348. D(H  17,O  15,H  11,O   9)    155.3803         0.001788   
    349. D(H  14,O  15,H  11,O   9)    -62.3763         0.001788   
    350. D(H  16,O  15,H  11,O   9)     37.2835         0.001788   
    351. D(H  16,O  15,H  11,H  22)      4.7670         0.001788   
    352. D(H  11,H  16,O  15,H  14)     92.4843         0.495891   
    353. D(H  11,H  16,O  15,H  17)   -133.4634         0.495891   
    354. D(H  14,H  16,O  15,H  11)    -92.4843         0.495891   
    355. D(H  14,H  16,O  15,H  17)    134.0523         0.495891   
    356. D(H   1,H  16,O  15,H  14)     12.2270         0.495891   
    357. D(H   1,H  16,O  15,H  17)    146.2793         0.495891   
    358. D(O   0,H  16,O  15,H  11)    -54.0206         0.495891   
    359. D(O   0,H  16,O  15,H  17)    172.5160         0.495891   
    360. D(H  11,H  16,H  14,O  15)    -58.0318         0.001515   
    361. D(H  11,H  16,H  14,H   8)    114.6430         0.001515   
    362. D(H   1,H  16,H  14,O  15)   -172.8438         0.001515   
    363. D(H   1,H  16,H  14,H   8)     -0.1691         0.001515   
    364. D(H   1,H  16,H  14,O  12)     -8.8252         0.001515   
    365. D(O   0,H  16,H  14,O  15)   -172.1001         0.001515   
    366. D(O   0,H  16,H  14,H   8)      0.5747         0.001515   
    367. D(O   0,H  16,H  14,O  12)     -8.0815         0.001515   
    368. D(O  15,H  16,H  14,H   8)    172.6747         0.001515   
    369. D(H  14,H  16,H  11,H  22)   -115.8773         0.001513   
    370. D(H  14,H  16,H  11,O  15)     59.7310         0.001513   
    371. D(H  14,H  16,H  11,O   9)   -104.9998         0.001513   
    372. D(H   1,H  16,H  11,O  15)    140.8712         0.001513   
    373. D(O   0,H  16,H  11,H  22)     -6.2369         0.001513   
    374. D(H  11,H  16,H   1,O   0)    108.2429         0.001527   
    375. D(O  15,H  16,H  11,O   9)   -164.7308         0.001513   
    376. D(H  11,H  16,H   1,H   8)    -70.0548         0.001527   
    377. D(H  11,H  16,H   1,H   7)    -36.6279         0.001527   
    378. D(H  11,H  16,H   1,O   6)    -63.9731         0.001527   
    379. D(O   0,H  16,H  11,O  15)    169.3714         0.001513   
    380. D(H  14,H  16,H   1,H  23)    114.6160         0.001527   
    381. D(H  14,H  16,H   1,H   8)      0.1751         0.001527   
    382. D(H  14,H  16,H   1,H   7)     33.6020         0.001527   
    383. D(H   1,H  16,H  11,O   9)    -23.8596         0.001513   
    384. D(O   0,H  16,H  11,O   9)      4.6406         0.001513   
    385. D(H  14,H  16,H   1,O   6)      6.2568         0.001527   
    386. D(H  14,H  16,H   1,O   0)    178.4729         0.001527   
    387. D(H   1,H  16,H  11,H  22)    -34.7370         0.001513   
    388. D(O   0,H  16,H   1,H  23)    -63.8569         0.001527   
    389. D(O   0,H  16,H   1,H   8)   -178.2977         0.001527   
    390. D(O  15,H  16,H  11,H  22)   -175.6083         0.001513   
    391. D(O  15,H  16,H   1,H   8)     -9.8671         0.001527   
    392. D(O  15,H  16,H  14,O  12)    164.0186         0.001515   
    393. D(O  15,H  16,H   1,O   0)    168.4307         0.001527   
    394. D(H  11,H  16,O   0,H  23)      8.1213         0.001905   
    395. D(H  11,H  16,O   0,H   2)    154.3191         0.001905   
    396. D(H  14,H  16,O   0,H   2)   -122.8776         0.001905   
    397. D(H   1,H  16,O   0,H  23)     92.6138         0.001905   
    398. D(H   1,H  16,O   0,H   2)   -121.1885         0.001905   
    399. D(O  15,H  16,O   0,H  23)     56.4222         0.001905   
    400. D(H  11,H  16,H  14,O  12)    105.9868         0.001515   
    401. D(H  14,H  16,O   0,H   1)     -1.6891         0.001905   
    402. D(O  15,H  16,O   0,H   2)   -157.3801         0.001905   
    403. D(O  15,H  16,O   0,H   1)    -36.1916         0.001905   
    404. D(O   0,H  16,O  15,H  14)     38.4637         0.495891   
    405. D(H  11,H  16,O   0,H   1)    -84.4925         0.001905   
    406. D(H  14,H  16,O   0,H  23)     90.9247         0.001905   
    407. D(O  15,H  16,H   1,H   7)     23.5598         0.001527   
    408. D(H   1,H  16,O  15,H  11)    -80.2573         0.495891   
    409. D(O  15,H  16,H   1,O   6)     -3.7854         0.001527   
    410. D(H  11,H  16,H   1,H  23)     44.3861         0.001527   
    411. D(O   0,H  16,H   1,H   7)   -144.8709         0.001527   
    412. D(O  15,H  16,H   1,H  23)    104.5738         0.001527   
    413. D(O   0,H  16,H   1,O   6)   -172.2161         0.001527   
    414. D(H  10,O  18,H  13,H  19)    -99.6599         0.001788   
    415. D(H  10,O  18,H  13,H   8)    -94.8928         0.001788   
    416. D(H  10,O  18,H  13,O  12)    -62.3757         0.001788   
    417. D(H  20,O  18,H  13,H  19)    118.0969         0.001788   
    418. D(H  20,O  18,H  13,O  12)    155.3810         0.001788   
    419. D(H  19,O  18,H  13,H   8)      4.7670         0.001788   
    420. D(H  19,O  18,H  13,O  12)     37.2842         0.001788   
    421. D(H  13,O  18,H  10,H  22)     93.4407         0.001773   
    422. D(H  13,O  18,H  10,H  19)    101.4379         0.001773   
    423. D(H  13,O  18,H  10,O   9)     62.9241         0.001773   
    424. D(H  20,O  18,H  13,H   8)    122.8639         0.001788   
    425. D(H  20,O  18,H  10,H  22)   -125.1483         0.001773   
    426. D(H  20,O  18,H  10,H  19)   -117.1512         0.001773   
    427. D(H  20,O  18,H  10,O   9)   -155.6650         0.001773   
    428. D(H  19,O  18,H  10,H  22)     -7.9972         0.001773   
    429. D(H  19,O  18,H  10,O   9)    -38.5139         0.001773   
    430. D(H  10,H  19,O   3,H   7)     90.9247         0.001905   
    431. D(H  10,H  19,O   3,H   5)   -122.8776         0.001905   
    432. D(H  10,H  19,O   3,H   4)     -1.6891         0.001905   
    433. D(H   4,H  19,O   3,H   7)     92.6138         0.001905   
    434. D(H   4,H  19,O   3,H   5)   -121.1886         0.001905   
    435. D(H  13,H  19,O   3,H   7)      8.1213         0.001905   
    436. D(H  13,H  19,O   3,H   5)    154.3190         0.001905   
    437. D(H  13,H  19,O   3,H   4)    -84.4925         0.001905   
    438. D(O  18,H  19,O   3,H   7)     56.4226         0.001905   
    439. D(O  18,H  19,O   3,H   5)   -157.3798         0.001905   
    440. D(O  18,H  19,H   4,O   3)    168.4308         0.001527   
    441. D(O  18,H  19,O   3,H   4)    -36.1912         0.001905   
    442. D(H  10,H  19,O  18,H  13)    -92.4844         0.495891   
    443. D(H  10,H  19,O  18,H  20)    134.0523         0.495891   
    444. D(H   4,H  19,O  18,H  13)    -80.2574         0.495891   
    445. D(H   4,H  19,O  18,H  20)    146.2792         0.495891   
    446. D(O   3,H  19,O  18,H  10)     38.4633         0.495891   
    447. D(O   3,H  19,O  18,H  20)    172.5156         0.495891   
    448. D(H  13,H  19,O  18,H  10)     92.4844         0.495891   
    449. D(H  13,H  19,O  18,H  20)   -133.4634         0.495891   
    450. D(H  10,H  19,H  13,H   8)   -115.8773         0.001513   
    451. D(H  10,H  19,H  13,O  12)   -104.9996         0.001513   
    452. D(H   4,H  19,H  13,O  18)    140.8712         0.001513   
    453. D(H   4,H  19,H  13,H   8)    -34.7370         0.001513   
    454. D(H   4,H  19,H  13,O  12)    -23.8593         0.001513   
    455. D(O   3,H  19,H  13,O  18)    169.3713         0.001513   
    456. D(O   3,H  19,H  13,H   8)     -6.2369         0.001513   
    457. D(O  18,H  19,H  13,H   8)   -175.6082         0.001513   
    458. D(O  18,H  19,H  13,O  12)   -164.7305         0.001513   
    459. D(H   4,H  19,H  10,H  22)     -0.1691         0.001515   
    460. D(H   4,H  19,H  10,O   9)     -8.8253         0.001515   
    461. D(O   3,H  19,H  10,H  22)      0.5746         0.001515   
    462. D(O   3,H  19,H  10,O  18)   -172.1001         0.001515   
    463. D(O   3,H  19,H  10,O   9)     -8.0815         0.001515   
    464. D(H  13,H  19,H  10,H  22)    114.6429         0.001515   
    465. D(H  13,H  19,H  10,O  18)    -58.0318         0.001515   
    466. D(H  13,H  19,H  10,O   9)    105.9868         0.001515   
    467. D(O  18,H  19,H  10,H  22)    172.6747         0.001515   
    468. D(H   4,H  19,H  10,O  18)   -172.8438         0.001515   
    469. D(O  18,H  19,H  10,O   9)    164.0186         0.001515   
    470. D(H  10,H  19,H   4,H  23)     33.6020         0.001527   
    471. D(H  10,H  19,H   4,H  22)      0.1752         0.001527   
    472. D(O   3,H  19,H  13,O  12)      4.6408         0.001513   
    473. D(H  10,H  19,H   4,O  21)      6.2568         0.001527   
    474. D(H  10,H  19,H   4,H   7)    114.6160         0.001527   
    475. D(H  10,H  19,H   4,O   3)    178.4729         0.001527   
    476. D(O   3,H  19,H   4,H  23)   -144.8709         0.001527   
    477. D(O   3,H  19,H   4,H  22)   -178.2977         0.001527   
    478. D(O   3,H  19,H   4,O  21)   -172.2161         0.001527   
    479. D(O   3,H  19,H   4,H   7)    -63.8569         0.001527   
    480. D(H  10,H  19,H  13,O  18)     59.7309         0.001513   
    481. D(H  13,H  19,H   4,H  23)    -36.6280         0.001527   
    482. D(H  13,H  19,H   4,H  22)    -70.0548         0.001527   
    483. D(H  13,H  19,H   4,O  21)    -63.9731         0.001527   
    484. D(O   3,H  19,O  18,H  13)    -54.0210         0.495891   
    485. D(H  13,H  19,H   4,H   7)     44.3861         0.001527   
    486. D(H  13,H  19,H   4,O   3)    108.2429         0.001527   
    487. D(O  18,H  19,H   4,H  23)     23.5598         0.001527   
    488. D(H   4,H  19,O  18,H  10)     12.2269         0.495891   
    489. D(O  18,H  19,H   4,H  22)     -9.8670         0.001527   
    490. D(O  18,H  19,H   4,O  21)     -3.7853         0.001527   
    491. D(O  18,H  19,H   4,H   7)    104.5739         0.001527   
    492. D(H  23,O  21,H   4,H  22)    109.3360         0.002211   
    493. D(H  23,O  21,H   4,H  19)     95.4346         0.002211   
    494. D(H  23,O  21,H   4,H   7)      9.3118         0.002211   
    495. D(H  23,O  21,H   4,O   3)     49.8181         0.002211   
    496. D(H  22,O  21,H   4,H  23)   -109.3360         0.002211   
    497. D(H  22,O  21,H   4,H  19)    -13.9015         0.002211   
    498. D(H  22,O  21,H   4,H   7)   -100.0242         0.002211   
    499. D(H  22,O  21,H   4,O   3)    -59.5179         0.002211   
    500. D(H  11,H  22,O  21,H  23)    -25.1060         0.463788   
    501. D(H  10,H  22,O  21,H   4)     19.5543         0.463788   
    502. D(H  10,H  22,O  21,H  23)    -92.3953         0.463788   
    503. D(O   9,H  22,O  21,H  23)    -61.0039         0.463788   
    504. D(H   4,H  22,O  21,H  23)   -111.9496         0.463788   
    505. D(H  10,H  22,H  11,H  16)    133.0264         0.001520   
    506. D(H  10,H  22,H  11,O   9)    -38.6561         0.001520   
    507. D(O   9,H  22,H  11,H  16)    171.6824         0.001520   
    508. D(O   9,H  22,H  11,O  15)    169.6799         0.001520   
    509. D(H   4,H  22,H  11,H  16)     79.2130         0.001520   
    510. D(H   4,H  22,H  11,O  15)     77.2105         0.001520   
    511. D(H   4,H  22,H  11,O   9)    -92.4694         0.001520   
    512. D(O  21,H  22,H  11,H  16)     16.3159         0.001520   
    513. D(O  21,H  22,H  11,O   9)   -155.3665         0.001520   
    514. D(H  11,H  22,H  10,H  19)   -133.6288         0.001516   
    515. D(H  11,H  22,H  10,O  18)   -130.2280         0.001516   
    516. D(O   9,H  22,H  10,H  19)   -173.1461         0.001516   
    517. D(O   9,H  22,H  10,O  18)   -169.7454         0.001516   
    518. D(H   4,H  22,H  10,H  19)      0.1708         0.001516   
    519. D(H   4,H  22,H  10,O   9)    173.3169         0.001516   
    520. D(O  21,H  22,H  10,H  19)    -15.3061         0.001516   
    521. D(O  21,H  22,H  10,O  18)    -11.9053         0.001516   
    522. D(O  21,H  22,H  10,O   9)    157.8400         0.001516   
    523. D(H  11,H  22,O   9,H  10)   -107.4266         0.001901   
    524. D(H  10,H  22,O   9,H  11)    107.4266         0.001901   
    525. D(H   4,H  22,O   9,H  11)    100.0578         0.001901   
    526. D(H   4,H  22,O   9,H  10)     -7.3688         0.001901   
    527. D(O  21,H  22,O   9,H  11)     57.0325         0.001901   
    528. D(H   4,H  22,H  10,O  18)      3.5716         0.001516   
    529. D(O  21,H  22,O   9,H  10)    -50.3940         0.001901   
    530. D(H  11,H  22,H   4,H  23)    -99.9363         0.001531   
    531. D(H  11,H  22,H   4,O  21)   -136.3875         0.001531   
    532. D(H  11,H  22,H  10,O   9)     39.5174         0.001516   
    533. D(H  11,H  22,H   4,H  19)     31.3246         0.001531   
    534. D(H  11,H  22,H   4,H   7)    -44.9777         0.001531   
    535. D(H  11,H  22,H   4,O   3)     28.6292         0.001531   
    536. D(O  21,H  22,H  11,O  15)     14.3134         0.001520   
    537. D(H  10,H  22,H   4,H  23)   -131.4367         0.001531   
    538. D(H  10,H  22,H   4,O  21)   -167.8878         0.001531   
    539. D(H  10,H  22,H   4,H  19)     -0.1758         0.001531   
    540. D(H  10,H  22,H   4,H   7)    -76.4780         0.001531   
    541. D(H  10,H  22,H   4,O   3)     -2.8711         0.001531   
    542. D(O   9,H  22,H   4,H  23)   -128.3205         0.001531   
    543. D(O   9,H  22,H   4,O  21)   -164.7717         0.001531   
    544. D(H  10,H  22,H  11,O  15)    131.0239         0.001520   
    545. D(O   9,H  22,H   4,H  19)      2.9403         0.001531   
    546. D(O   9,H  22,H   4,H   7)    -73.3619         0.001531   
    547. D(O   9,H  22,H   4,O   3)      0.2450         0.001531   
    548. D(O   9,H  22,O  21,H   4)     50.9457         0.463788   
    549. D(O  21,H  22,H   4,H  23)     36.4512         0.001531   
    550. D(O  21,H  22,H   4,H  19)    167.7121         0.001531   
    551. D(O  21,H  22,H   4,H   7)     91.4098         0.001531   
    552. D(H  11,H  22,O  21,H   4)     86.8436         0.463788   
    553. D(O  21,H  22,H   4,O   3)    165.0167         0.001531   
    554. D(H   4,H  23,O  21,H  22)    106.8890         0.429907   
    555. D(H   1,H  23,O  21,H  22)     91.5993         0.429907   
    556. D(O   0,H  23,O  21,H   4)    -39.7610         0.429907   
    557. D(O   0,H  23,O  21,H  22)     67.1280         0.429907   
    558. D(H   1,H  23,H   4,H  22)    130.2540         0.001516   
    559. D(H   1,H  23,H   4,O  21)    169.9366         0.001516   
    560. D(H   1,H  23,H   4,H  19)     72.5454         0.001516   
    561. D(H   1,H  23,H   4,H   7)     -1.4483         0.001516   
    562. D(O   0,H  23,H   4,H  22)    128.0577         0.001516   
    563. D(O   0,H  23,H   4,O  21)    167.7403         0.001516   
    564. D(O   0,H  23,H   4,H  19)     70.3491         0.001516   
    565. D(O   0,H  23,H   4,O   3)      1.3282         0.001516   
    566. D(O  21,H  23,H   4,H  22)    -39.6826         0.001516   
    567. D(O  21,H  23,H   4,H  19)    -97.3912         0.001516   
    568. D(O  21,H  23,H   4,O   3)   -166.4120         0.001516   
    569. D(H   4,H  23,H   1,H  16)   -117.2123         0.001532   
    570. D(H   4,H  23,H   1,H   8)    -30.8485         0.001532   
    571. D(H   4,H  23,H   1,H   7)      1.3834         0.001532   
    572. D(H   4,H  23,H   1,O   6)     -2.4220         0.001532   
    573. D(H   4,H  23,H   1,O   0)   -175.7084         0.001532   
    574. D(O   0,H  23,H   1,H  16)     58.4961         0.001532   
    575. D(O   0,H  23,H   1,H   8)    144.8599         0.001532   
    576. D(O  21,H  23,H   4,H   7)   -171.3849         0.001516   
    577. D(O   0,H  23,H   1,H   7)    177.0918         0.001532   
    578. D(O   0,H  23,H   1,O   6)    173.2863         0.001532   
    579. D(O  21,H  23,H   1,H  16)   -105.9264         0.001532   
    580. D(O   0,H  23,H   4,H   7)     -3.6447         0.001516   
    581. D(O  21,H  23,H   1,H   8)    -19.5626         0.001532   
    582. D(O  21,H  23,H   1,H   7)     12.6693         0.001532   
    583. D(O  21,H  23,H   1,O   6)      8.8638         0.001532   
    584. D(H   1,H  23,H   4,O   3)      3.5246         0.001516   
    585. D(O  21,H  23,H   1,O   0)   -164.4225         0.001532   
    586. D(H   4,H  23,O   0,H  16)    -92.9644         0.001757   
    587. D(H   4,H  23,O   0,H   2)    113.5511         0.001757   
    588. D(H   4,H  23,O   0,H   1)      4.8752         0.001757   
    589. D(H   1,H  23,O   0,H  16)    -97.8397         0.001757   
    590. D(H   1,H  23,O   0,H   2)    108.6759         0.001757   
    591. D(O  21,H  23,O   0,H  16)    -60.3439         0.001757   
    592. D(H   1,H  23,O  21,H   4)    -15.2897         0.429907   
    593. D(O  21,H  23,O   0,H   2)    146.1716         0.001757   
    594. D(O  21,H  23,O   0,H   1)     37.4957         0.001757   
    -----------------------------------------------------------------

Number of atoms                         .... 24
Number of degrees of freedom            .... 594

         *************************************************************
         *                GEOMETRY OPTIMIZATION CYCLE   1            *
         *************************************************************
---------------------------------
CARTESIAN COORDINATES (ANGSTROEM)
---------------------------------
  O      0.626597    2.379461    0.094233
  H     -0.213615    2.080784   -0.253715
  H      0.536947    3.330545    0.154512
  O     -2.032177   -0.481306    1.304586
  H     -1.239469   -0.118478    1.699809
  H     -2.694487   -0.416911    1.992649
  O     -1.649780    1.290088   -0.812103
  H     -1.962881    0.718868   -0.110742
  H     -1.286441    0.691632   -1.464841
  O      1.704338   -1.378437    0.833847
  H      0.963887   -1.873508    0.483319
  H      1.990121   -0.826462    0.105916
  O     -0.269659   -0.559013   -2.261623
  H     -0.416590   -1.298503   -1.671879
  H      0.616019   -0.260065   -2.055625
  O      2.096410    0.456491   -1.211328
  H      1.682289    1.202595   -0.777665
  H      2.890792    0.817990   -1.604402
  O     -0.688242   -2.358141   -0.190066
  H     -1.245921   -1.791886    0.343395
  H     -1.116937   -3.213479   -0.160919
  O      0.294926    0.539564    2.160439
  H      0.886527   -0.151572    1.862830
  H      0.482342    1.280515    1.584159

----------------------------
CARTESIAN COORDINATES (A.U.)
----------------------------
  NO LB      ZA    FRAG    MASS        X           Y           Z
   0 O     8.0000    0    15.999          1.184096726336654          4.496529636346396          0.178074562777801
   1 H     1.0000    0     1.008         -0.403673848097588          3.932111903845198         -0.479451866067830
   2 H     1.0000    0     1.008          1.014682778430614          6.293817926700755          0.291985364404440
   3 O     8.0000    0    15.999         -3.840257985653687         -0.909536526613102          2.465310258147790
   4 H     1.0000    0     1.008         -2.342256961485240         -0.223890972894722          3.212173489974549
   5 H     1.0000    0     1.008         -5.091842501411072         -0.787847612219243          3.765560891032048
   6 O     8.0000    0    15.999         -3.117632381220603          2.437913008658199         -1.534652262535850
   7 H     1.0000    0     1.008         -3.709307523477480          1.358463646439702         -0.209272051522707
   8 H     1.0000    0     1.008         -2.431021177447789          1.306995065456223         -2.768148319739340
   9 O     8.0000    0    15.999          3.220732059635078         -2.604868422864008          1.575742467591834
  10 H     1.0000    0     1.008          1.821482454046954         -3.540417029710536          0.913340545320685
  11 H     1.0000    0     1.008          3.760783663365495         -1.561786840092826          0.200152233200403
  12 O     8.0000    0    15.999         -0.509581659547071         -1.056381475301721         -4.273848088177383
  13 H     1.0000    0     1.008         -0.787241010130254         -2.453815054075147         -3.159393439054128
  14 H     1.0000    0     1.008          1.164107203292035         -0.491451627018230         -3.884568284041873
  15 O     8.0000    0    15.999          3.961640764413851          0.862642972599846         -2.289078178350562
  16 H     1.0000    0     1.008          3.179065488108249          2.272575200023028         -1.469573873935870
  17 H     1.0000    0     1.008          5.462805190130482          1.545777080286245         -3.031880388715524
  18 O     8.0000    0    15.999         -1.300588893862230         -4.456240675171194         -0.359172687369877
  19 H     1.0000    0     1.008         -2.354449474501300         -3.386173803207616          0.648922505757888
  20 H     1.0000    0     1.008         -2.110705038843601         -6.072595247107130         -0.304092839744474
  21 O     8.0000    0    15.999          0.557329369772859          1.019628191723086          4.082638039042696
  22 H     1.0000    0     1.008          1.675293240326805         -0.286429569570712          3.520238534052525
  23 H     1.0000    0     1.008          0.911494282887844          2.419822660378172          2.993626662586556

--------------------------------
INTERNAL COORDINATES (ANGSTROEM)
--------------------------------
 O      0   0   0   0.000000     0.000     0.000
 H      1   0   0   0.957200     0.000     0.000
 H      1   2   0   0.957200   104.520     0.000
 O      2   1   3   3.507103   121.440   231.109
 H      4   2   1   0.957200    58.474     6.514
 H      4   2   1   0.957200   128.979    89.738
 O      2   1   3   1.731926   170.944   192.651
 H      7   2   1   0.957200   107.906    49.818
 H      7   2   1   0.957200   100.984   300.481
 O      5   4   2   3.317135   118.893   273.537
 H     10   5   4   0.957201    66.769   352.305
 H     10   5   4   0.957200   104.150    92.276
 O      9   7   2   1.798004   162.126    50.946
 H     13   9   7   0.957200   100.226    57.033
 H     13   9   7   0.957199   102.160   309.606
 O     12  10   5   1.841846   164.319   358.703
 H     16  12  10   0.957200   101.184    37.283
 H     16  12  10   0.957200   127.203   155.380
 O     14  13   9   1.841846   164.319   322.379
 H     19  14  13   0.957200   101.184    37.284
 H     19  14  13   0.957200   127.203   155.381
 O      5   4   2   1.731926   170.944   319.767
 H     22   5   4   0.957200   100.984   300.482
 H     22   5   4   0.957200   107.906    49.818

---------------------------
INTERNAL COORDINATES (A.U.)
---------------------------
 O      0   0   0   0.000000     0.000     0.000
 H      1   0   0   1.808846     0.000     0.000
 H      1   2   0   1.808845   104.520     0.000
 O      2   1   3   6.627465   121.440   231.109
 H      4   2   1   1.808845    58.474     6.514
 H      4   2   1   1.808846   128.979    89.738
 O      2   1   3   3.272866   170.944   192.651
 H      7   2   1   1.808846   107.906    49.818
 H      7   2   1   1.808846   100.984   300.481
 O      5   4   2   6.268477   118.893   273.537
 H     10   5   4   1.808847    66.769   352.305
 H     10   5   4   1.808846   104.150    92.276
 O      9   7   2   3.397736   162.126    50.946
 H     13   9   7   1.808846   100.226    57.033
 H     13   9   7   1.808845   102.160   309.606
 O     12  10   5   3.480585   164.319   358.703
 H     16  12  10   1.808845   101.184    37.283
 H     16  12  10   1.808845   127.203   155.380
 O     14  13   9   3.480585   164.319   322.379
 H     19  14  13   1.808845   101.184    37.284
 H     19  14  13   1.808846   127.203   155.381
 O      5   4   2   3.272866   170.944   319.767
 H     22   5   4   1.808846   100.984   300.482
 H     22   5   4   1.808846   107.906    49.818

---------------------
BASIS SET INFORMATION
---------------------
There are 2 groups of distinct atoms

 Group   1 Type O   : 7s4p1d contracted to 3s2p1d pattern {511/31/1}
 Group   2 Type H   : 4s1p contracted to 2s1p pattern {31/1}

Atom   0O    basis set group =>   1
Atom   1H    basis set group =>   2
Atom   2H    basis set group =>   2
Atom   3O    basis set group =>   1
Atom   4H    basis set group =>   2
Atom   5H    basis set group =>   2
Atom   6O    basis set group =>   1
Atom   7H    basis set group =>   2
Atom   8H    basis set group =>   2
Atom   9O    basis set group =>   1
Atom  10H    basis set group =>   2
Atom  11H    basis set group =>   2
Atom  12O    basis set group =>   1
Atom  13H    basis set group =>   2
Atom  14H    basis set group =>   2
Atom  15O    basis set group =>   1
Atom  16H    basis set group =>   2
Atom  17H    basis set group =>   2
Atom  18O    basis set group =>   1
Atom  19H    basis set group =>   2
Atom  20H    basis set group =>   2
Atom  21O    basis set group =>   1
Atom  22H    basis set group =>   2
Atom  23H    basis set group =>   2
-------------------------------
AUXILIARY BASIS SET INFORMATION
-------------------------------
There are 2 groups of distinct atoms

 Group   1 Type O   : 12s5p4d2f1g contracted to 6s4p3d1f1g pattern {711111/2111/211/2/1}
 Group   2 Type H   : 5s2p1d contracted to 3s1p1d pattern {311/2/1}

Atom   0O    basis set group =>   1
Atom   1H    basis set group =>   2
Atom   2H    basis set group =>   2
Atom   3O    basis set group =>   1
Atom   4H    basis set group =>   2
Atom   5H    basis set group =>   2
Atom   6O    basis set group =>   1
Atom   7H    basis set group =>   2
Atom   8H    basis set group =>   2
Atom   9O    basis set group =>   1
Atom  10H    basis set group =>   2
Atom  11H    basis set group =>   2
Atom  12O    basis set group =>   1
Atom  13H    basis set group =>   2
Atom  14H    basis set group =>   2
Atom  15O    basis set group =>   1
Atom  16H    basis set group =>   2
Atom  17H    basis set group =>   2
Atom  18O    basis set group =>   1
Atom  19H    basis set group =>   2
Atom  20H    basis set group =>   2
Atom  21O    basis set group =>   1
Atom  22H    basis set group =>   2
Atom  23H    basis set group =>   2
smp-n118.crc.pitt.edu.222349hfi_wait_for_device: The /dev/hfi1_0 device failed to appear after 15.0 seconds: Connection timed out
smp-n118.crc.pitt.edu.222352hfi_wait_for_device: The /dev/hfi1_0 device failed to appear after 15.0 seconds: Connection timed out
smp-n118.crc.pitt.edu.222356hfi_wait_for_device: The /dev/hfi1_0 device failed to appear after 15.0 seconds: Connection timed out
smp-n118.crc.pitt.edu.222367hfi_wait_for_device: The /dev/hfi1_0 device failed to appear after 15.0 seconds: Connection timed out
smp-n118.crc.pitt.edu.222353hfi_wait_for_device: The /dev/hfi1_0 device failed to appear after 15.0 seconds: Connection timed out
smp-n118.crc.pitt.edu.222357hfi_wait_for_device: The /dev/hfi1_0 device failed to appear after 15.0 seconds: Connection timed out
smp-n118.crc.pitt.edu.222359hfi_wait_for_device: The /dev/hfi1_0 device failed to appear after 15.0 seconds: Connection timed out
smp-n118.crc.pitt.edu.222361hfi_wait_for_device: The /dev/hfi1_0 device failed to appear after 15.0 seconds: Connection timed out
smp-n118.crc.pitt.edu.222363hfi_wait_for_device: The /dev/hfi1_0 device failed to appear after 15.0 seconds: Connection timed out
smp-n118.crc.pitt.edu.222350hfi_wait_for_device: The /dev/hfi1_0 device failed to appear after 15.0 seconds: Connection timed out
smp-n118.crc.pitt.edu.222365hfi_wait_for_device: The /dev/hfi1_0 device failed to appear after 15.0 seconds: Connection timed out
smp-n118.crc.pitt.edu.222369hfi_wait_for_device: The /dev/hfi1_0 device failed to appear after 15.0 seconds: Connection timed out


           ************************************************************
           *        Program running with 12 parallel MPI-processes    *
           *              working on a common directory               *
           ************************************************************
------------------------------------------------------------------------------
                           ORCA GTO INTEGRAL CALCULATION
                           -- RI-GTO INTEGRALS CHOSEN --
------------------------------------------------------------------------------

                         BASIS SET STATISTICS AND STARTUP INFO

Gaussian basis set:
 # of primitive gaussian shells          ...  176
 # of primitive gaussian functions       ...  304
 # of contracted shells                  ...   96
 # of contracted basis functions         ...  192
 Highest angular momentum                ...    2
 Maximum contraction depth               ...    5
Auxiliary gaussian basis set:
 # of primitive gaussian shells          ...  320
 # of primitive gaussian functions       ...  816
 # of contracted shells                  ...  200
 # of contracted aux-basis functions     ...  568
 Highest angular momentum                ...    4
 Maximum contraction depth               ...    7
Ratio of auxiliary to basis functions    ...  2.96
Integral package used                  ... LIBINT
 One Electron integrals                  ... done
 Ordering auxiliary basis shells         ... done
 Integral threshhold             Thresh  ...  2.500e-11
 Primitive cut-off               TCut    ...  2.500e-12
 Pre-screening matrix                    ... done
 Shell pair data                         ... 
 Ordering of the shell pairs             ... done (   0.001 sec) 4291 of 4656 pairs
 Determination of significant pairs      ... done (   0.000 sec)
 Creation of shell pair data             ... done (   0.001 sec)
 Storage of shell pair data              ... done (   0.001 sec)
 Shell pair data done in (   0.002 sec)
 Computing two index integrals           ... done
 Cholesky decomposition of the V-matrix  ... done


Timings:
 Total evaluation time                   ...   0.135 sec (  0.002 min)
 One electron matrix time                ...   0.018 sec (  0.000 min) = 13.2%
 Schwartz matrix evaluation time         ...   0.085 sec (  0.001 min) = 62.5%
 Two index repulsion integral time       ...   0.011 sec (  0.000 min) =  7.9%
 Cholesky decomposition of V             ...   0.006 sec (  0.000 min) =  4.2%
 Three index repulsion integral time     ...   0.000 sec (  0.000 min) =  0.0%

           ************************************************************
           *              Shut down parallel processing               *
           ************************************************************
smp-n118.crc.pitt.edu.222381hfi_wait_for_device: The /dev/hfi1_0 device failed to appear after 15.0 seconds: Connection timed out
smp-n118.crc.pitt.edu.222377hfi_wait_for_device: The /dev/hfi1_0 device failed to appear after 15.0 seconds: Connection timed out
smp-n118.crc.pitt.edu.222379hfi_wait_for_device: The /dev/hfi1_0 device failed to appear after 15.0 seconds: Connection timed out
smp-n118.crc.pitt.edu.222383hfi_wait_for_device: The /dev/hfi1_0 device failed to appear after 15.0 seconds: Connection timed out
smp-n118.crc.pitt.edu.222385hfi_wait_for_device: The /dev/hfi1_0 device failed to appear after 15.0 seconds: Connection timed out
smp-n118.crc.pitt.edu.222376hfi_wait_for_device: The /dev/hfi1_0 device failed to appear after 15.0 seconds: Connection timed out
smp-n118.crc.pitt.edu.222388hfi_wait_for_device: The /dev/hfi1_0 device failed to appear after 15.0 seconds: Connection timed out
smp-n118.crc.pitt.edu.222391hfi_wait_for_device: The /dev/hfi1_0 device failed to appear after 15.0 seconds: Connection timed out
smp-n118.crc.pitt.edu.222389hfi_wait_for_device: The /dev/hfi1_0 device failed to appear after 15.0 seconds: Connection timed out
smp-n118.crc.pitt.edu.222375hfi_wait_for_device: The /dev/hfi1_0 device failed to appear after 15.0 seconds: Connection timed out
smp-n118.crc.pitt.edu.222386hfi_wait_for_device: The /dev/hfi1_0 device failed to appear after 15.0 seconds: Connection timed out
smp-n118.crc.pitt.edu.222393hfi_wait_for_device: The /dev/hfi1_0 device failed to appear after 15.0 seconds: Connection timed out


           ************************************************************
           *        Program running with 12 parallel MPI-processes    *
           *              working on a common directory               *
           ************************************************************
-------------------------------------------------------------------------------
                                 ORCA SCF
-------------------------------------------------------------------------------

------------
SCF SETTINGS
------------
Hamiltonian:
 Density Functional     Method          .... DFT(GTOs)
 Exchange Functional    Exchange        .... B88
   X-Alpha parameter    XAlpha          ....  0.666667
   Becke's b parameter  XBeta           ....  0.004200
 Correlation Functional Correlation     .... P86
 LDA part of GGA corr.  LDAOpt          .... PW91-LDA
 Gradients option       PostSCFGGA      .... off
 RI-approximation to the Coulomb term is turned on
   Number of auxiliary basis functions  .... 568


General Settings:
 Integral files         IntName         .... 4_BP86_8_h2o_rst
 Hartree-Fock type      HFTyp           .... RHF
 Total Charge           Charge          ....    0
 Multiplicity           Mult            ....    1
 Number of Electrons    NEL             ....   80
 Basis Dimension        Dim             ....  192
 Nuclear Repulsion      ENuc            ....    516.5463769792 Eh

Convergence Acceleration:
 DIIS                   CNVDIIS         .... on
   Start iteration      DIISMaxIt       ....    12
   Startup error        DIISStart       ....  0.200000
   # of expansion vecs  DIISMaxEq       ....     5
   Bias factor          DIISBfac        ....   1.050
   Max. coefficient     DIISMaxC        ....  10.000
 Newton-Raphson         CNVNR           .... off
 SOSCF                  CNVSOSCF        .... on
   Start iteration      SOSCFMaxIt      ....   150
   Startup grad/error   SOSCFStart      ....  0.003300
 Level Shifting         CNVShift        .... on
   Level shift para.    LevelShift      ....    0.2500
   Turn off err/grad.   ShiftErr        ....    0.0010
 Zerner damping         CNVZerner       .... off
 Static damping         CNVDamp         .... on
   Fraction old density DampFac         ....    0.7000
   Max. Damping (<1)    DampMax         ....    0.9800
   Min. Damping (>=0)   DampMin         ....    0.0000
   Turn off err/grad.   DampErr         ....    0.1000
 Fernandez-Rico         CNVRico         .... off

SCF Procedure:
 Maximum # iterations   MaxIter         ....   800
 SCF integral mode      SCFMode         .... Direct
   Integral package                     .... LIBINT
 Reset frequeny         DirectResetFreq ....    20
 Integral Threshold     Thresh          ....  2.500e-11 Eh
 Primitive CutOff       TCut            ....  2.500e-12 Eh

Convergence Tolerance:
 Convergence Check Mode ConvCheckMode   .... Total+1el-Energy
 Energy Change          TolE            ....  1.000e-08 Eh
 1-El. energy change                    ....  1.000e-05 Eh
 Orbital Gradient       TolG            ....  1.000e-05
 Orbital Rotation angle TolX            ....  1.000e-05
 DIIS Error             TolErr          ....  5.000e-07


Diagonalization of the overlap matrix:
Smallest eigenvalue                        ... 2.084e-02
Time for diagonalization                   ...    0.006 sec
Threshold for overlap eigenvalues          ... 1.000e-08
Number of eigenvalues below threshold      ... 0
Time for construction of square roots      ...    0.002 sec
Total time needed                          ...    0.008 sec

-------------------
DFT GRID GENERATION
-------------------

General Integration Accuracy     IntAcc      ...  4.340
Radial Grid Type                 RadialGrid  ... Gauss-Chebyshev
Angular Grid (max. acc.)         AngularGrid ... Lebedev-110
Angular grid pruning method      GridPruning ... 3 (G Style)
Weight generation scheme         WeightScheme... Becke
Basis function cutoff            BFCut       ...    1.0000e-11
Integration weight cutoff        WCut        ...    1.0000e-14
Grids for H and He will be reduced by one unit

# of grid points (after initial pruning)     ...  26432 (   0.0 sec)
# of grid points (after weights+screening)   ...  24229 (   0.0 sec)
nearest neighbour list constructed           ...    0.0 sec
Grid point re-assignment to atoms done       ...    0.0 sec
Grid point division into batches done        ...    0.0 sec
Reduced shell lists constructed in    0.0 sec

Total number of grid points                  ...    24229
Total number of batches                      ...      394
Average number of points per batch           ...       61
Average number of grid points per atom       ...     1010
Average number of shells per batch           ...    61.47 (64.03%)
Average number of basis functions per batch  ...   112.53 (58.61%)
Average number of large shells per batch     ...    41.91 (68.18%)
Average number of large basis fcns per batch ...    73.09 (64.95%)
Maximum spatial batch extension              ...  20.95, 13.15, 13.47 au
Average spatial batch extension              ...   0.29,  0.26,  0.26 au

Time for grid setup =    0.083 sec

------------------------------
INITIAL GUESS: MODEL POTENTIAL
------------------------------
Loading Hartree-Fock densities                     ... done
Calculating cut-offs                               ... done
Setting up the integral package                    ... done
Initializing the effective Hamiltonian             ... done
Starting the Coulomb interaction                   ... done (   0.0 sec)
Reading the grid                                   ... done
Mapping shells                                     ... done
Starting the XC term evaluation                    ... done (   0.0 sec)
  promolecular density results
     # of electrons  =     79.958997066
     EX              =    -70.402411356
     EC              =     -2.925975491
     EX+EC           =    -73.328386846
Transforming the Hamiltonian                       ... done (   0.0 sec)
Diagonalizing the Hamiltonian                      ... done (   0.0 sec)
Back transforming the eigenvectors                 ... done (   0.0 sec)
Now organizing SCF variables                       ... done
                      ------------------
                      INITIAL GUESS DONE (   0.2 sec)
                      ------------------
--------------
SCF ITERATIONS
--------------
ITER       Energy         Delta-E        Max-DP      RMS-DP      [F,P]     Damp
               ***  Starting incremental Fock matrix formation  ***
  0   -610.5168143188   0.000000000000 0.08427538  0.00310176  0.2708064 0.7000
  1   -610.7873872280  -0.270572909236 0.04536879  0.00173769  0.1040139 0.7000
                               ***Turning on DIIS***
  2   -610.8695124763  -0.082125248269 0.04918288  0.00187573  0.0190207 0.0000
  3   -611.0229844195  -0.153471943275 0.02504548  0.00099614  0.0607733 0.0000
  4   -611.0493123100  -0.026327890491 0.00583234  0.00025637  0.0112857 0.0000
                      *** Initiating the SOSCF procedure ***
                           *** Shutting down DIIS ***
                      *** Re-Reading the Fockian *** 
                      *** Removing any level shift *** 
ITER      Energy       Delta-E        Grad      Rot      Max-DP    RMS-DP
  5   -611.05033790  -0.0010255939  0.000731  0.000731  0.001701  0.000077
               *** Restarting incremental Fock matrix formation ***
  6   -611.05039300  -0.0000550997  0.000435  0.001742  0.001711  0.000057
  7   -611.05039169   0.0000013109  0.000610  0.000330  0.001082  0.000023
  8   -611.05040098  -0.0000092836  0.000051  0.000256  0.000219  0.000009
  9   -611.05040104  -0.0000000686  0.000054  0.000038  0.000155  0.000004
 10   -611.05040120  -0.0000001510  0.000019  0.000093  0.000066  0.000003
 11   -611.05040120  -0.0000000049  0.000010  0.000023  0.000031  0.000001
 12   -611.05040122  -0.0000000197  0.000008  0.000018  0.000024  0.000001
 13   -611.05040124  -0.0000000202  0.000003  0.000012  0.000009  0.000000
                  ***Gradient check signals convergence***
              ***Rediagonalizing the Fockian in SOSCF/NRSCF***

               *****************************************************
               *                     SUCCESS                       *
               *           SCF CONVERGED AFTER  14 CYCLES          *
               *****************************************************

Setting up the final grid:

General Integration Accuracy     IntAcc      ...  4.670
Radial Grid Type                 RadialGrid  ... Gauss-Chebyshev
Angular Grid (max. acc.)         AngularGrid ... Lebedev-302
Angular grid pruning method      GridPruning ... 3 (G Style)
Weight generation scheme         WeightScheme... Becke
Basis function cutoff            BFCut       ...    1.0000e-11
Integration weight cutoff        WCut        ...    1.0000e-14
Grids for H and He will be reduced by one unit

# of grid points (after initial pruning)     ... 104000 (   0.0 sec)
# of grid points (after weights+screening)   ...  93792 (   0.1 sec)
nearest neighbour list constructed           ...    0.0 sec
Grid point re-assignment to atoms done       ...    0.0 sec
Grid point division into batches done        ...    0.2 sec
Reduced shell lists constructed in    0.3 sec

Total number of grid points                  ...    93792
Total number of batches                      ...     1480
Average number of points per batch           ...       63
Average number of grid points per atom       ...     3908
Average number of shells per batch           ...    56.77 (59.13%)
Average number of basis functions per batch  ...   102.42 (53.34%)
Average number of large shells per batch     ...    38.80 (68.35%)
Average number of large basis fcns per batch ...    66.86 (65.29%)
Maximum spatial batch extension              ...  14.47, 11.66, 14.13 au
Average spatial batch extension              ...   0.18,  0.18,  0.19 au

Final grid set up in    0.5 sec
Final integration                            ... done (   0.1 sec)
Change in XC energy                          ...    -0.000939255
Integrated number of electrons               ...    80.000131757
Previous integrated no of electrons          ...    79.989196584

----------------
TOTAL SCF ENERGY
----------------

Total Energy       :         -611.05134048 Eh          -16627.55230 eV

Components:
Nuclear Repulsion  :          516.54637698 Eh           14055.94151 eV
Electronic Energy  :        -1127.59771746 Eh          -30683.49381 eV

One Electron Energy:        -1869.66308009 Eh          -50876.11890 eV
Two Electron Energy:          742.06536263 Eh           20192.62509 eV

Virial components:
Potential Energy   :        -1217.78169853 Eh          -33137.52470 eV
Kinetic Energy     :          606.73035805 Eh           16509.97239 eV
Virial Ratio       :            2.00712175


DFT components:
N(Alpha)           :       40.000065878641 electrons
N(Beta)            :       40.000065878641 electrons
N(Total)           :       80.000131757283 electrons
E(X)               :      -71.932976304693 Eh       
E(C)               :       -2.973311242777 Eh       
E(XC)              :      -74.906287547470 Eh       

---------------
SCF CONVERGENCE
---------------

  Last Energy change         ...    1.4374e-08  Tolerance :   1.0000e-08
  Last MAX-Density change    ...    3.8310e-06  Tolerance :   1.0000e-07
  Last RMS-Density change    ...    8.9722e-08  Tolerance :   5.0000e-09
  Last Orbital Gradient      ...    8.3925e-07  Tolerance :   1.0000e-05
  Last Orbital Rotation      ...    9.9524e-07  Tolerance :   1.0000e-05

             **** THE GBW FILE WAS UPDATED (4_BP86_8_h2o_rst.gbw) ****
             **** DENSITY FILE WAS UPDATED (4_BP86_8_h2o_rst.scfp.tmp) ****
             **** ENERGY FILE WAS UPDATED (4_BP86_8_h2o_rst.en.tmp) ****
----------------
ORBITAL ENERGIES
----------------

  NO   OCC          E(Eh)            E(eV) 
   0   2.0000     -18.798521      -511.5338 
   1   2.0000     -18.798462      -511.5322 
   2   2.0000     -18.792431      -511.3680 
   3   2.0000     -18.792125      -511.3597 
   4   2.0000     -18.742062      -509.9974 
   5   2.0000     -18.741434      -509.9803 
   6   2.0000     -18.740769      -509.9623 
   7   2.0000     -18.740256      -509.9483 
   8   2.0000      -0.942922       -25.6582 
   9   2.0000      -0.940064       -25.5805 
  10   2.0000      -0.929959       -25.3055 
  11   2.0000      -0.926935       -25.2232 
  12   2.0000      -0.890158       -24.2224 
  13   2.0000      -0.888067       -24.1655 
  14   2.0000      -0.874658       -23.8007 
  15   2.0000      -0.872951       -23.7542 
  16   2.0000      -0.512689       -13.9510 
  17   2.0000      -0.510894       -13.9021 
  18   2.0000      -0.490956       -13.3596 
  19   2.0000      -0.489543       -13.3211 
  20   2.0000      -0.457079       -12.4378 
  21   2.0000      -0.455789       -12.4027 
  22   2.0000      -0.451592       -12.2885 
  23   2.0000      -0.448867       -12.2143 
  24   2.0000      -0.393035       -10.6950 
  25   2.0000      -0.370022       -10.0688 
  26   2.0000      -0.362992        -9.8775 
  27   2.0000      -0.344196        -9.3660 
  28   2.0000      -0.323274        -8.7967 
  29   2.0000      -0.313978        -8.5438 
  30   2.0000      -0.311652        -8.4805 
  31   2.0000      -0.286092        -7.7850 
  32   2.0000      -0.280665        -7.6373 
  33   2.0000      -0.278281        -7.5724 
  34   2.0000      -0.273764        -7.4495 
  35   2.0000      -0.272527        -7.4158 
  36   2.0000      -0.243589        -6.6284 
  37   2.0000      -0.238720        -6.4959 
  38   2.0000      -0.225476        -6.1355 
  39   2.0000      -0.224443        -6.1074 
  40   0.0000       0.006165         0.1678 
  41   0.0000       0.025153         0.6844 
  42   0.0000       0.044724         1.2170 
  43   0.0000       0.052989         1.4419 
  44   0.0000       0.110927         3.0185 
  45   0.0000       0.127843         3.4788 
  46   0.0000       0.154727         4.2103 
  47   0.0000       0.176448         4.8014 
  48   0.0000       0.188370         5.1258 
  49   0.0000       0.198825         5.4103 
  50   0.0000       0.225023         6.1232 
  51   0.0000       0.234020         6.3680 
  52   0.0000       0.240673         6.5490 
  53   0.0000       0.242666         6.6033 
  54   0.0000       0.252739         6.8774 
  55   0.0000       0.263225         7.1627 
  56   0.0000       0.454380        12.3643 
  57   0.0000       0.463668        12.6170 
  58   0.0000       0.471233        12.8229 
  59   0.0000       0.475764        12.9462 
  60   0.0000       0.498932        13.5766 
  61   0.0000       0.519534        14.1372 
  62   0.0000       0.524016        14.2592 
  63   0.0000       0.555980        15.1290 
  64   0.0000       0.561052        15.2670 
  65   0.0000       0.566624        15.4186 
  66   0.0000       0.577413        15.7122 
  67   0.0000       0.593547        16.1512 
  68   0.0000       0.600258        16.3339 
  69   0.0000       0.620678        16.8895 
  70   0.0000       0.623814        16.9748 
  71   0.0000       0.652317        17.7505 
  72   0.0000       0.807449        21.9718 
  73   0.0000       0.825342        22.4587 
  74   0.0000       0.832768        22.6608 
  75   0.0000       0.866406        23.5761 
  76   0.0000       0.883655        24.0455 
  77   0.0000       0.890884        24.2422 
  78   0.0000       0.901647        24.5351 
  79   0.0000       0.907554        24.6958 
  80   0.0000       0.918692        24.9989 
  81   0.0000       0.936670        25.4881 
  82   0.0000       0.945431        25.7265 
  83   0.0000       0.953526        25.9468 
  84   0.0000       0.964772        26.2528 
  85   0.0000       0.980364        26.6771 
  86   0.0000       0.984464        26.7886 
  87   0.0000       0.998439        27.1689 
  88   0.0000       1.040285        28.3076 
  89   0.0000       1.043234        28.3878 
  90   0.0000       1.072759        29.1912 
  91   0.0000       1.092987        29.7417 
  92   0.0000       1.106174        30.1005 
  93   0.0000       1.130503        30.7625 
  94   0.0000       1.146754        31.2047 
  95   0.0000       1.157199        31.4890 
  96   0.0000       1.177070        32.0297 
  97   0.0000       1.180194        32.1147 
  98   0.0000       1.206296        32.8250 
[...]
      dxy     :     0.000218
  1 H s       :     0.733904  s :     0.733904
      pz      :     0.019168  p :     0.079322
      px      :     0.043563
      py      :     0.016590
  2 H s       :     0.750737  s :     0.750737
      pz      :     0.017384  p :     0.066307
      px      :     0.017075
      py      :     0.031849
  3 O s       :     3.704609  s :     3.704609
      pz      :     1.519373  p :     4.654776
      px      :     1.352162
      py      :     1.783241
      dz2     :     0.000750  d :     0.006422
      dxz     :     0.003929
      dyz     :     0.000809
      dx2y2   :     0.000578
      dxy     :     0.000356
  4 H s       :     0.736036  s :     0.736036
      pz      :     0.018026  p :     0.078909
      px      :     0.043878
      py      :     0.017006
  5 H s       :     0.750225  s :     0.750225
      pz      :     0.022480  p :     0.066140
      px      :     0.026003
      py      :     0.017657
  6 O s       :     3.665106  s :     3.665106
      pz      :     1.391340  p :     4.633685
      px      :     1.702639
      py      :     1.539707
      dz2     :     0.000275  d :     0.007972
      dxz     :     0.000693
      dyz     :     0.003945
      dx2y2   :     0.001505
      dxy     :     0.001553
  7 H s       :     0.782766  s :     0.782766
      pz      :     0.030670  p :     0.070665
      px      :     0.017325
      py      :     0.022669
  8 H s       :     0.764800  s :     0.764800
      pz      :     0.026257  p :     0.073925
      px      :     0.020324
      py      :     0.027343
  9 O s       :     3.677103  s :     3.677103
      pz      :     1.500042  p :     4.629750
      px      :     1.572660
      py      :     1.557049
      dz2     :     0.001689  d :     0.008477
      dxz     :     0.002194
      dyz     :     0.002867
      dx2y2   :     0.000707
      dxy     :     0.001020
 10 H s       :     0.790414  s :     0.790414
      pz      :     0.017603  p :     0.070241
      px      :     0.031262
      py      :     0.021376
 11 H s       :     0.785701  s :     0.785701
      pz      :     0.028014  p :     0.070491
      px      :     0.017123
      py      :     0.025354
 12 O s       :     3.677046  s :     3.677046
      pz      :     1.744775  p :     4.629371
      px      :     1.401797
      py      :     1.482798
      dz2     :     0.001150  d :     0.008420
      dxz     :     0.001497
      dyz     :     0.002938
      dx2y2   :     0.002542
      dxy     :     0.000295
 13 H s       :     0.787506  s :     0.787506
      pz      :     0.026071  p :     0.070287
      px      :     0.015757
      py      :     0.028459
 14 H s       :     0.789101  s :     0.789101
      pz      :     0.017233  p :     0.070275
      px      :     0.034534
      py      :     0.018509
 15 O s       :     3.688332  s :     3.688332
      pz      :     1.669791  p :     4.612601
      px      :     1.410967
      py      :     1.531843
      dz2     :     0.000570  d :     0.007440
      dxz     :     0.000859
      dyz     :     0.001840
      dx2y2   :     0.001724
      dxy     :     0.002447
 16 H s       :     0.771230  s :     0.771230
      pz      :     0.021965  p :     0.072870
      px      :     0.022369
      py      :     0.028535
 17 H s       :     0.750370  s :     0.750370
      pz      :     0.021400  p :     0.067585
      px      :     0.028538
      py      :     0.017647
 18 O s       :     3.687557  s :     3.687557
      pz      :     1.732961  p :     4.610251
      px      :     1.619050
      py      :     1.258240
      dz2     :     0.001011  d :     0.007445
      dxz     :     0.001621
      dyz     :     0.000853
      dx2y2   :     0.000845
      dxy     :     0.003116
 19 H s       :     0.774616  s :     0.774616
      pz      :     0.023184  p :     0.072626
      px      :     0.021139
      py      :     0.028304
 20 H s       :     0.750692  s :     0.750692
      pz      :     0.017646  p :     0.067610
      px      :     0.019019
      py      :     0.030945
 21 O s       :     3.665177  s :     3.665177
      pz      :     1.728245  p :     4.634252
      px      :     1.565487
      py      :     1.340520
      dz2     :     0.000952  d :     0.007943
      dxz     :     0.001825
      dyz     :     0.003432
      dx2y2   :     0.000327
      dxy     :     0.001407
 22 H s       :     0.765432  s :     0.765432
      pz      :     0.018978  p :     0.073559
      px      :     0.024680
      py      :     0.029902
 23 H s       :     0.784863  s :     0.784863
      pz      :     0.025699  p :     0.070394
      px      :     0.015194
      py      :     0.029501


                     *******************************
                     * LOEWDIN POPULATION ANALYSIS *
                     *******************************

----------------------
LOEWDIN ATOMIC CHARGES
----------------------
   0 O :   -0.111039
   1 H :    0.025033
   2 H :    0.080547
   3 O :   -0.110549
   4 H :    0.025080
   5 H :    0.080883
   6 O :   -0.064908
   7 H :    0.037246
   8 H :    0.037986
   9 O :   -0.109964
  10 H :    0.037557
  11 H :    0.038169
  12 O :   -0.108730
  13 H :    0.038607
  14 H :    0.037853
  15 O :   -0.090253
  16 H :    0.031875
  17 H :    0.087345
  18 O :   -0.090377
  19 H :    0.031313
  20 H :    0.087382
  21 O :   -0.066329
  22 H :    0.038261
  23 H :    0.037013

-------------------------------
LOEWDIN REDUCED ORBITAL CHARGES
-------------------------------
  0 O s       :     3.449237  s :     3.449237
      pz      :     1.739146  p :     4.647800
      px      :     1.551948
      py      :     1.356705
      dz2     :     0.002251  d :     0.014003
      dxz     :     0.002466
      dyz     :     0.000642
      dx2y2   :     0.007893
      dxy     :     0.000751
  1 H s       :     0.706681  s :     0.706681
      pz      :     0.062734  p :     0.268285
      px      :     0.166900
      py      :     0.038651
  2 H s       :     0.742826  s :     0.742826
      pz      :     0.046823  p :     0.176628
      px      :     0.039864
      py      :     0.089941
  3 O s       :     3.448976  s :     3.448976
      pz      :     1.548016  p :     4.647562
      px      :     1.368132
      py      :     1.731414
      dz2     :     0.000677  d :     0.014011
      dxz     :     0.008479
      dyz     :     0.001306
      dx2y2   :     0.002265
      dxy     :     0.001284
  4 H s       :     0.707462  s :     0.707462
      pz      :     0.061711  p :     0.267458
      px      :     0.153478
      py      :     0.052269
  5 H s       :     0.742526  s :     0.742526
      pz      :     0.064968  p :     0.176591
      px      :     0.063631
      py      :     0.047992
  6 O s       :     3.428319  s :     3.428319
      pz      :     1.406080  p :     4.621226
      px      :     1.649972
      py      :     1.565174
      dz2     :     0.000758  d :     0.015363
      dxz     :     0.001975
      dyz     :     0.008231
      dx2y2   :     0.001696
      dxy     :     0.002702
  7 H s       :     0.757556  s :     0.757556
      pz      :     0.086185  p :     0.205198
      px      :     0.048435
      py      :     0.070577
  8 H s       :     0.739602  s :     0.739602
      pz      :     0.073001  p :     0.222412
      px      :     0.058392
      py      :     0.091019
  9 O s       :     3.435068  s :     3.435068
      pz      :     1.545029  p :     4.659005
      px      :     1.566970
      py      :     1.547006
      dz2     :     0.002269  d :     0.015892
      dxz     :     0.003644
      dyz     :     0.005790
      dx2y2   :     0.001151
      dxy     :     0.003038
 10 H s       :     0.762978  s :     0.762978
      pz      :     0.049529  p :     0.199465
      px      :     0.091173
      py      :     0.058763
 11 H s       :     0.760369  s :     0.760369
      pz      :     0.091784  p :     0.201462
      px      :     0.042167
      py      :     0.067510
 12 O s       :     3.434415  s :     3.434415
      pz      :     1.720749  p :     4.658420
      px      :     1.444022
      py      :     1.493649
      dz2     :     0.001444  d :     0.015894
      dxz     :     0.001838
      dyz     :     0.005740
      dx2y2   :     0.005671
      dxy     :     0.001202
 13 H s       :     0.760993  s :     0.760993
      pz      :     0.080376  p :     0.200400
      px      :     0.032609
      py      :     0.087416
 14 H s       :     0.762514  s :     0.762514
      pz      :     0.048147  p :     0.199633
      px      :     0.109404
      py      :     0.042082
 15 O s       :     3.431133  s :     3.431133
      pz      :     1.642893  p :     4.643999
      px      :     1.437154
      py      :     1.563952
      dz2     :     0.000814  d :     0.015121
      dxz     :     0.003010
      dyz     :     0.003458
      dx2y2   :     0.002951
      dxy     :     0.004888
 16 H s       :     0.740064  s :     0.740064
      pz      :     0.065877  p :     0.228061
      px      :     0.059987
      py      :     0.102197
 17 H s       :     0.738544  s :     0.738544
      pz      :     0.053769  p :     0.174111
      px      :     0.074329
      py      :     0.046013
 18 O s       :     3.431450  s :     3.431450
      pz      :     1.703920  p :     4.643797
      px      :     1.631676
      py      :     1.308200
      dz2     :     0.002038  d :     0.015130
      dxz     :     0.002391
      dyz     :     0.002093
      dx2y2   :     0.002022
      dxy     :     0.006587
 19 H s       :     0.741390  s :     0.741390
      pz      :     0.075994  p :     0.227297
      px      :     0.071240
      py      :     0.080063
 20 H s       :     0.738709  s :     0.738709
      pz      :     0.044970  p :     0.173909
      px      :     0.052032
      py      :     0.076907
 21 O s       :     3.428892  s :     3.428892
      pz      :     1.712397  p :     4.622129
      px      :     1.545362
      py      :     1.364369
      dz2     :     0.000932  d :     0.015308
      dxz     :     0.002209
      dyz     :     0.006666
      dx2y2   :     0.001609
      dxy     :     0.003892
 22 H s       :     0.739882  s :     0.739882
      pz      :     0.057641  p :     0.221857
      px      :     0.079872
      py      :     0.084344
 23 H s       :     0.758352  s :     0.758352
      pz      :     0.082027  p :     0.204634
      px      :     0.039588
      py      :     0.083019


                      *****************************
                      * MAYER POPULATION ANALYSIS *
                      *****************************

  NA   - Mulliken gross atomic population
  ZA   - Total nuclear charge
  QA   - Mulliken gross atomic charge
  VA   - Mayer's total valence
  BVA  - Mayer's bonded valence
  FA   - Mayer's free valence

  ATOM       NA         ZA         QA         VA         BVA        FA
  0 O      8.3667     8.0000    -0.3667     2.1594     2.1594    -0.0000
  1 H      0.8132     1.0000     0.1868     1.0830     1.0830     0.0000
  2 H      0.8170     1.0000     0.1830     1.0008     1.0008     0.0000
  3 O      8.3658     8.0000    -0.3658     2.1591     2.1591     0.0000
  4 H      0.8149     1.0000     0.1851     1.0846     1.0846     0.0000
  5 H      0.8164     1.0000     0.1836     0.9996     0.9996     0.0000
  6 O      8.3068     8.0000    -0.3068     2.2114     2.2114     0.0000
  7 H      0.8534     1.0000     0.1466     1.1045     1.1045     0.0000
  8 H      0.8387     1.0000     0.1613     1.1022     1.1022     0.0000
  9 O      8.3153     8.0000    -0.3153     2.1638     2.1638     0.0000
 10 H      0.8607     1.0000     0.1393     1.1025     1.1025     0.0000
 11 H      0.8562     1.0000     0.1438     1.0991     1.0991     0.0000
 12 O      8.3148     8.0000    -0.3148     2.1632     2.1632    -0.0000
 13 H      0.8578     1.0000     0.1422     1.1002     1.1002    -0.0000
 14 H      0.8594     1.0000     0.1406     1.1002     1.1002    -0.0000
 15 O      8.3084     8.0000    -0.3084     2.1845     2.1845    -0.0000
 16 H      0.8441     1.0000     0.1559     1.1050     1.1050    -0.0000
 17 H      0.8180     1.0000     0.1820     1.0004     1.0004    -0.0000
 18 O      8.3053     8.0000    -0.3053     2.1868     2.1868    -0.0000
 19 H      0.8472     1.0000     0.1528     1.1090     1.1090     0.0000
 20 H      0.8183     1.0000     0.1817     1.0004     1.0004     0.0000
 21 O      8.3074     8.0000    -0.3074     2.2086     2.2086     0.0000
 22 H      0.8390     1.0000     0.1610     1.1039     1.1039     0.0000
 23 H      0.8553     1.0000     0.1447     1.1056     1.1056     0.0000

  Mayer bond orders larger than 0.1
B(  0-O ,  1-H ) :   0.6947 B(  0-O ,  2-H ) :   0.9767 B(  0-O , 16-H ) :   0.2437 
B(  0-O , 23-H ) :   0.1853 B(  1-H ,  6-O ) :   0.3696 B(  3-O ,  4-H ) :   0.6957 
B(  3-O ,  5-H ) :   0.9761 B(  3-O ,  7-H ) :   0.1827 B(  3-O , 19-H ) :   0.2451 
B(  4-H , 21-O ) :   0.3687 B(  6-O ,  7-H ) :   0.9034 B(  6-O ,  8-H ) :   0.8448 
B(  8-H , 12-O ) :   0.2521 B(  9-O , 10-H ) :   0.9167 B(  9-O , 11-H ) :   0.9147 
B(  9-O , 22-H ) :   0.2539 B( 10-H , 18-O ) :   0.1722 B( 11-H , 15-O ) :   0.1711 
B( 12-O , 13-H ) :   0.9151 B( 12-O , 14-H ) :   0.9172 B( 13-H , 18-O ) :   0.1718 
B( 14-H , 15-O ) :   0.1707 B( 15-O , 16-H ) :   0.8228 B( 15-O , 17-H ) :   0.9780 
B( 18-O , 19-H ) :   0.8232 B( 18-O , 20-H ) :   0.9781 B( 21-O , 22-H ) :   0.8432 
B( 21-O , 23-H ) :   0.9027 

-------
TIMINGS
-------

Total SCF time: 0 days 0 hours 0 min 1 sec 

Total time                  ....       1.509 sec
Sum of individual times     ....       1.527 sec  (101.2%)

Fock matrix formation       ....       0.815 sec  ( 54.0%)
  Coulomb formation         ....       0.583 sec  ( 71.6% of F)
  Split-RI-J                ....       0.576 sec  ( 70.7% of F)
  XC integration            ....       0.227 sec  ( 27.9% of F)
    Basis function eval.    ....       0.075 sec  ( 33.1% of XC)
    Density eval.           ....       0.039 sec  ( 17.2% of XC)
    XC-Functional eval.     ....       0.016 sec  (  6.9% of XC)
    XC-Potential eval.      ....       0.064 sec  ( 28.0% of XC)
Diagonalization             ....       0.006 sec  (  0.4%)
Density matrix formation    ....       0.005 sec  (  0.3%)
Population analysis         ....       0.027 sec  (  1.8%)
Initial guess               ....       0.046 sec  (  3.1%)
Orbital Transformation      ....       0.000 sec  (  0.0%)
Orbital Orthonormalization  ....       0.044 sec  (  2.9%)
DIIS solution               ....       0.001 sec  (  0.1%)
SOSCF solution              ....       0.059 sec  (  3.9%)
Grid generation             ....       0.567 sec  ( 37.6%)
           ************************************************************
           *              Shut down parallel processing               *
           ************************************************************

Entering the calculation of the dispersion correction...

Checking the input atom types...

Done


-------------------------------------------------------------------------------
                          DFT DISPERSION CORRECTION                            
                                                                               
                                DFTD3 V2.1  Rev 6                               
                          USING Becke-Johnson damping                          
-------------------------------------------------------------------------------
The BP86 functional is recognized
Active option DFTDOPT                   ...         4   

molecular C6(AA) [au] = 2845.801468 


            DFT-D V3
 parameters
 s6 scaling factor         :     1.0000 
 a1 scaling factor         :     0.3946 
 s8 scaling factor         :     3.2822 
 a2 scaling factor         :     4.8516 
 ad hoc parameters k1-k3   :    16.0000     1.3333    -4.0000 

 Edisp/kcal,au: -14.913418409280  -0.023766042482 
 E6   /kcal   :  -6.715822072 
 E8   /kcal   :  -8.197596337 
 % E8         :  54.967922926 

-------------------------   ----------------
Dispersion correction           -0.023766042
-------------------------   ----------------


-------------------------   --------------------
FINAL SINGLE POINT ENERGY      -611.102379900309
-------------------------   --------------------

                                *** OPTIMIZATION RUN DONE ***

                            ***************************************
                            *     ORCA property calculations      *
                            ***************************************

                                    ---------------------
                                    Active property flags
                                    ---------------------
   (+) Dipole Moment


------------------------------------------------------------------------------
                       ORCA ELECTRIC PROPERTIES CALCULATION
------------------------------------------------------------------------------

Dipole Moment Calculation                       ... on
Quadrupole Moment Calculation                   ... off
Polarizability Calculation                      ... off
GBWName                                         ... 4_BP86_8_h2o_rst.gbw
Electron density file                           ... 4_BP86_8_h2o_rst.scfp.tmp

-------------
DIPOLE MOMENT
-------------
                                X             Y             Z
Electronic contribution:      0.01453      -0.01884      -0.02652
Nuclear contribution   :     -0.09928       0.12877       0.11387
                        -----------------------------------------
Total Dipole Moment    :     -0.08475       0.10993       0.08735
                        -----------------------------------------
Magnitude (a.u.)       :      0.16400
Magnitude (Debye)      :      0.41685

smp-n118.crc.pitt.edu.227550hfi_wait_for_device: The /dev/hfi1_0 device failed to appear after 15.0 seconds: Connection timed out
smp-n118.crc.pitt.edu.227552hfi_wait_for_device: The /dev/hfi1_0 device failed to appear after 15.0 seconds: Connection timed out
smp-n118.crc.pitt.edu.227551hfi_wait_for_device: The /dev/hfi1_0 device failed to appear after 15.0 seconds: Connection timed out
smp-n118.crc.pitt.edu.227554hfi_wait_for_device: The /dev/hfi1_0 device failed to appear after 15.0 seconds: Connection timed out
smp-n118.crc.pitt.edu.227556hfi_wait_for_device: The /dev/hfi1_0 device failed to appear after 15.0 seconds: Connection timed out
smp-n118.crc.pitt.edu.227553hfi_wait_for_device: The /dev/hfi1_0 device failed to appear after 15.0 seconds: Connection timed out
smp-n118.crc.pitt.edu.227557hfi_wait_for_device: The /dev/hfi1_0 device failed to appear after 15.0 seconds: Connection timed out
smp-n118.crc.pitt.edu.227558hfi_wait_for_device: The /dev/hfi1_0 device failed to appear after 15.0 seconds: Connection timed out
smp-n118.crc.pitt.edu.227559hfi_wait_for_device: The /dev/hfi1_0 device failed to appear after 15.0 seconds: Connection timed out
smp-n118.crc.pitt.edu.227561hfi_wait_for_device: The /dev/hfi1_0 device failed to appear after 15.0 seconds: Connection timed out
smp-n118.crc.pitt.edu.227555hfi_wait_for_device: The /dev/hfi1_0 device failed to appear after 15.0 seconds: Connection timed out
smp-n118.crc.pitt.edu.227564hfi_wait_for_device: The /dev/hfi1_0 device failed to appear after 15.0 seconds: Connection timed out

Timings for individual modules:

Sum of individual times         ...     1935.925 sec (=  32.265 min)
GTO integral calculation        ...      605.252 sec (=  10.088 min)  31.3 %
SCF iterations                  ...      686.770 sec (=  11.446 min)  35.5 %
SCF Gradient evaluation         ...      621.616 sec (=  10.360 min)  32.1 %
Geometry relaxation             ...       22.288 sec (=   0.371 min)   1.2 %
                             ****ORCA TERMINATED NORMALLY****
TOTAL RUN TIME: 0 days 0 hours 32 minutes 40 seconds 536 msec
cp: cannot stat ‘/scratch/slurm-1319776/*.{prop}’: No such file or directory
