65
Energy:  -1635.21491563
O   -1.03350079   0.76231851  -3.41588786
H   -1.82264881   0.27314707  -3.18310352
H   -0.52789294   0.80255813  -2.60411614
O   -1.80889426   3.16940304  -2.30004702
H   -1.15588960   3.38365224  -1.63377827
H   -1.43762274   2.42161982  -2.76824523
O    4.03078829  -0.96446795  -1.49592988
H    3.97079844  -0.90376802  -0.54254192
H    3.28509780  -1.50857669  -1.74915550
O   -3.24796448   1.61319475  -0.61843194
H   -2.57597413   1.05130744  -0.23250000
H   -2.76945326   2.17660018  -1.22657106
O   -0.37729498   3.82440051  -0.01352603
H   -1.21743349   3.86904191   0.44298934
H    0.05895531   3.05910482   0.36096035
O   -3.30949194  -0.45589051  -2.42770424
H   -3.06318440  -1.18411206  -1.85739045
H   -3.44365388   0.28097372  -1.83166436
O   -1.28575212   2.33579607   2.95577278
H   -0.54109942   2.13830405   2.38768731
H   -1.67657331   1.48262985   3.14444725
O   -0.27120047  -3.84199649  -1.00121615
H    0.03006251  -3.79208753  -0.09403284
H    0.37397664  -3.33730182  -1.49645512
O    0.48916582  -3.22589168   1.56667874
H   -0.41515010  -3.17085434   1.87557266
H    0.64362411  -2.39016786   1.12629234
O   -2.43937911  -2.24132058  -0.49776211
H   -1.69977468  -2.78583434  -0.76743211
H   -2.03889567  -1.42930833  -0.18714826
O   -1.90230692  -0.35891091   2.98531279
H   -1.00686071  -0.34174687   3.32311943
H   -1.80778887  -0.19759704   2.04654977
O    2.79527278   1.38907755  -2.13303284
H    3.25151109   0.57761400  -1.91031024
H    1.90231735   1.25758397  -1.81432938
O   -2.84427997   3.64597745   1.19403254
H   -3.11384754   2.93702162   0.61012604
H   -2.36907366   3.20783380   1.90003605
O    0.72541459  -0.05087021   3.63688189
H    1.35057177  -0.76728966   3.52663890
H    0.85116241   0.49855463   2.86322067
O   -2.16440559  -2.94679947   2.15074995
H   -2.40118753  -2.78220882   1.23801994
H   -2.15089992  -2.07941461   2.55533980
O    2.43703990  -2.15341271   3.21601145
H    1.79344451  -2.64502129   2.70577835
H    2.94050516  -1.66740500   2.56290266
O    1.62106315  -2.12344118  -2.00828149
H    1.37172048  -1.66228228  -1.20741162
H    1.45886989  -1.49204491  -2.70918372
O    3.46595240  -0.64593470   1.14576122
H    3.54435023   0.30758297   1.11593384
H    2.56752508  -0.82172564   0.86619416
O    3.17841477   2.02774852   0.61105436
H    3.11261271   2.01800301  -0.34383148
H    2.27482206   1.94111161   0.91477479
O    1.47367116  -0.22292459  -4.00701076
H    0.56977284   0.08582614  -3.94478007
H    1.98320016   0.42728989  -3.52344776
S    0.14056792   0.33359222   0.17297789
O    0.57529147   1.34165888   1.18040879
O    0.94139825  -0.91187174   0.33908115
O   -1.30380532   0.02533904   0.37012239
O    0.34938726   0.87924269  -1.19770080
