65
Energy:  -1645.54515436
O   -1.12531662  -0.54036059  -3.36705370
H   -1.03687693  -1.45261765  -3.09101507
H   -0.75454189  -0.03392691  -2.64436229
O   -0.83424631   3.26706397  -1.11039383
H   -0.91137366   3.37494879  -0.16242544
H   -0.54868600   2.36084041  -1.22635074
O    4.00325193  -0.50473125  -1.32403967
H    3.87866424  -0.40496165  -0.38024108
H    3.45417893  -1.25215720  -1.56090494
O   -3.45931514   2.37645023  -0.83646913
H   -3.44511802   1.48416998  -1.18268619
H   -2.58962957   2.72426667  -1.03370651
O    1.91441583   3.74030544  -1.17001488
H    0.95748665   3.72787851  -1.15093718
H    2.15409220   2.97260828  -1.68907957
O   -3.29190747  -0.20955350  -1.68303514
H   -2.70299123  -0.28940121  -2.43339096
H   -2.73917758  -0.39350905  -0.92350775
O   -1.12062546   3.34957714   1.58296998
H   -0.62267062   2.53285221   1.54785291
H   -2.01373234   3.07725360   1.79375861
O   -0.58983375  -3.07987597  -2.49530610
H    0.34309529  -2.96968714  -2.31163882
H   -0.98900737  -3.21698575  -1.63618261
O    0.61522399  -3.11679389   1.86035822
H   -0.20226449  -2.90161945   2.30940654
H    0.76054166  -2.38383180   1.26212650
O   -1.53281121  -3.28357718   0.07029233
H   -0.69673538  -3.46639062   0.49899771
H   -1.60409817  -2.32909004   0.08050594
O   -2.55096139  -0.19186675   2.64939327
H   -1.76151402   0.00734755   3.15270070
H   -2.23892596  -0.31738495   1.75322871
O    2.30598121   1.34587897  -2.43461300
H    2.95234151   0.78617549  -2.00428495
H    1.47697315   1.12551656  -2.00985673
O   -3.61571100   2.28140963   1.91600314
H   -3.64813635   2.25208859   0.95980194
H   -3.31362383   1.41016043   2.17271314
O   -0.02695040   0.18985079   3.71745878
H    0.72007265  -0.40348192   3.79584697
H    0.08057876   0.59895235   2.85879397
O   -2.00081977  -2.87124913   2.75412613
H   -2.11926785  -3.09113640   1.83008528
H   -2.26183551  -1.95251140   2.81755821
O    2.15041370  -1.52805989   3.50830337
H    1.68630085  -2.20172273   3.01130287
H    2.64111141  -1.03824487   2.84835728
O    2.00266366  -2.29546404  -1.98144723
H    1.62583429  -1.85194826  -1.22149642
H    1.82821451  -1.70534178  -2.71462870
O    3.25407927  -0.25562886   1.29517007
H    3.11519584   0.69085522   1.32850357
H    2.44988044  -0.60274343   0.90915508
O    2.47042739   2.36831119   1.17652737
H    2.37267034   2.94012161   0.41514163
H    1.61014851   1.96259803   1.28399335
O    1.50133733  -0.63978875  -4.09545863
H    0.55056079  -0.57626794  -4.00478931
H    1.83693681   0.14268430  -3.65803348
S   -0.09064876   0.00953966   0.08099608
O    0.13373174   1.00975354   1.16234966
O    0.95080100  -1.05287260   0.16323110
O   -1.43910774  -0.60319786   0.24320309
O   -0.00802004   0.68447555  -1.24479956
