13
Energy:   -816.39654871
O    0.78936898   1.27460323   1.96018466
H    0.79603244   2.21591754   2.13372086
H    1.57568162   0.94481406   2.39513682
O    0.67035225   0.83650504  -1.38571955
H    0.94282983   1.63310352  -1.84115196
H    0.41861738   0.23406508  -2.08566776
O   -1.94444901  -0.13592618   0.15543901
H   -2.19632989  -1.05442656   0.05980990
H   -2.53854804   0.33770737  -0.42675464
O    0.41701453  -1.81222746  -0.43519905
H    0.09096845  -2.59766697   0.00413064
H    1.07154898  -2.13725265  -1.05340219
Ca  -0.06329493   0.19379332   0.40444445
