13
Energy:   -812.25473425
O    2.02872526   0.05753118  -0.07053870
H    2.61895458   0.11443252  -0.82195300
H    2.57904916  -0.26533225   0.64299802
O   -0.07191388  -0.22201451  -2.16770195
H    0.40646825  -0.81003982  -2.75217489
H   -0.54439129   0.36798968  -2.75497702
O   -2.01606792   0.09107803   0.23575160
H   -2.03430572   0.10893188   1.19261130
H   -2.91547751  -0.11655749  -0.01758952
O   -0.00885505   0.21836585   1.87127503
H    0.17320228  -0.49741788   2.48015977
H   -0.23471717   0.95972940   2.43305635
Ca   0.06375765  -0.09684429  -0.22477455
