13
Energy:   -832.67534329
O    0.42798195  -1.41506614   1.04538483
H    0.15334961  -2.27413840   1.36601512
H    0.88424115  -1.01685985   1.78666152
O   -0.17428991  -0.89746928  -2.22319027
H    0.52445070  -1.31877022  -2.72368896
H   -0.80776163  -0.61777485  -2.88403553
O    1.27078366   1.33992093  -0.10080912
H    1.16516464   2.18799169   0.33029696
H    2.20112828   1.29729832  -0.32188389
O   -1.55153086   0.83282219   1.15530917
H   -1.84640597   1.74339269   1.16722079
H   -2.10505490   0.39285463   1.80050026
Ca  -0.14357671  -0.20063558  -0.37274995
