42
Energy:   -220.99072572
O    0.21317585  -1.20909006  -2.32538564
H   -0.63069679  -1.08721645  -1.86554974
C   -0.04501867  -1.94355552  -3.51131559
H    0.91593296  -2.07183048  -4.01688725
H   -0.72468634  -1.41602554  -4.19873200
H   -0.46113668  -2.94316868  -3.31032640
O    2.71552544  -0.46857051  -1.32616888
H    1.89795852  -0.78571275  -1.73778570
C    3.55374591  -1.59284361  -1.11185555
H    4.46992409  -1.21771520  -0.64776350
H    3.82939678  -2.10243414  -2.04839782
H    3.10540261  -2.33407700  -0.43190063
O    1.67449712   2.04695217  -0.56512789
H    2.18692267   1.25353025  -0.78036029
C    1.01285026   2.46602874  -1.74797701
H    0.44047363   3.36051924  -1.48767537
H    0.30967921   1.71062638  -2.13228818
H    1.71295447   2.73171742  -2.55546754
O   -0.01098693   2.50522853   1.62081283
H    0.57394906   2.44221645   0.85120083
C    0.63065017   3.32683696   2.58299534
H   -0.04173912   3.38714268   3.44307735
H    0.80944047   4.35001510   2.21704745
H    1.58929990   2.90864039   2.92778463
O   -2.51508894  -1.79814691   1.72552326
H   -1.74471264  -1.31228244   2.05549195
C   -3.38139479  -2.02935261   2.82488301
H   -4.24364932  -2.57745415   2.43554122
H   -3.74761343  -1.09640361   3.28124626
H   -2.91490782  -2.64165360   3.61244553
O   -0.29015703  -0.20871727   2.37960150
H   -0.25108598   0.74833618   2.23487621
C    0.67545728  -0.81180403   1.53319194
H    0.61798145  -1.88944140   1.70891740
H    1.70232475  -0.48353786   1.75805155
H    0.47823619  -0.62906132   0.46525642
O   -2.17165875  -0.81663377  -0.90829337
H   -2.40539527  -1.24879867  -0.07341373
C   -2.35264551   0.57976907  -0.73556039
H   -2.08498990   1.05108033  -1.68514524
H   -1.70302214   0.99896756   0.04868411
H   -3.39519274   0.84792013  -0.50325109
