42
Energy:   -217.95767702
O    0.12065113   2.23410475   0.11089281
H   -0.49682570   2.20235113  -0.63485336
C    0.16059767   3.57235682   0.57995512
H    0.86062721   3.59016340   1.41967339
H   -0.81737721   3.92499274   0.94325992
H    0.52370014   4.27945487  -0.18224319
O    0.29141510  -1.94303636   3.19504712
H   -0.14892549  -1.24981371   2.68127111
C   -0.31084032  -1.97541758   4.47909293
H    0.19695854  -2.76148939   5.04452782
H   -1.38344305  -2.22187588   4.43960851
H   -0.19188644  -1.02847915   5.02857898
O   -1.63169005   1.74157402  -2.00470910
H   -1.21615352   0.96911987  -2.41588699
C   -2.95389079   1.83881952  -2.50954798
H   -3.40734620   2.71390224  -2.03616270
H   -3.56923490   0.95963325  -2.26224157
H   -2.98272774   1.98742045  -3.60035664
O   -0.93471390   0.09102805   1.66962652
H   -0.57102741   0.87821814   1.23778492
C   -1.71814855  -0.60232477   0.71148989
H   -2.12011151  -1.48601054   1.21449132
H   -1.12874327  -0.94117313  -0.15485908
H   -2.56606305  -0.00431558   0.34243252
O    1.13700878  -2.14298017  -1.15656079
H    1.58935012  -1.38545830  -0.75659679
C    1.10170646  -3.18198469  -0.19128512
H    0.58897218  -4.02730361  -0.65821624
H    0.54227811  -2.90167394   0.71493955
H    2.10663588  -3.51655998   0.11029995
O   -0.26203499  -0.49796774  -2.97598064
H    0.12433575  -1.20488152  -2.43800868
C    0.79087917   0.11298265  -3.70443460
H    0.33817741   0.90671087  -4.30488595
H    1.29639188  -0.58647611  -4.38853376
H    1.55050167   0.57015696  -3.05117918
O    2.16314886   0.26897149  -0.12107424
H    1.55043870   1.01424407  -0.03402071
C    2.71948206   0.01730092   1.15942920
H    3.40707288  -0.82483980   1.04322647
H    1.95957363  -0.26288727   1.90562695
H    3.29128075   0.87344300   1.55038230
