42
Energy:   -221.59227423
O   -1.20651138   2.50000344  -0.65476613
H   -0.25538085   2.51498743  -0.47160099
C   -1.42292836   3.20739204  -1.86526142
H   -2.49911022   3.18076051  -2.05659504
H   -0.91187541   2.74588172  -2.72468590
H   -1.11336671   4.26238197  -1.80245091
O    2.81862489  -0.05366927   0.46102486
H    2.23146473  -0.33383903   1.17877909
C    3.50720969  -1.20300953  -0.00523871
H    4.16401152  -0.86948785  -0.81323614
H    2.82879514  -1.96964346  -0.41119862
H    4.13232465  -1.66890326   0.77254766
O    0.39894584  -3.16695955   0.59621280
H   -0.01595699  -2.73191095  -0.16340001
C   -0.12981750  -4.48060137   0.68158419
H    0.34811975  -4.95631119   1.54225913
H    0.09197979  -5.08708029  -0.21047333
H   -1.21856363  -4.49085215   0.84682374
O   -0.84867704  -1.66843612  -1.41045351
H   -1.61359922  -1.10536235  -1.22001912
C    0.15143860  -0.85162674  -1.99792686
H    1.00568320  -1.50159667  -2.20599042
H    0.49052410  -0.04623577  -1.32774498
H   -0.17290538  -0.39942905  -2.94824027
O    1.54498072   2.36591802  -0.17007964
H    2.08904177   1.57279174  -0.05444423
C    1.90724177   3.28816068   0.84518840
H    1.28503184   4.17546517   0.70016858
H    2.96239947   3.59712046   0.78223280
H    1.71847844   2.90076344   1.85863258
O    0.83921537  -0.93261194   2.26034003
H    0.65948368  -1.78720930   1.84107501
C   -0.27266484  -0.08793873   2.00977403
H   -0.05360765   0.87016538   2.48887285
H   -1.20857004  -0.47830827   2.43927423
H   -0.43336996   0.09617784   0.93597131
O   -2.81073323   0.21245796  -0.65117518
H   -2.34448770   1.06155413  -0.64256833
C   -3.92663956   0.32534061   0.21746994
H   -4.44043679  -0.63955908   0.19587826
H   -4.64029910   1.09941785  -0.10544152
H   -3.63549341   0.53384152   1.25888178
