42
Energy:   -220.14244268
O    0.66215275   2.69082782  -1.44816645
H   -0.18421720   2.37400033  -1.09930898
C    0.50561878   4.06163032  -1.77821402
H    1.46801968   4.40243126  -2.16952519
H    0.25278368   4.68309865  -0.90492778
H   -0.25691820   4.22754742  -2.55525083
O    2.74884698   1.10129732  -0.47976980
H    2.10567329   1.73029151  -0.83909859
C    3.76182005   1.84819034   0.17488290
H    4.47775688   1.12438069   0.57365509
H    3.37436757   2.44407298   1.01606170
H    4.30218353   2.52191696  -0.50840115
O    1.32076593  -1.21437708  -1.23973310
H    1.92129273  -0.51497932  -0.94201912
C    0.93259482  -0.91096540  -2.57007077
H    0.25653741  -1.70861515  -2.88973693
H    1.78516327  -0.88643789  -3.26670753
H    0.39270855   0.04572494  -2.64781220
O   -1.65895946   1.68377339  -0.25662930
H   -1.48068809   1.49206509   0.67604992
C   -2.22311615   0.51793338  -0.83548860
H   -2.41769731   0.75131359  -1.88580143
H   -3.17737297   0.22981436  -0.36734473
H   -1.54270115  -0.34718905  -0.79839488
O   -1.98424548  -1.83416052   2.23832813
H   -1.53745001  -2.25586699   1.48935501
C   -3.36104067  -2.16739058   2.16134439
H   -3.84921836  -1.68439627   3.01215827
H   -3.54095018  -3.25137333   2.23476973
H   -3.83712405  -1.79778725   1.23965283
O   -0.58078897  -2.83322807   0.02595696
H    0.07616592  -2.30161127  -0.44755875
C    0.03692499  -4.05767605   0.38884864
H   -0.71684938  -4.64416406   0.92114670
H    0.89750985  -3.91687578   1.06141560
H    0.36976121  -4.64109258  -0.48386124
O   -0.94024112   0.78399616   2.32406729
H   -1.33199754  -0.08858680   2.47752461
C    0.45472391   0.60317315   2.13992226
H    0.88020831   1.59564537   1.96832063
H    0.69047644  -0.02497955   1.26663980
H    0.94751976   0.16862794   3.02372090
