45
Energy:   -620.71719934
O   -0.64318463  -2.04536265   0.13224180
H   -0.09701267  -2.55765025   0.72847117
H   -0.02060729  -1.61659446  -0.45494398
O   -1.19063426   0.12838764   1.65352530
H   -2.06906785   0.41816279   1.40732086
H   -1.05439481  -0.67629816   1.15337390
O    3.11903826  -2.04549504   0.15109568
H    2.54342246  -1.59134033  -0.46424308
H    2.52321202  -2.47216288   0.76686958
O    4.64840544  -0.19774025   1.38266305
H    5.55070088  -0.32406815   1.08917362
H    4.15323529  -0.88675347   0.93960644
O   -3.62156919   0.75996011   0.51136110
H   -3.47211899   1.39518035  -0.18891865
H   -4.50348590   0.95509344   0.82818557
O   -0.41327474   2.70260837  -1.76112058
H   -0.14070785   2.06238850  -2.41843151
H    0.07239090   2.45907604  -0.97305158
O    0.06020635   0.54715471  -3.45537762
H   -0.87184910   0.33731034  -3.39647234
H    0.26359918   0.47663871  -4.38805694
O    1.21041290  -0.58038984  -1.22414076
H    0.89838545  -0.27824723  -2.07712409
H    1.16544822   0.19444337  -0.66392337
O    0.79464921   1.54144135   0.44208728
H    0.05467532   1.14697761   0.90368109
H    1.49130233   1.58350839   1.09717250
O    0.89229725  -0.66759741   3.32045380
H    1.54312951   0.00545885   3.12134455
H    0.07549911  -0.32697928   2.95569094
O    2.66160773   1.28791210   2.45842878
H    3.39635818   0.79351121   2.09519141
H    3.06842701   1.92849790   3.04184952
O   -3.11316416  -1.50587841  -1.03427078
H   -2.31270512  -1.87021498  -0.65644007
H   -3.37048084  -0.81160509  -0.42763701
O   -3.08371798   2.43406385  -1.59823731
H   -3.46639319   3.22256404  -1.98302164
H   -2.14015470   2.59457786  -1.61070456
O    1.22337948  -2.97138308   1.95352051
H    1.14918308  -2.19364672   2.50656022
H    1.30478601  -3.69814523   2.57111390
O   -2.57891574   0.16244690  -3.12442804
H   -2.80342242  -0.53756774  -2.51139615
H   -2.87807065   0.96341379  -2.69409070
