45
Energy:   -616.23443365
O   -0.28455042  -1.98765863  -0.08952885
H    0.25894830  -2.53559304   0.47669449
H    0.34173186  -1.50053493  -0.62498459
O   -1.22630902   0.04124436   1.45574976
H   -2.03482641   0.30785729   1.01820089
H   -0.93372656  -0.73000907   0.97016197
O    3.40449155  -1.46251875   0.39463639
H    3.42601311  -0.72495784   1.00436794
H    2.91877748  -1.13426348  -0.36204199
O    1.76567253  -1.32062907   3.63709576
H    1.65769633  -2.04810239   3.02443307
H    0.87468086  -1.10376827   3.91157176
O   -3.42367847   0.67592640  -0.06551636
H   -4.36302249   0.79488353   0.07488968
H   -3.17770067   1.38641596  -0.65791095
O    0.13800634   2.93425095  -1.70513089
H   -0.81762675   2.89273546  -1.66944184
H    0.42427250   2.61309060  -0.85006389
O    0.77902993   1.06223075  -3.53339639
H    0.60879762   1.79800052  -2.94526746
H    1.31973431   1.43271788  -4.23097070
O    1.52822770  -0.36847978  -1.31121456
H    1.34618536   0.00638159  -2.17294038
H    1.35179850   0.34438020  -0.69726404
O    0.90143092   1.50766807   0.55714361
H    0.13801312   1.09345916   0.95945702
H    1.61652447   1.34063533   1.17112498
O   -0.83823709  -0.62059511   4.07903209
H   -1.04556425  -0.33938140   3.18787209
H   -1.68465679  -0.85461033   4.45987645
O    2.94361386   0.60903868   2.19057475
H    2.52855933  -0.02755291   2.77256507
H    3.58100486   1.06030728   2.74403767
O   -2.44502232  -1.33011372  -1.73192655
H   -1.75131644  -1.74619810  -1.22018658
H   -2.87801640  -0.74057558  -1.11451845
O   -2.59537518   2.52082973  -1.90509585
H   -2.40948218   1.85873358  -2.57090688
H   -3.03145441   3.22614598  -2.38321273
O    1.63488516  -3.13530614   1.54281533
H    2.32296200  -2.61922891   1.12276009
H    1.99836171  -4.01900122   1.59938083
O   -1.94776330   0.58333059  -3.62727092
H   -2.10795989  -0.20253498  -3.10479201
H   -0.99574571   0.62013446  -3.71968210
