
                                 *****************
                                 * O   R   C   A *
                                 *****************

           --- An Ab Initio, DFT and Semiempirical electronic structure package ---

                  #######################################################
                  #                        -***-                        #
                  #          Department of theory and spectroscopy      #
                  #               Directorship: Frank Neese             #
                  #        Max Planck Institute fuer Kohlenforschung    #
                  #                Kaiser Wilhelm Platz 1               #
                  #                 D-45470 Muelheim/Ruhr               #
                  #                      Germany                        #
                  #                                                     #
                  #                  All rights reserved                #
                  #                        -***-                        #
                  #######################################################


                         Program Version 4.2.0 -  RELEASE  -


 With contributions from (in alphabetic order):
   Daniel Aravena         : Magnetic Suceptibility
   Michael Atanasov       : Ab Initio Ligand Field Theory (pilot matlab implementation)
   Alexander A. Auer      : GIAO ZORA, VPT2
   Ute Becker             : Parallelization
   Giovanni Bistoni       : ED, misc. LED, open-shell LED, HFLED
   Martin Brehm           : Molecular dynamics
   Dmytro Bykov           : SCF Hessian
   Vijay G. Chilkuri      : MRCI spin determinant printing, contributions to CSF-ICE
   Dipayan Datta          : RHF DLPNO-CCSD density
   Achintya Kumar Dutta   : EOM-CC, STEOM-CC
   Dmitry Ganyushin       : Spin-Orbit,Spin-Spin,Magnetic field MRCI
   Miquel Garcia          : C-PCM Hessian, Gaussian charge scheme
   Yang Guo               : DLPNO-NEVPT2, CIM, IAO-localization
   Andreas Hansen         : Spin unrestricted coupled pair/coupled cluster methods
   Benjamin Helmich-Paris : CASSCF linear response (MC-RPA)
   Lee Huntington         : MR-EOM, pCC
   Robert Izsak           : Overlap fitted RIJCOSX, COSX-SCS-MP3, EOM
   Christian Kollmar      : KDIIS, OOCD, Brueckner-CCSD(T), CCSD density
   Simone Kossmann        : Meta GGA functionals, TD-DFT gradient, OOMP2, MP2 Hessian
   Martin Krupicka        : AUTO-CI
   Lucas Lang             : DCDCAS
   Dagmar Lenk            : GEPOL surface, SMD
   Dimitrios Liakos       : Extrapolation schemes; Compound Job, initial MDCI parallelization
   Dimitrios Manganas     : Further ROCIS development; embedding schemes
   Dimitrios Pantazis     : SARC Basis sets
   Taras Petrenko         : DFT Hessian,TD-DFT gradient, ASA, ECA, R-Raman, ABS, FL, XAS/XES, NRVS
   Peter Pinski           : DLPNO-MP2, DLPNO-MP2 Gradient
   Christoph Reimann      : Effective Core Potentials
   Marius Retegan         : Local ZFS, SOC
   Christoph Riplinger    : Optimizer, TS searches, QM/MM, DLPNO-CCSD(T), (RO)-DLPNO pert. Triples
   Tobias Risthaus        : Range-separated hybrids, TD-DFT gradient, RPA, STAB
   Michael Roemelt        : Original ROCIS implementation
   Masaaki Saitow         : Open-shell DLPNO-CCSD energy and density
   Barbara Sandhoefer     : DKH picture change effects
   Avijit Sen             : IP-ROCIS
   Kantharuban Sivalingam : CASSCF convergence, NEVPT2, FIC-MRCI
   Bernardo de Souza      : ESD, SOC TD-DFT
   Georgi Stoychev        : AutoAux, RI-MP2 NMR
   Willem Van den Heuvel  : Paramagnetic NMR
   Boris Wezisla          : Elementary symmetry handling
   Frank Wennmohs         : Technical directorship


 We gratefully acknowledge several colleagues who have allowed us to
 interface, adapt or use parts of their codes:
   Stefan Grimme, W. Hujo, H. Kruse,             : VdW corrections, initial TS optimization,
                  C. Bannwarth                     DFT functionals, gCP, sTDA/sTD-DF
   Ed Valeev, F. Pavosevic, A. Kumar             : LibInt (2-el integral package), F12 methods
   Garnet Chan, S. Sharma, J. Yang, R. Olivares  : DMRG
   Ulf Ekstrom                                   : XCFun DFT Library
   Mihaly Kallay                                 : mrcc  (arbitrary order and MRCC methods)
   Andreas Klamt, Michael Diedenhofen            : otool_cosmo (COSMO solvation model)
   Jiri Pittner, Ondrej Demel                    : Mk-CCSD
   Frank Weinhold                                : gennbo (NPA and NBO analysis)
   Christopher J. Cramer and Donald G. Truhlar   : smd solvation model
   Lars Goerigk                                  : TD-DFT with DH, B97 family of functionals
   V. Asgeirsson, H. Jonsson                     : NEB implementation
   FAccTs GmbH                                   : IRC, NEB, NEB-TS, Multilevel, MM, QM/MM, CI optimization
   S Lehtola, MJT Oliveira, MAL Marques          : LibXC Library


 Your calculation uses the libint2 library for the computation of 2-el integrals
 For citations please refer to: http://libint.valeyev.net

 Your ORCA version has been built with support for libXC version: 4.2.3
 For citations please refer to: https://tddft.org/programs/libxc/

 This ORCA versions uses:
   CBLAS   interface :  Fast vector & matrix operations
   LAPACKE interface :  Fast linear algebra routines
   SCALAPACK package :  Parallel linear algebra routines


----- Orbital basis set information -----
Your calculation utilizes the basis: def2-TZVP
   F. Weigend and R. Ahlrichs, Phys. Chem. Chem. Phys. 7, 3297 (2005).

================================================================================
                                        WARNINGS
                       Please study these warnings very carefully!
================================================================================


WARNING: The frozen-core approximation for MP2-gradient calculations is turned on by default.

INFO   : the flag for use of LIBINT has been found!

================================================================================
                                       INPUT FILE
================================================================================
NAME = 12h2o.su.etal.mol1,3,4,6,8,9-orca.engrad-mp2.def2tzvp.frozencore.inp
|  1> # 12h2o.su.etal.mol1,3,4,6,8,9
|  2> ! MP2 def2-TZVP EnGrad TightSCF
|  3> 
|  4> %pal
|  5>     nprocs 6
|  6> end
|  7> 
|  8> %maxcore 8000
|  9> 
| 10> %scf
| 11>     ConvForced true
| 12> end
| 13> 
| 14> *xyz 0 1
| 15> O  -1.794470000  -0.923410000   2.768350000
| 16> H  -2.338250000  -1.359750000   3.430940000
| 17> H  -0.879480000  -1.303000000   2.865760000
| 18> O  -1.752130000  -0.741530000  -2.896280000
| 19> H  -2.036450000  -0.920500000  -1.984040000
| 20> H  -0.921210000  -1.242140000  -2.984230000
| 21> O  -0.885520000   1.737840000   0.052730000
| 22> H  -1.032320000   2.090180000  -0.841890000
| 23> H  -1.284090000   0.839590000   0.017130000
| 24> O   1.737840000   0.885520000  -0.052730000
| 25> H   2.090180000   1.032320000   0.841890000
| 26> H   0.839590000   1.284090000  -0.017130000
| 27> O   1.752130000   0.741530000  -2.896280000
| 28> H   2.036450000   0.920500000  -1.984040000
| 29> H   0.921210000   1.242140000  -2.984230000
| 30> O   0.741530000  -1.752130000   2.896280000
| 31> H   0.920500000  -2.036450000   1.984040000
| 32> H   1.242140000  -0.921210000   2.984230000
| 33> *
| 34> 
| 35>                          ****END OF INPUT****
================================================================================

                     *******************************
                     * Energy+Gradient Calculation *
                     *******************************

---------------------------------
CARTESIAN COORDINATES (ANGSTROEM)
---------------------------------
  O     -1.794470   -0.923410    2.768350
  H     -2.338250   -1.359750    3.430940
  H     -0.879480   -1.303000    2.865760
  O     -1.752130   -0.741530   -2.896280
  H     -2.036450   -0.920500   -1.984040
  H     -0.921210   -1.242140   -2.984230
  O     -0.885520    1.737840    0.052730
  H     -1.032320    2.090180   -0.841890
  H     -1.284090    0.839590    0.017130
  O      1.737840    0.885520   -0.052730
  H      2.090180    1.032320    0.841890
  H      0.839590    1.284090   -0.017130
  O      1.752130    0.741530   -2.896280
  H      2.036450    0.920500   -1.984040
  H      0.921210    1.242140   -2.984230
  O      0.741530   -1.752130    2.896280
  H      0.920500   -2.036450    1.984040
  H      1.242140   -0.921210    2.984230

----------------------------
CARTESIAN COORDINATES (A.U.)
----------------------------
  NO LB      ZA    FRAG     MASS         X           Y           Z
   0 O     8.0000    0    15.999   -3.391057   -1.744992    5.231423
   1 H     1.0000    0     1.008   -4.418652   -2.569555    6.483537
   2 H     1.0000    0     1.008   -1.661976   -2.462313    5.415502
   3 O     8.0000    0    15.999   -3.311046   -1.401289   -5.473176
   4 H     1.0000    0     1.008   -3.848333   -1.739493   -3.749292
   5 H     1.0000    0     1.008   -1.740835   -2.347304   -5.639377
   6 O     8.0000    0    15.999   -1.673390    3.284042    0.099645
   7 H     1.0000    0     1.008   -1.950802    3.949868   -1.590942
   8 H     1.0000    0     1.008   -2.426578    1.586595    0.032371
   9 O     8.0000    0    15.999    3.284042    1.673390   -0.099645
  10 H     1.0000    0     1.008    3.949868    1.950802    1.590942
  11 H     1.0000    0     1.008    1.586595    2.426578   -0.032371
  12 O     8.0000    0    15.999    3.311046    1.401289   -5.473176
  13 H     1.0000    0     1.008    3.848333    1.739493   -3.749292
  14 H     1.0000    0     1.008    1.740835    2.347304   -5.639377
  15 O     8.0000    0    15.999    1.401289   -3.311046    5.473176
  16 H     1.0000    0     1.008    1.739493   -3.848333    3.749292
  17 H     1.0000    0     1.008    2.347304   -1.740835    5.639377

--------------------------------
INTERNAL COORDINATES (ANGSTROEM)
--------------------------------
 O      0   0   0     0.000000000000     0.00000000     0.00000000
 H      1   0   0     0.961828878803     0.00000000     0.00000000
 H      1   2   0     0.995381322057   106.21731035     0.00000000
 O      1   2   3     5.667707300743   135.01509642   116.29625730
 H      4   1   2     0.972136791249    18.92045113     9.26599691
 H      4   1   2     0.974050112161    94.59568686   248.81379742
 O      5   4   1     3.541164138161   107.84672602    33.14664954
 H      7   5   4     0.972645187106    72.17296994    29.09453504
 H      7   5   4     0.983350632989    33.04029707   190.88793319
 O      7   5   4     2.760360281485    93.15949665   286.74623630
 H     10   7   5     0.972645187106   105.22009255   219.29662971
 H     10   7   5     0.983350632989     5.92595386   143.65078242
 O     10   7   5     2.847229166523    93.35605850    51.97705696
 H     13  10   7     0.972136791249    19.08819947   137.47046308
 H     13  10   7     0.974050112161    93.43428486    13.37418319
 O      3   1   2     1.682356278379   171.61043709   195.73896161
 H     16   3   1     0.972136791249   103.79460456   289.35412162
 H     16   3   1     0.974050112161   105.61118924    38.30604821

---------------------------
INTERNAL COORDINATES (A.U.)
---------------------------
 O      0   0   0     0.000000000000     0.00000000     0.00000000
 H      1   0   0     1.817593168635     0.00000000     0.00000000
 H      1   2   0     1.880998097508   106.21731035     0.00000000
 O      1   2   3    10.710414605631   135.01509642   116.29625730
 H      4   1   2     1.837072300170    18.92045113     9.26599691
 H      4   1   2     1.840687952699    94.59568686   248.81379742
 O      5   4   1     6.691830416388   107.84672602    33.14664954
 H      7   5   4     1.838033029106    72.17296994    29.09453504
 H      7   5   4     1.858263389967    33.04029707   190.88793319
 O      7   5   4     5.216324962960    93.15949665   286.74623630
 H     10   7   5     1.838033029106   105.22009255   219.29662971
 H     10   7   5     1.858263389967     5.92595386   143.65078242
 O     10   7   5     5.380483365242    93.35605850    51.97705696
 H     13  10   7     1.837072300170    19.08819947   137.47046308
 H     13  10   7     1.840687952699    93.43428486    13.37418319
 O      3   1   2     3.179192625819   171.61043709   195.73896161
 H     16   3   1     1.837072300170   103.79460456   289.35412162
 H     16   3   1     1.840687952699   105.61118924    38.30604821

---------------------
BASIS SET INFORMATION
---------------------
There are 2 groups of distinct atoms

 Group   1 Type O   : 11s6p2d1f contracted to 5s3p2d1f pattern {62111/411/11/1}
 Group   2 Type H   : 5s1p contracted to 3s1p pattern {311/1}

Atom   0O    basis set group =>   1
Atom   1H    basis set group =>   2
Atom   2H    basis set group =>   2
Atom   3O    basis set group =>   1
Atom   4H    basis set group =>   2
Atom   5H    basis set group =>   2
Atom   6O    basis set group =>   1
Atom   7H    basis set group =>   2
Atom   8H    basis set group =>   2
Atom   9O    basis set group =>   1
Atom  10H    basis set group =>   2
Atom  11H    basis set group =>   2
Atom  12O    basis set group =>   1
Atom  13H    basis set group =>   2
Atom  14H    basis set group =>   2
Atom  15O    basis set group =>   1
Atom  16H    basis set group =>   2
Atom  17H    basis set group =>   2


           ************************************************************
           *        Program running with 6 parallel MPI-processes     *
           *              working on a common directory               *
           ************************************************************
------------------------------------------------------------------------------
                           ORCA GTO INTEGRAL CALCULATION
------------------------------------------------------------------------------

                         BASIS SET STATISTICS AND STARTUP INFO

 # of primitive gaussian shells          ...  192
 # of primitive gaussian functions       ...  372
 # of contracted shells                  ...  114
 # of contracted basis functions         ...  258
 Highest angular momentum                ...    3
 Maximum contraction depth               ...    6
 Integral package used                   ... LIBINT
 Integral threshhold            Thresh   ...  2.500e-11
 Primitive cut-off              TCut     ...  2.500e-12


------------------------------ INTEGRAL EVALUATION ----------------------------


 * One electron integrals 
 Pre-screening matrix                    ... done
 Shell pair data                         ... done (   0.001 sec)



           ************************************************************
           *        Program running with 6 parallel MPI-processes     *
           *              working on a common directory               *
           ************************************************************
-------------------------------------------------------------------------------
                                 ORCA SCF
-------------------------------------------------------------------------------

------------
SCF SETTINGS
------------
Hamiltonian:
 Ab initio Hamiltonian  Method          .... Hartree-Fock(GTOs)


General Settings:
 Integral files         IntName         .... 12h2o.su.etal.mol1,3,4,6,8,9-orca.engrad-mp2.def2tzvp.frozencore
 Hartree-Fock type      HFTyp           .... RHF
 Total Charge           Charge          ....    0
 Multiplicity           Mult            ....    1
 Number of Electrons    NEL             ....   60
 Basis Dimension        Dim             ....  258
 Nuclear Repulsion      ENuc            ....    247.4437142449 Eh

Convergence Acceleration:
 DIIS                   CNVDIIS         .... on
   Start iteration      DIISMaxIt       ....    12
   Startup error        DIISStart       ....  0.200000
   # of expansion vecs  DIISMaxEq       ....     5
   Bias factor          DIISBfac        ....   1.050
   Max. coefficient     DIISMaxC        ....  10.000
 Newton-Raphson         CNVNR           .... off
 SOSCF                  CNVSOSCF        .... on
   Start iteration      SOSCFMaxIt      ....   150
   Startup grad/error   SOSCFStart      ....  0.003300
 Level Shifting         CNVShift        .... on
   Level shift para.    LevelShift      ....    0.2500
   Turn off err/grad.   ShiftErr        ....    0.0010
 Zerner damping         CNVZerner       .... off
 Static damping         CNVDamp         .... on
   Fraction old density DampFac         ....    0.7000
   Max. Damping (<1)    DampMax         ....    0.9800
   Min. Damping (>=0)   DampMin         ....    0.0000
   Turn off err/grad.   DampErr         ....    0.1000
 Fernandez-Rico         CNVRico         .... off

SCF Procedure:
 Maximum # iterations   MaxIter         ....   125
 SCF integral mode      SCFMode         .... Direct
   Integral package                     .... LIBINT
 Reset frequency        DirectResetFreq ....    20
 Integral Threshold     Thresh          ....  2.500e-11 Eh
 Primitive CutOff       TCut            ....  2.500e-12 Eh

Convergence Tolerance:
 Convergence Check Mode ConvCheckMode   .... Total+1el-Energy
 Convergence forced     ConvForced      .... 1
 Energy Change          TolE            ....  1.000e-08 Eh
 1-El. energy change                    ....  1.000e-05 Eh
 Orbital Gradient       TolG            ....  1.000e-05
 Orbital Rotation angle TolX            ....  1.000e-05
 DIIS Error             TolErr          ....  5.000e-07


Diagonalization of the overlap matrix:
Smallest eigenvalue                        ... 4.295e-03
Time for diagonalization                   ...    0.010 sec
Threshold for overlap eigenvalues          ... 1.000e-08
Number of eigenvalues below threshold      ... 0
Time for construction of square roots      ...    0.005 sec
Total time needed                          ...    0.015 sec

-------------------
DFT GRID GENERATION
-------------------

General Integration Accuracy     IntAcc      ...  4.340
Radial Grid Type                 RadialGrid  ... Gauss-Chebyshev
Angular Grid (max. acc.)         AngularGrid ... Lebedev-110
Angular grid pruning method      GridPruning ... 3 (G Style)
Weight generation scheme         WeightScheme... Becke
Basis function cutoff            BFCut       ...    1.0000e-11
Integration weight cutoff        WCut        ...    1.0000e-14
Grids for H and He will be reduced by one unit

# of grid points (after initial pruning)     ...  19824 (   0.0 sec)
# of grid points (after weights+screening)   ...  18831 (   0.0 sec)
nearest neighbour list constructed           ...    0.0 sec
Grid point re-assignment to atoms done       ...    0.0 sec
Grid point division into batches done        ...    0.0 sec
Reduced shell lists constructed in    0.0 sec

Total number of grid points                  ...    18831
Total number of batches                      ...      303
Average number of points per batch           ...       62
Average number of grid points per atom       ...     1046
Average number of shells per batch           ...    50.19 (44.03%)
Average number of basis functions per batch  ...   100.50 (38.95%)
Average number of large shells per batch     ...    34.83 (69.39%)
Average number of large basis fcns per batch ...    70.52 (70.17%)
Maximum spatial batch extension              ...  12.83, 20.63, 12.41 au
Average spatial batch extension              ...   0.55,  0.66,  0.60 au

Time for grid setup =    0.054 sec

------------------------------
INITIAL GUESS: MODEL POTENTIAL
------------------------------
Loading Hartree-Fock densities                     ... done
Calculating cut-offs                               ... done
Setting up the integral package                    ... done
Initializing the effective Hamiltonian             ... done
Starting the Coulomb interaction                   ... done (   0.0 sec)
Reading the grid                                   ... done
Mapping shells                                     ... done
Starting the XC term evaluation                    ... done (   0.0 sec)
Transforming the Hamiltonian                       ... done (   0.0 sec)
Diagonalizing the Hamiltonian                      ... done (   0.0 sec)
Back transforming the eigenvectors                 ... done (   0.0 sec)
Now organizing SCF variables                       ... done
                      ------------------
                      INITIAL GUESS DONE (   0.2 sec)
                      ------------------
--------------
SCF ITERATIONS
--------------
ITER       Energy         Delta-E        Max-DP      RMS-DP      [F,P]     Damp
               ***  Starting incremental Fock matrix formation  ***
  0   -455.8022352092   0.000000000000 0.04394141  0.00098582  0.3502566 0.7000
  1   -456.0233754178  -0.221140208575 0.02930725  0.00068008  0.2166828 0.7000
                               ***Turning on DIIS***
  2   -456.1395890973  -0.116213679512 0.01640319  0.00037523  0.1637769 0.7000
  3   -457.1465155731  -1.006926475835 0.00722498  0.00016655  0.1218442 0.7000
  4   -456.9382059021   0.208309671075 0.01543498  0.00038338  0.0862290 0.0000
  5   -456.4055598433   0.532646058704 0.00210677  0.00006257  0.0056455 0.0000
                      *** Initiating the SOSCF procedure ***
                           *** Shutting down DIIS ***
                      *** Re-Reading the Fockian *** 
                      *** Removing any level shift *** 
ITER      Energy       Delta-E        Grad      Rot      Max-DP    RMS-DP
  6   -456.37213529   0.0334245538  0.000739  0.000739  0.001416  0.000038
               *** Restarting incremental Fock matrix formation ***
  7   -456.36282129   0.0093140022  0.000256  0.000389  0.000680  0.000017
  8   -456.36283008  -0.0000087950  0.000126  0.000335  0.000555  0.000014
  9   -456.36283217  -0.0000020834  0.000065  0.000037  0.000100  0.000002
 10   -456.36283234  -0.0000001731  0.000011  0.000006  0.000019  0.000000
                  ***Gradient check signals convergence***
              ***Rediagonalizing the Fockian in SOSCF/NRSCF***

               *****************************************************
               *                     SUCCESS                       *
               *           SCF CONVERGED AFTER  11 CYCLES          *
               *****************************************************


----------------
TOTAL SCF ENERGY
----------------

Total Energy       :         -456.36283234 Eh          -12418.26400 eV

Components:
Nuclear Repulsion  :          247.44371424 Eh            6733.28578 eV
Electronic Energy  :         -703.80654659 Eh          -19151.54978 eV
One Electron Energy:        -1122.61094978 Eh          -30547.79696 eV
Two Electron Energy:          418.80440320 Eh           11396.24718 eV

Virial components:
Potential Energy   :         -912.08290484 Eh          -24819.03762 eV
Kinetic Energy     :          455.72007250 Eh           12400.77362 eV
Virial Ratio       :            2.00141043


---------------
SCF CONVERGENCE
---------------

  Last Energy change         ...   -4.1854e-09  Tolerance :   1.0000e-08
  Last MAX-Density change    ...    4.5767e-06  Tolerance :   1.0000e-07
  Last RMS-Density change    ...    1.2723e-07  Tolerance :   5.0000e-09
  Last Orbital Gradient      ...    1.9980e-06  Tolerance :   1.0000e-05
  Last Orbital Rotation      ...    2.0259e-06  Tolerance :   1.0000e-05

             **** THE GBW FILE WAS UPDATED (12h2o.su.etal.mol1,3,4,6,8,9-orca.engrad-mp2.def2tzvp.frozencore.gbw) ****
             **** DENSITY FILE WAS UPDATED (12h2o.su.etal.mol1,3,4,6,8,9-orca.engrad-mp2.def2tzvp.frozencore.scfp) ****
             **** ENERGY FILE WAS UPDATED (12h2o.su.etal.mol1,3,4,6,8,9-orca.engrad-mp2.def2tzvp.frozencore.en.tmp) ****
             **** THE GBW FILE WAS UPDATED (12h2o.su.etal.mol1,3,4,6,8,9-orca.engrad-mp2.def2tzvp.frozencore.gbw) ****
             **** DENSITY FILE WAS UPDATED (12h2o.su.etal.mol1,3,4,6,8,9-orca.engrad-mp2.def2tzvp.frozencore.scfp) ****
----------------
ORBITAL ENERGIES
----------------

  NO   OCC          E(Eh)            E(eV) 
   0   2.0000     -20.608231      -560.7785 
   1   2.0000     -20.603459      -560.6486 
   2   2.0000     -20.573956      -559.8458 
   3   2.0000     -20.568127      -559.6872 
   4   2.0000     -20.536728      -558.8328 
   5   2.0000     -20.533139      -558.7351 
   6   2.0000      -1.393485       -37.9187 
   7   2.0000      -1.384685       -37.6792 
   8   2.0000      -1.352924       -36.8149 
   9   2.0000      -1.350808       -36.7573 
  10   2.0000      -1.318034       -35.8655 
  11   2.0000      -1.315329       -35.7919 
  12   2.0000      -0.750960       -20.4347 
  13   2.0000      -0.741126       -20.1671 
  14   2.0000      -0.724574       -19.7166 
  15   2.0000      -0.715450       -19.4684 
  16   2.0000      -0.705573       -19.1996 
  17   2.0000      -0.687281       -18.7019 
  18   2.0000      -0.629302       -17.1242 
  19   2.0000      -0.627753       -17.0820 
  20   2.0000      -0.597617       -16.2620 
  21   2.0000      -0.590507       -16.0685 
  22   2.0000      -0.571368       -15.5477 
  23   2.0000      -0.555248       -15.1091 
  24   2.0000      -0.537328       -14.6214 
  25   2.0000      -0.528024       -14.3683 
  26   2.0000      -0.518045       -14.0967 
  27   2.0000      -0.515828       -14.0364 
  28   2.0000      -0.483591       -13.1592 
  29   2.0000      -0.482671       -13.1342 
  30   0.0000       0.073489         1.9997 
  31   0.0000       0.101270         2.7557 
  32   0.0000       0.132879         3.6158 
  33   0.0000       0.154524         4.2048 
  34   0.0000       0.165378         4.5002 
  35   0.0000       0.173926         4.7328 
  36   0.0000       0.196593         5.3496 
  37   0.0000       0.222578         6.0567 
  38   0.0000       0.240506         6.5445 
  39   0.0000       0.280734         7.6392 
  40   0.0000       0.313246         8.5238 
  41   0.0000       0.327299         8.9062 
  42   0.0000       0.438008        11.9188 
  43   0.0000       0.465516        12.6673 
  44   0.0000       0.469453        12.7745 
  45   0.0000       0.494849        13.4655 
  46   0.0000       0.510562        13.8931 
  47   0.0000       0.526391        14.3238 
  48   0.0000       0.532756        14.4970 
  49   0.0000       0.545022        14.8308 
  50   0.0000       0.569927        15.5085 
  51   0.0000       0.571207        15.5433 
  52   0.0000       0.579691        15.7742 
  53   0.0000       0.581236        15.8162 
  54   0.0000       0.591815        16.1041 
  55   0.0000       0.609805        16.5936 
  56   0.0000       0.624523        16.9941 
  57   0.0000       0.627637        17.0789 
  58   0.0000       0.630139        17.1470 
  59   0.0000       0.651604        17.7311 
  60   0.0000       0.662200        18.0194 
  61   0.0000       0.699369        19.0308 
  62   0.0000       0.707463        19.2511 
  63   0.0000       0.714670        19.4472 
  64   0.0000       0.733511        19.9598 
  65   0.0000       0.758988        20.6531 
  66   0.0000       0.762738        20.7552 
  67   0.0000       0.773137        21.0381 
  68   0.0000       0.778161        21.1748 
  69   0.0000       0.785904        21.3855 
  70   0.0000       0.821202        22.3460 
  71   0.0000       0.845426        23.0052 
  72   0.0000       0.863599        23.4997 
  73   0.0000       0.896795        24.4030 
  74   0.0000       0.933196        25.3936 
  75   0.0000       0.988307        26.8932 
  76   0.0000       1.014524        27.6066 
  77   0.0000       1.015926        27.6448 
  78   0.0000       1.350661        36.7534 
  79   0.0000       1.355137        36.8752 
  80   0.0000       1.369998        37.2796 
  81   0.0000       1.386185        37.7200 
  82   0.0000       1.397836        38.0371 
  83   0.0000       1.415444        38.5162 
  84   0.0000       1.427376        38.8409 
  85   0.0000       1.443848        39.2891 
  86   0.0000       1.465814        39.8868 
  87   0.0000       1.476396        40.1748 
  88   0.0000       1.481015        40.3005 
  89   0.0000       1.499541        40.8046 
  90   0.0000       1.539883        41.9023 
  91   0.0000       1.542098        41.9626 
  92   0.0000       1.569332        42.7037 
  93   0.0000       1.576958        42.9112 
  94   0.0000       1.597784        43.4779 
  95   0.0000       1.622694        44.1557 
  96   0.0000       1.771078        48.1935 
  97   0.0000       1.781631        48.4807 
  98   0.0000       1.790423        48.7199 
  99   0.0000       1.805214        49.1224 
 100   0.0000       1.827704        49.7343 
 101   0.0000       1.858066        50.5605 
 102   0.0000       1.867817        50.8259 
 103   0.0000       1.895185        51.5706 
 104   0.0000       1.910824        51.9962 
 105   0.0000       1.980384        53.8890 
 106   0.0000       1.983796        53.9818 
 107   0.0000       1.997754        54.3616 
 108   0.0000       1.998584        54.3842 
 109   0.0000       2.015289        54.8388 
 110   0.0000       2.045780        55.6685 
 111   0.0000       2.092292        56.9342 
 112   0.0000       2.125036        57.8252 
 113   0.0000       2.170377        59.0590 
 114   0.0000       2.229160        60.6585 
 115   0.0000       2.255273        61.3691 
 116   0.0000       2.293419        62.4071 
 117   0.0000       2.303397        62.6786 
 118   0.0000       2.310534        62.8728 
 119   0.0000       2.318779        63.0972 
 120   0.0000       2.329847        63.3983 
 121   0.0000       2.340566        63.6900 
 122   0.0000       2.344549        63.7984 
 123   0.0000       2.353724        64.0481 
 124   0.0000       2.368403        64.4475 
 125   0.0000       2.383198        64.8501 
 126   0.0000       2.385912        64.9240 
 127   0.0000       2.437695        66.3331 
 128   0.0000       2.472247        67.2733 
 129   0.0000       2.483603        67.5823 
 130   0.0000       2.519078        68.5476 
 131   0.0000       2.540876        69.1408 
 132   0.0000       2.554586        69.5138 
 133   0.0000       2.561846        69.7114 
 134   0.0000       2.585922        70.3665 
 135   0.0000       2.616835        71.2077 
 136   0.0000       2.623355        71.3851 
 137   0.0000       2.633224        71.6537 
 138   0.0000       2.652172        72.1693 
 139   0.0000       2.659436        72.3669 
 140   0.0000       2.670006        72.6546 
 141   0.0000       2.714134        73.8553 
 142   0.0000       2.748684        74.7955 
 143   0.0000       2.772790        75.4514 
 144   0.0000       2.884983        78.5044 
 145   0.0000       2.901425        78.9518 
 146   0.0000       2.913633        79.2840 
 147   0.0000       2.916618        79.3652 
 148   0.0000       2.935993        79.8924 
 149   0.0000       2.941404        80.0397 
 150   0.0000       2.947830        80.2145 
 151   0.0000       2.956253        80.4437 
 152   0.0000       2.981325        81.1260 
 153   0.0000       3.005439        81.7822 
 154   0.0000       3.024613        82.3039 
 155   0.0000       3.031556        82.4928 
 156   0.0000       3.075585        83.6909 
 157   0.0000       3.088759        84.0494 
 158   0.0000       3.091576        84.1261 
 159   0.0000       3.134769        85.3014 
 160   0.0000       3.160032        85.9889 
 161   0.0000       3.175758        86.4168 
 162   0.0000       3.198206        87.0276 
 163   0.0000       3.232859        87.9706 
 164   0.0000       3.247102        88.3581 
 165   0.0000       3.286497        89.4301 
 166   0.0000       3.411305        92.8263 
 167   0.0000       3.489452        94.9528 
 168   0.0000       3.991415       108.6119 
 169   0.0000       4.004861       108.9778 
 170   0.0000       4.012650       109.1898 
 171   0.0000       4.052884       110.2846 
 172   0.0000       4.073154       110.8362 
 173   0.0000       4.095644       111.4481 
 174   0.0000       4.263581       116.0179 
 175   0.0000       4.264491       116.0427 
 176   0.0000       4.298885       116.9786 
 177   0.0000       4.329017       117.7985 
 178   0.0000       4.344092       118.2087 
 179   0.0000       4.388039       119.4046 
 180   0.0000       5.500880       149.6866 
 181   0.0000       5.504322       149.7802 
 182   0.0000       5.536593       150.6583 
 183   0.0000       5.538349       150.7061 
 184   0.0000       5.570643       151.5849 
 185   0.0000       5.572346       151.6313 
 186   0.0000       5.629884       153.1969 
 187   0.0000       5.640916       153.4971 
 188   0.0000       5.642355       153.5363 
 189   0.0000       5.647002       153.6627 
 190   0.0000       5.667840       154.2298 
 191   0.0000       5.676254       154.4587 
 192   0.0000       5.777982       157.2269 
 193   0.0000       5.788457       157.5119 
 194   0.0000       5.793302       157.6438 
 195   0.0000       5.803663       157.9257 
 196   0.0000       5.810220       158.1041 
 197   0.0000       5.818525       158.3301 
 198   0.0000       5.841622       158.9586 
 199   0.0000       5.842618       158.9857 
 200   0.0000       5.844075       159.0254 
 201   0.0000       5.846950       159.1036 
 202   0.0000       5.853137       159.2720 
 203   0.0000       5.856529       159.3643 
 204   0.0000       5.877724       159.9410 
 205   0.0000       5.883092       160.0871 
 206   0.0000       5.883526       160.0989 
 207   0.0000       5.894897       160.4083 
 208   0.0000       5.925265       161.2347 
 209   0.0000       5.952411       161.9733 
 210   0.0000       6.428350       174.9243 
 211   0.0000       6.441345       175.2779 
 212   0.0000       6.463522       175.8814 
 213   0.0000       6.477938       176.2736 
 214   0.0000       6.487622       176.5372 
 215   0.0000       6.514358       177.2647 
 216   0.0000       6.640678       180.7020 
 217   0.0000       6.679875       181.7686 
 218   0.0000       6.682815       181.8486 
 219   0.0000       6.708535       182.5485 
 220   0.0000       6.725793       183.0181 
 221   0.0000       6.734814       183.2636 
 222   0.0000       6.817738       185.5201 
 223   0.0000       6.818973       185.5537 
 224   0.0000       6.820875       185.6055 
 225   0.0000       6.848189       186.3487 
 226   0.0000       6.859046       186.6441 
 227   0.0000       6.868475       186.9007 
 228   0.0000       6.876144       187.1094 
 229   0.0000       6.882491       187.2821 
 230   0.0000       6.887117       187.4080 
 231   0.0000       6.906248       187.9286 
 232   0.0000       6.907794       187.9706 
 233   0.0000       6.934360       188.6935 
 234   0.0000       6.940039       188.8481 
 235   0.0000       6.974211       189.7779 
 236   0.0000       6.975143       189.8033 
 237   0.0000       6.981029       189.9634 
 238   0.0000       7.007102       190.6729 
 239   0.0000       7.050510       191.8541 
 240   0.0000       7.337006       199.6501 
 241   0.0000       7.352544       200.0729 
 242   0.0000       7.392578       201.1623 
 243   0.0000       7.395608       201.2447 
 244   0.0000       7.434473       202.3023 
 245   0.0000       7.460785       203.0183 
 246   0.0000       7.480272       203.5485 
 247   0.0000       7.490832       203.8359 
 248   0.0000       7.500041       204.0865 
 249   0.0000       7.557290       205.6443 
 250   0.0000       7.562695       205.7914 
 251   0.0000       7.571981       206.0441 
 252   0.0000      44.820538      1219.6288 
 253   0.0000      44.885364      1221.3928 
 254   0.0000      44.910904      1222.0878 
 255   0.0000      44.941626      1222.9238 
 256   0.0000      44.946588      1223.0588 
 257   0.0000      44.974310      1223.8132 

                    ********************************
                    * MULLIKEN POPULATION ANALYSIS *
                    ********************************

-----------------------
MULLIKEN ATOMIC CHARGES
-----------------------
   0 O :   -0.761071
   1 H :    0.339444
   2 H :    0.389657
   3 O :   -0.700067
   4 H :    0.337424
   5 H :    0.363785
   6 O :   -0.707609
   7 H :    0.364592
   8 H :    0.373240
   9 O :   -0.753414
  10 H :    0.342355
  11 H :    0.383605
  12 O :   -0.720037
  13 H :    0.389593
  14 H :    0.326019
  15 O :   -0.703013
  16 H :    0.371128
  17 H :    0.364368
Sum of atomic charges:   -0.0000000

--------------------------------
MULLIKEN REDUCED ORBITAL CHARGES
--------------------------------
  0 O s       :     3.807953  s :     3.807953
      pz      :     1.720456  p :     4.927909
      px      :     1.404699
      py      :     1.802755
      dz2     :     0.003966  d :     0.023736
      dxz     :     0.004582
      dyz     :     0.005556
      dx2y2   :     0.002354
      dxy     :     0.007279
      f0      :     0.000087  f :     0.001473
      f+1     :     0.000328
      f-1     :     0.000185
      f+2     :     0.000070
      f-2     :     0.000360
      f+3     :     0.000089
      f-3     :     0.000354
  1 H s       :     0.614536  s :     0.614536
      pz      :     0.017012  p :     0.046020
      px      :     0.013895
      py      :     0.015113
  2 H s       :     0.553409  s :     0.553409
      pz      :     0.010901  p :     0.056933
      px      :     0.031862
      py      :     0.014170
  3 O s       :     3.816213  s :     3.816213
      pz      :     1.494165  p :     4.855879
      px      :     1.544314
      py      :     1.817401
      dz2     :     0.012341  d :     0.026444
      dxz     :     0.001289
      dyz     :     0.003075
      dx2y2   :     0.002130
      dxy     :     0.007610
      f0      :     0.000270  f :     0.001531
      f+1     :     0.000385
      f-1     :     0.000174
      f+2     :     0.000055
      f-2     :     0.000056
      f+3     :     0.000068
      f-3     :     0.000523
  4 H s       :     0.617394  s :     0.617394
      pz      :     0.018815  p :     0.045182
      px      :     0.012460
      py      :     0.013907
  5 H s       :     0.592045  s :     0.592045
      pz      :     0.010346  p :     0.044170
      px      :     0.018440
      py      :     0.015384
  6 O s       :     3.807408  s :     3.807408
      pz      :     1.552171  p :     4.872462
      px      :     1.842833
      py      :     1.477458
      dz2     :     0.012328  d :     0.026315
      dxz     :     0.002351
      dyz     :     0.003055
      dx2y2   :     0.003681
      dxy     :     0.004899
      f0      :     0.000166  f :     0.001424
      f+1     :     0.000118
      f-1     :     0.000471
      f+2     :     0.000068
      f-2     :     0.000041
      f+3     :     0.000452
      f-3     :     0.000107
  7 H s       :     0.591512  s :     0.591512
      pz      :     0.019059  p :     0.043896
      px      :     0.013367
      py      :     0.011470
  8 H s       :     0.584402  s :     0.584402
      pz      :     0.009731  p :     0.042359
      px      :     0.013945
      py      :     0.018683
  9 O s       :     3.809668  s :     3.809668
      pz      :     1.532539  p :     4.918931
      px      :     1.506897
      py      :     1.879495
      dz2     :     0.010459  d :     0.023365
      dxz     :     0.002617
      dyz     :     0.002389
      dx2y2   :     0.002877
      dxy     :     0.005023
      f0      :     0.000205  f :     0.001450
      f+1     :     0.000437
      f-1     :     0.000125
      f+2     :     0.000077
      f-2     :     0.000038
      f+3     :     0.000117
      f-3     :     0.000451
 10 H s       :     0.612463  s :     0.612463
      pz      :     0.018353  p :     0.045182
      px      :     0.012441
      py      :     0.014389
 11 H s       :     0.562800  s :     0.562800
      pz      :     0.009029  p :     0.053595
      px      :     0.029025
      py      :     0.015541
 12 O s       :     3.811229  s :     3.811229
      pz      :     1.557188  p :     4.881766
      px      :     1.512692
      py      :     1.811886
      dz2     :     0.011630  d :     0.025554
      dxz     :     0.001201
      dyz     :     0.002983
      dx2y2   :     0.002156
      dxy     :     0.007584
      f0      :     0.000247  f :     0.001489
      f+1     :     0.000374
      f-1     :     0.000166
      f+2     :     0.000056
      f-2     :     0.000056
      f+3     :     0.000070
      f-3     :     0.000520
 13 H s       :     0.561753  s :     0.561753
      pz      :     0.024434  p :     0.048654
      px      :     0.011495
      py      :     0.012725
 14 H s       :     0.628836  s :     0.628836
      pz      :     0.011166  p :     0.045145
      px      :     0.017897
      py      :     0.016082
 15 O s       :     3.800638  s :     3.800638
      pz      :     1.530531  p :     4.874865
      px      :     1.790280
      py      :     1.554054
      dz2     :     0.012582  d :     0.026054
      dxz     :     0.002520
      dyz     :     0.001234
      dx2y2   :     0.002528
      dxy     :     0.007190
      f0      :     0.000249  f :     0.001455
      f+1     :     0.000165
      f-1     :     0.000393
      f+2     :     0.000052
      f-2     :     0.000057
      f+3     :     0.000484
      f-3     :     0.000055
 16 H s       :     0.585252  s :     0.585252
      pz      :     0.019515  p :     0.043620
      px      :     0.012513
      py      :     0.011593
 17 H s       :     0.592109  s :     0.592109
      pz      :     0.010291  p :     0.043524
      px      :     0.014819
      py      :     0.018414


                     *******************************
                     * LOEWDIN POPULATION ANALYSIS *
                     *******************************

----------------------
LOEWDIN ATOMIC CHARGES
----------------------
   0 O :   -0.374576
   1 H :    0.151033
   2 H :    0.150742
   3 O :   -0.330753
   4 H :    0.159558
   5 H :    0.172438
   6 O :   -0.293304
   7 H :    0.171250
   8 H :    0.181042
   9 O :   -0.344944
  10 H :    0.159582
  11 H :    0.153145
  12 O :   -0.341356
  13 H :    0.158592
  14 H :    0.154243
  15 O :   -0.276966
  16 H :    0.175961
  17 H :    0.174315

-------------------------------
LOEWDIN REDUCED ORBITAL CHARGES
-------------------------------
  0 O s       :     3.467342  s :     3.467342
      pz      :     1.706742  p :     4.875643
      px      :     1.389563
      py      :     1.779338
      dz2     :     0.004277  d :     0.029579
      dxz     :     0.006991
      dyz     :     0.005733
      dx2y2   :     0.003397
      dxy     :     0.009180
      f0      :     0.000072  f :     0.002012
      f+1     :     0.000441
      f-1     :     0.000266
      f+2     :     0.000034
      f-2     :     0.000627
      f+3     :     0.000085
      f-3     :     0.000487
  1 H s       :     0.684647  s :     0.684647
      pz      :     0.065536  p :     0.164320
      px      :     0.045548
      py      :     0.053235
  2 H s       :     0.655861  s :     0.655861
      pz      :     0.033717  p :     0.193397
      px      :     0.112030
      py      :     0.047650
  3 O s       :     3.473624  s :     3.473624
      pz      :     1.504146  p :     4.821306
      px      :     1.529924
      py      :     1.787237
      dz2     :     0.017003  d :     0.033613
      dxz     :     0.002183
      dyz     :     0.002527
      dx2y2   :     0.002257
      dxy     :     0.009642
      f0      :     0.000501  f :     0.002210
      f+1     :     0.000594
      f-1     :     0.000329
      f+2     :     0.000026
      f-2     :     0.000048
      f+3     :     0.000003
      f-3     :     0.000710
  4 H s       :     0.682695  s :     0.682695
      pz      :     0.079770  p :     0.157747
      px      :     0.035587
      py      :     0.042391
  5 H s       :     0.670525  s :     0.670525
      pz      :     0.029453  p :     0.157037
      px      :     0.072801
      py      :     0.054783
  6 O s       :     3.468185  s :     3.468185
      pz      :     1.547398  p :     4.789797
      px      :     1.784142
      py      :     1.458258
      dz2     :     0.015822  d :     0.033225
      dxz     :     0.001455
      dyz     :     0.004224
      dx2y2   :     0.005403
      dxy     :     0.006321
      f0      :     0.000364  f :     0.002097
      f+1     :     0.000211
      f-1     :     0.000754
      f+2     :     0.000042
      f-2     :     0.000045
      f+3     :     0.000607
      f-3     :     0.000074
  7 H s       :     0.669962  s :     0.669962
      pz      :     0.080409  p :     0.158788
      px      :     0.042846
      py      :     0.035533
  8 H s       :     0.665201  s :     0.665201
      pz      :     0.029052  p :     0.153757
      px      :     0.049149
      py      :     0.075556
  9 O s       :     3.464239  s :     3.464239
      pz      :     1.522371  p :     4.848176
      px      :     1.485247
      py      :     1.840558
      dz2     :     0.014983  d :     0.030489
      dxz     :     0.004226
      dyz     :     0.001662
      dx2y2   :     0.003697
      dxy     :     0.005921
      f0      :     0.000409  f :     0.002041
      f+1     :     0.000742
      f-1     :     0.000188
      f+2     :     0.000047
      f-2     :     0.000045
      f+3     :     0.000064
      f-3     :     0.000546
 10 H s       :     0.681665  s :     0.681665
      pz      :     0.078469  p :     0.158752
      px      :     0.036764
      py      :     0.043520
 11 H s       :     0.660993  s :     0.660993
      pz      :     0.028956  p :     0.185862
      px      :     0.104412
      py      :     0.052494
 12 O s       :     3.467422  s :     3.467422
      pz      :     1.537887  p :     4.839615
      px      :     1.517127
      py      :     1.784600
      dz2     :     0.015307  d :     0.032181
      dxz     :     0.001810
      dyz     :     0.002306
      dx2y2   :     0.002451
      dxy     :     0.010307
      f0      :     0.000431  f :     0.002137
      f+1     :     0.000564
      f-1     :     0.000320
      f+2     :     0.000024
      f-2     :     0.000045
      f+3     :     0.000003
      f-3     :     0.000751
 13 H s       :     0.670987  s :     0.670987
      pz      :     0.093170  p :     0.170420
      px      :     0.035646
      py      :     0.041604
 14 H s       :     0.688447  s :     0.688447
      pz      :     0.031550  p :     0.157310
      px      :     0.070825
      py      :     0.054935
 15 O s       :     3.459249  s :     3.459249
      pz      :     1.520309  p :     4.781739
      px      :     1.729922
      py      :     1.531508
      dz2     :     0.016744  d :     0.033769
      dxz     :     0.002006
      dyz     :     0.001951
      dx2y2   :     0.003749
      dxy     :     0.009318
      f0      :     0.000453  f :     0.002209
      f+1     :     0.000347
      f-1     :     0.000591
      f+2     :     0.000023
      f-2     :     0.000048
      f+3     :     0.000719
      f-3     :     0.000027
 16 H s       :     0.665284  s :     0.665284
      pz      :     0.081696  p :     0.158755
      px      :     0.041562
      py      :     0.035497
 17 H s       :     0.668149  s :     0.668149
      pz      :     0.029838  p :     0.157536
      px      :     0.055056
      py      :     0.072642


                      *****************************
                      * MAYER POPULATION ANALYSIS *
                      *****************************

  NA   - Mulliken gross atomic population
  ZA   - Total nuclear charge
  QA   - Mulliken gross atomic charge
  VA   - Mayer's total valence
  BVA  - Mayer's bonded valence
  FA   - Mayer's free valence

  ATOM       NA         ZA         QA         VA         BVA        FA
  0 O      8.7611     8.0000    -0.7611     1.6985     1.6985     0.0000
  1 H      0.6606     1.0000     0.3394     0.9008     0.9008     0.0000
  2 H      0.6103     1.0000     0.3897     0.8819     0.8819     0.0000
  3 O      8.7001     8.0000    -0.7001     1.7788     1.7788     0.0000
  4 H      0.6626     1.0000     0.3374     0.9018     0.9018    -0.0000
  5 H      0.6362     1.0000     0.3638     0.8850     0.8850     0.0000
  6 O      8.7076     8.0000    -0.7076     1.7843     1.7843    -0.0000
  7 H      0.6354     1.0000     0.3646     0.8824     0.8824    -0.0000
  8 H      0.6268     1.0000     0.3732     0.8804     0.8804    -0.0000
  9 O      8.7534     8.0000    -0.7534     1.7075     1.7075    -0.0000
 10 H      0.6576     1.0000     0.3424     0.9001     0.9001    -0.0000
 11 H      0.6164     1.0000     0.3836     0.8931     0.8931    -0.0000
 12 O      8.7200     8.0000    -0.7200     1.7592     1.7592    -0.0000
 13 H      0.6104     1.0000     0.3896     0.8749     0.8749    -0.0000
 14 H      0.6740     1.0000     0.3260     0.9113     0.9113    -0.0000
 15 O      8.7030     8.0000    -0.7030     1.7802     1.7802    -0.0000
 16 H      0.6289     1.0000     0.3711     0.8778     0.8778    -0.0000
 17 H      0.6356     1.0000     0.3644     0.8838     0.8838     0.0000

  Mayer bond orders larger than 0.100000
B(  0-O ,  1-H ) :   0.8949 B(  0-O ,  2-H ) :   0.8209 B(  3-O ,  4-H ) :   0.8941 
B(  3-O ,  5-H ) :   0.8743 B(  6-O ,  7-H ) :   0.8736 B(  6-O ,  8-H ) :   0.8633 
B(  9-O , 10-H ) :   0.8910 B(  9-O , 11-H ) :   0.8141 B( 12-O , 13-H ) :   0.8476 
B( 12-O , 14-H ) :   0.9015 B( 15-O , 16-H ) :   0.8693 B( 15-O , 17-H ) :   0.8739 


-------
TIMINGS
-------

Total SCF time: 0 days 0 hours 0 min 9 sec 

Total time                  ....       9.277 sec
Sum of individual times     ....       9.030 sec  ( 97.3%)

Fock matrix formation       ....       8.693 sec  ( 93.7%)
Diagonalization             ....       0.072 sec  (  0.8%)
Density matrix formation    ....       0.008 sec  (  0.1%)
Population analysis         ....       0.008 sec  (  0.1%)
Initial guess               ....       0.139 sec  (  1.5%)
Orbital Transformation      ....       0.000 sec  (  0.0%)
Orbital Orthonormalization  ....       0.000 sec  (  0.0%)
DIIS solution               ....       0.026 sec  (  0.3%)
SOSCF solution              ....       0.032 sec  (  0.3%)


           ************************************************************
           *        Program running with 6 parallel MPI-processes     *
           *              working on a common directory               *
           ************************************************************

------------------------------------------------------------------------------
                                ORCA  MP2 
------------------------------------------------------------------------------

Freezing NCore=12 chemical core electrons
MP2 will be done in the AO integral direct mode
The Q1-step will be done using symmetric double matrices
Dimension of the basis                    ...  258
Memory devoted for MP2                    ... 8000 MB   
Memory needed for all in one shot         ...  264 MB
Number of MOs that can be treated together...  120      
MP2 density construction                  ... relaxed
The MP2 gradient is requested => amplitudes will be stored on disk
Total number of MOs              ...   24
Number of MOs treated per batch  ...    4 
Number of batches necessary      ...    1 
OPERATORS   0/  0 PASS   0
-----------------------------------------------
 MP2 CORRELATION ENERGY   :     -1.544555455 Eh
-----------------------------------------------


---------------------
MP2 DENSITY FORMATION
---------------------

Completing the external part of the density      ... done
Storing the unrelaxed density                    ... done

Calculating G(D)                                 ... done
Completing the Lagrangian                        ... done
Solving the Z-vector equations                   ... 

------------------------------------------------------------------------------
                           ORCA CP-SCF CALCULATION
------------------------------------------------------------------------------

Input orbitals are from        ... 12h2o.su.etal.mol1,3,4,6,8,9-orca.engrad-mp2.def2tzvp.frozencore.gbw
Input Perturbation             ... 12h2o.su.etal.mol1,3,4,6,8,9-orca.engrad-mp2.def2tzvp.frozencore.pin.tmp
Wavefunction output            ... 12h2o.su.etal.mol1,3,4,6,8,9-orca.engrad-mp2.def2tzvp.frozencore.pout.tmp
Perturbation mode              ... Real perturbation (singlet)
Solver                         ... POPLE
Max. number of iterations      ... 128
Convergence tolerance          ... 1.000e-08
Integral handling              ... Direct
Number of perturbations        ... 1
Number of operators            ... 1
Orbital ranges used for CP-SCF:
 Operator 0:  Orbitals   0... 29  to  30...257
Variables per vector in CP-SCF ... 6840
Number of vectors sought       ... 1
     CP-SCF ITERATION   0: 
     CP-SCF ITERATION   1:      0.000748938784
     CP-SCF ITERATION   2:      0.000017041867
     CP-SCF ITERATION   3:      0.000000657001
     CP-SCF ITERATION   4:      0.000000063520
     CP-SCF ITERATION   5:      0.000000005651
                                                 ... done
Finalizing the relaxed density                   ... done
Transforming P to the AO basis                   ... done
Storing the relaxed density                      ... done

------------------------------------
ENERGY WEIGHTED DENSITY FINALIZATION
------------------------------------

Gathering the parts of the W-matrix              ...                                                      done
Forming the Z-density                            ... done
Transforming Z to the AO basis                   ... done
Calculating G(Z)                                 ... done
Finalizing the W-matrix                          ...                                                      done
Transforming W to the AO basis and storing       ... done

                *********************************************
                * UNRELAXED MP2 DENSITY POPULATION ANALYSIS *
                *********************************************

------------------------------------------------------------------------------
                           ORCA POPULATION ANALYSIS
------------------------------------------------------------------------------
Input electron density              ... 12h2o.su.etal.mol1,3,4,6,8,9-orca.engrad-mp2.def2tzvp.frozencore.pmp2ur
BaseName (.gbw .S,...)              ... 12h2o.su.etal.mol1,3,4,6,8,9-orca.engrad-mp2.def2tzvp.frozencore

                    ********************************
                    * MULLIKEN POPULATION ANALYSIS *
                    ********************************

-----------------------
MULLIKEN ATOMIC CHARGES
-----------------------
   0 O :   -0.755693
   1 H :    0.337216
   2 H :    0.385396
   3 O :   -0.695027
   4 H :    0.334994
   5 H :    0.361255
   6 O :   -0.701233
   7 H :    0.362100
   8 H :    0.370425
   9 O :   -0.747593
  10 H :    0.339935
  11 H :    0.379167
  12 O :   -0.714636
  13 H :    0.386695
  14 H :    0.323430
  15 O :   -0.696960
  16 H :    0.368671
  17 H :    0.361860
Sum of atomic charges:   -0.0000000

--------------------------------
MULLIKEN REDUCED ORBITAL CHARGES
--------------------------------
  0 O s       :     3.803081  s :     3.803081
      pz      :     1.710041  p :     4.897819
      px      :     1.396295
      py      :     1.791483
      dz2     :     0.009439  d :     0.050755
      dxz     :     0.009952
      dyz     :     0.010898
      dx2y2   :     0.007847
      dxy     :     0.012619
      f0      :     0.000455  f :     0.004039
      f+1     :     0.000691
      f-1     :     0.000548
      f+2     :     0.000438
      f-2     :     0.000725
      f+3     :     0.000462
      f-3     :     0.000719
  1 H s       :     0.615064  s :     0.615064
      pz      :     0.017514  p :     0.047720
      px      :     0.014350
      py      :     0.015857
  2 H s       :     0.555977  s :     0.555977
      pz      :     0.011742  p :     0.058627
      px      :     0.031969
      py      :     0.014916
  3 O s       :     3.811440  s :     3.811440
      pz      :     1.485394  p :     4.826746
      px      :     1.535322
      py      :     1.806030
      dz2     :     0.017282  d :     0.052764
      dxz     :     0.006605
      dyz     :     0.008474
      dx2y2   :     0.007577
      dxy     :     0.012826
      f0      :     0.000644  f :     0.004077
      f+1     :     0.000747
      f-1     :     0.000543
      f+2     :     0.000412
      f-2     :     0.000419
      f+3     :     0.000436
      f-3     :     0.000876
  4 H s       :     0.618143  s :     0.618143
      pz      :     0.018917  p :     0.046863
      px      :     0.013164
      py      :     0.014783
  5 H s       :     0.592991  s :     0.592991
      pz      :     0.011113  p :     0.045754
      px      :     0.018587
      py      :     0.016054
  6 O s       :     3.802270  s :     3.802270
      pz      :     1.542725  p :     4.841771
      px      :     1.830175
      py      :     1.468871
      dz2     :     0.017381  d :     0.053198
      dxz     :     0.007912
      dyz     :     0.008341
      dx2y2   :     0.009200
      dxy     :     0.010363
      f0      :     0.000548  f :     0.003994
      f+1     :     0.000491
      f-1     :     0.000834
      f+2     :     0.000432
      f-2     :     0.000406
      f+3     :     0.000808
      f-3     :     0.000476
  7 H s       :     0.592435  s :     0.592435
      pz      :     0.019190  p :     0.045465
      px      :     0.014205
      py      :     0.012070
  8 H s       :     0.585678  s :     0.585678
      pz      :     0.010538  p :     0.043896
      px      :     0.014645
      py      :     0.018714
  9 O s       :     3.804640  s :     3.804640
      pz      :     1.523282  p :     4.888294
      px      :     1.497538
      py      :     1.867474
      dz2     :     0.015741  d :     0.050635
      dxz     :     0.008046
      dyz     :     0.007980
      dx2y2   :     0.008412
      dxy     :     0.010457
      f0      :     0.000586  f :     0.004024
      f+1     :     0.000805
      f-1     :     0.000496
      f+2     :     0.000441
      f-2     :     0.000404
      f+3     :     0.000484
      f-3     :     0.000808
 10 H s       :     0.613203  s :     0.613203
      pz      :     0.018515  p :     0.046862
      px      :     0.013079
      py      :     0.015268
 11 H s       :     0.565602  s :     0.565602
      pz      :     0.009818  p :     0.055230
      px      :     0.029166
      py      :     0.016246
 12 O s       :     3.806415  s :     3.806415
      pz      :     1.547724  p :     4.852008
      px      :     1.503723
      py      :     1.800560
      dz2     :     0.016743  d :     0.052165
      dxz     :     0.006589
      dyz     :     0.008438
      dx2y2   :     0.007616
      dxy     :     0.012780
      f0      :     0.000627  f :     0.004048
      f+1     :     0.000741
      f-1     :     0.000540
      f+2     :     0.000415
      f-2     :     0.000420
      f+3     :     0.000436
      f-3     :     0.000870
 13 H s       :     0.563133  s :     0.563133
      pz      :     0.024477  p :     0.050171
      px      :     0.012144
      py      :     0.013551
 14 H s       :     0.629681  s :     0.629681
      pz      :     0.012001  p :     0.046889
      px      :     0.018087
      py      :     0.016801
 15 O s       :     3.795486  s :     3.795486
      pz      :     1.521386  p :     4.844419
      px      :     1.778102
      py      :     1.544932
      dz2     :     0.017648  d :     0.053019
      dxz     :     0.008060
      dyz     :     0.006606
      dx2y2   :     0.008138
      dxy     :     0.012567
      f0      :     0.000629  f :     0.004037
      f+1     :     0.000540
      f-1     :     0.000758
      f+2     :     0.000413
      f-2     :     0.000423
      f+3     :     0.000844
      f-3     :     0.000430
 16 H s       :     0.586177  s :     0.586177
      pz      :     0.019579  p :     0.045152
      px      :     0.013322
      py      :     0.012251
 17 H s       :     0.593064  s :     0.593064
      pz      :     0.011055  p :     0.045077
      px      :     0.015441
      py      :     0.018580


                     *******************************
                     * LOEWDIN POPULATION ANALYSIS *
                     *******************************

----------------------
LOEWDIN ATOMIC CHARGES
----------------------
   0 O :   -0.372173
   1 H :    0.149797
   2 H :    0.148287
   3 O :   -0.327752
   4 H :    0.158078
   5 H :    0.171007
   6 O :   -0.288787
   7 H :    0.169796
   8 H :    0.179310
   9 O :   -0.341771
  10 H :    0.158022
  11 H :    0.150571
  12 O :   -0.338321
  13 H :    0.156789
  14 H :    0.152554
  15 O :   -0.272827
  16 H :    0.174574
  17 H :    0.172848

-------------------------------
LOEWDIN REDUCED ORBITAL CHARGES
-------------------------------
  0 O s       :     3.463695  s :     3.463695
      pz      :     1.696344  p :     4.846046
      px      :     1.381286
      py      :     1.768416
      dz2     :     0.009827  d :     0.057658
      dxz     :     0.012581
      dyz     :     0.011388
      dx2y2   :     0.008991
      dxy     :     0.014871
      f0      :     0.000450  f :     0.004774
      f+1     :     0.000853
      f-1     :     0.000648
      f+2     :     0.000409
      f-2     :     0.001036
      f+3     :     0.000472
      f-3     :     0.000905
  1 H s       :     0.682631  s :     0.682631
      pz      :     0.066813  p :     0.167573
      px      :     0.046504
      py      :     0.054257
  2 H s       :     0.655794  s :     0.655794
      pz      :     0.034557  p :     0.195919
      px      :     0.112818
      py      :     0.048544
  3 O s       :     3.469883  s :     3.469883
      pz      :     1.494951  p :     4.791896
      px      :     1.520752
      py      :     1.776193
      dz2     :     0.022672  d :     0.061024
      dxz     :     0.007435
      dyz     :     0.007867
      dx2y2   :     0.007691
      dxy     :     0.015358
      f0      :     0.000916  f :     0.004948
      f+1     :     0.001011
      f-1     :     0.000721
      f+2     :     0.000388
      f-2     :     0.000418
      f+3     :     0.000375
      f-3     :     0.001120
  4 H s       :     0.680878  s :     0.680878
      pz      :     0.081471  p :     0.161044
      px      :     0.036346
      py      :     0.043226
  5 H s       :     0.668931  s :     0.668931
      pz      :     0.030172  p :     0.160062
      px      :     0.074096
      py      :     0.055795
  6 O s       :     3.464266  s :     3.464266
      pz      :     1.537676  p :     4.758504
      px      :     1.771444
      py      :     1.449384
      dz2     :     0.021530  d :     0.061155
      dxz     :     0.006937
      dyz     :     0.009533
      dx2y2   :     0.011092
      dxy     :     0.012063
      f0      :     0.000776  f :     0.004862
      f+1     :     0.000600
      f-1     :     0.001186
      f+2     :     0.000413
      f-2     :     0.000416
      f+3     :     0.001019
      f-3     :     0.000453
  7 H s       :     0.668362  s :     0.668362
      pz      :     0.081945  p :     0.161842
      px      :     0.043624
      py      :     0.036273
  8 H s       :     0.663944  s :     0.663944
      pz      :     0.029837  p :     0.156746
      px      :     0.050044
      py      :     0.076865
  9 O s       :     3.460522  s :     3.460522
      pz      :     1.512290  p :     4.817536
      px      :     1.476120
      py      :     1.829126
      dz2     :     0.020908  d :     0.058901
      dxz     :     0.009684
      dyz     :     0.007191
      dx2y2   :     0.009420
      dxy     :     0.011698
      f0      :     0.000823  f :     0.004812
      f+1     :     0.001179
      f-1     :     0.000576
      f+2     :     0.000417
      f-2     :     0.000417
      f+3     :     0.000442
      f-3     :     0.000958
 10 H s       :     0.679917  s :     0.679917
      pz      :     0.080154  p :     0.162061
      px      :     0.037586
      py      :     0.044321
 11 H s       :     0.660858  s :     0.660858
      pz      :     0.029765  p :     0.188571
      px      :     0.105466
      py      :     0.053340
 12 O s       :     3.463688  s :     3.463688
      pz      :     1.528382  p :     4.809826
      px      :     1.507869
      py      :     1.773576
      dz2     :     0.021097  d :     0.059916
      dxz     :     0.007149
      dyz     :     0.007706
      dx2y2   :     0.007913
      dxy     :     0.016050
      f0      :     0.000851  f :     0.004891
      f+1     :     0.000985
      f-1     :     0.000716
      f+2     :     0.000388
      f-2     :     0.000416
      f+3     :     0.000374
      f-3     :     0.001161
 13 H s       :     0.669984  s :     0.669984
      pz      :     0.094454  p :     0.173228
      px      :     0.036370
      py      :     0.042404
 14 H s       :     0.686704  s :     0.686704
      pz      :     0.032342  p :     0.160742
      px      :     0.072343
      py      :     0.056057
 15 O s       :     3.455370  s :     3.455370
      pz      :     1.510935  p :     4.750725
      px      :     1.717641
      py      :     1.522149
      dz2     :     0.022503  d :     0.061746
      dxz     :     0.007474
      dyz     :     0.007262
      dx2y2   :     0.009331
      dxy     :     0.015176
      f0      :     0.000873  f :     0.004987
      f+1     :     0.000746
      f-1     :     0.001010
      f+2     :     0.000389
      f-2     :     0.000421
      f+3     :     0.001139
      f-3     :     0.000407
 16 H s       :     0.663705  s :     0.663705
      pz      :     0.083143  p :     0.161721
      px      :     0.042361
      py      :     0.036218
 17 H s       :     0.666580  s :     0.666580
      pz      :     0.030566  p :     0.160573
      px      :     0.056072
      py      :     0.073935


                      *****************************
                      * MAYER POPULATION ANALYSIS *
                      *****************************

  NA   - Mulliken gross atomic population
  ZA   - Total nuclear charge
  QA   - Mulliken gross atomic charge
  VA   - Mayer's total valence
  BVA  - Mayer's bonded valence
  FA   - Mayer's free valence

  ATOM       NA         ZA         QA         VA         BVA        FA
  0 O      8.7557     8.0000    -0.7557     2.0116     1.6201     0.3916
  1 H      0.6628     1.0000     0.3372     0.9067     0.8594     0.0473
  2 H      0.6146     1.0000     0.3854     0.8891     0.8433     0.0458
  3 O      8.6950     8.0000    -0.6950     2.0830     1.6968     0.3862
  4 H      0.6650     1.0000     0.3350     0.9080     0.8596     0.0484
  5 H      0.6387     1.0000     0.3613     0.8910     0.8446     0.0463
  6 O      8.7012     8.0000    -0.7012     2.0912     1.7026     0.3886
  7 H      0.6379     1.0000     0.3621     0.8883     0.8418     0.0464
  8 H      0.6296     1.0000     0.3704     0.8867     0.8399     0.0468
  9 O      8.7476     8.0000    -0.7476     2.0207     1.6281     0.3926
 10 H      0.6601     1.0000     0.3399     0.9062     0.8578     0.0483
 11 H      0.6208     1.0000     0.3792     0.9008     0.8541     0.0468
 12 O      8.7146     8.0000    -0.7146     2.0664     1.6783     0.3881
 13 H      0.6133     1.0000     0.3867     0.8809     0.8369     0.0439
 14 H      0.6766     1.0000     0.3234     0.9179     0.8680     0.0499
 15 O      8.6970     8.0000    -0.6970     2.0853     1.6999     0.3854
 16 H      0.6313     1.0000     0.3687     0.8836     0.8380     0.0455
 17 H      0.6381     1.0000     0.3619     0.8897     0.8434     0.0463

  Mayer bond orders larger than 0.100000
B(  0-O ,  1-H ) :   0.8541 B(  0-O ,  2-H ) :   0.7838 B(  3-O ,  4-H ) :   0.8523 
B(  3-O ,  5-H ) :   0.8345 B(  6-O ,  7-H ) :   0.8336 B(  6-O ,  8-H ) :   0.8235 
B(  9-O , 10-H ) :   0.8495 B(  9-O , 11-H ) :   0.7772 B( 12-O , 13-H ) :   0.8104 
B( 12-O , 14-H ) :   0.8587 B( 15-O , 16-H ) :   0.8301 B( 15-O , 17-H ) :   0.8342 



                *******************************************
                * RELAXED MP2 DENSITY POPULATION ANALYSIS *
                *******************************************

------------------------------------------------------------------------------
                           ORCA POPULATION ANALYSIS
------------------------------------------------------------------------------
Input electron density              ... 12h2o.su.etal.mol1,3,4,6,8,9-orca.engrad-mp2.def2tzvp.frozencore.pmp2re
BaseName (.gbw .S,...)              ... 12h2o.su.etal.mol1,3,4,6,8,9-orca.engrad-mp2.def2tzvp.frozencore

                    ********************************
                    * MULLIKEN POPULATION ANALYSIS *
                    ********************************

-----------------------
MULLIKEN ATOMIC CHARGES
-----------------------
   0 O :   -0.737003
   1 H :    0.330906
   2 H :    0.365005
   3 O :   -0.679994
   4 H :    0.328843
   5 H :    0.353121
   6 O :   -0.676631
   7 H :    0.355558
   8 H :    0.361540
   9 O :   -0.724808
  10 H :    0.332082
  11 H :    0.356304
  12 O :   -0.696377
  13 H :    0.373209
  14 H :    0.316600
  15 O :   -0.675118
  16 H :    0.361932
  17 H :    0.354833
Sum of atomic charges:   -0.0000000

--------------------------------
MULLIKEN REDUCED ORBITAL CHARGES
--------------------------------
  0 O s       :     3.804410  s :     3.804410
      pz      :     1.704280  p :     4.879789
      px      :     1.389942
      py      :     1.785567
      dz2     :     0.009229  d :     0.048832
      dxz     :     0.009397
      dyz     :     0.010583
      dx2y2   :     0.007721
      dxy     :     0.011902
      f0      :     0.000453  f :     0.003973
      f+1     :     0.000674
      f-1     :     0.000540
      f+2     :     0.000438
      f-2     :     0.000705
      f+3     :     0.000460
      f-3     :     0.000701
  1 H s       :     0.620611  s :     0.620611
      pz      :     0.017615  p :     0.048483
      px      :     0.014361
      py      :     0.016507
  2 H s       :     0.576049  s :     0.576049
      pz      :     0.012522  p :     0.058946
      px      :     0.030947
      py      :     0.015476
  3 O s       :     3.816385  s :     3.816385
      pz      :     1.479352  p :     4.809183
      px      :     1.530337
      py      :     1.799494
      dz2     :     0.015866  d :     0.050427
      dxz     :     0.006537
      dyz     :     0.008442
      dx2y2   :     0.007491
      dxy     :     0.012092
      f0      :     0.000625  f :     0.004000
      f+1     :     0.000725
      f-1     :     0.000533
      f+2     :     0.000413
      f-2     :     0.000418
      f+3     :     0.000436
      f-3     :     0.000851
  4 H s       :     0.623468  s :     0.623468
      pz      :     0.018150  p :     0.047690
      px      :     0.013765
      py      :     0.015774
  5 H s       :     0.600443  s :     0.600443
      pz      :     0.011772  p :     0.046436
      px      :     0.018031
      py      :     0.016633
  6 O s       :     3.805177  s :     3.805177
      pz      :     1.536846  p :     4.816516
      px      :     1.814412
      py      :     1.465259
      dz2     :     0.016133  d :     0.051019
      dxz     :     0.007979
      dyz     :     0.008088
      dx2y2   :     0.008900
      dxy     :     0.009919
      f0      :     0.000532  f :     0.003919
      f+1     :     0.000485
      f-1     :     0.000805
      f+2     :     0.000431
      f-2     :     0.000404
      f+3     :     0.000786
      f-3     :     0.000474
  7 H s       :     0.598328  s :     0.598328
      pz      :     0.018509  p :     0.046114
      px      :     0.015152
      py      :     0.012453
  8 H s       :     0.593985  s :     0.593985
      pz      :     0.011247  p :     0.044476
      px      :     0.015296
      py      :     0.017933
  9 O s       :     3.806713  s :     3.806713
      pz      :     1.513025  p :     4.865553
      px      :     1.491499
      py      :     1.861030
      dz2     :     0.014564  d :     0.048586
      dxz     :     0.007765
      dyz     :     0.008008
      dx2y2   :     0.008210
      dxy     :     0.010039
      f0      :     0.000574  f :     0.003956
      f+1     :     0.000776
      f-1     :     0.000490
      f+2     :     0.000440
      f-2     :     0.000403
      f+3     :     0.000483
      f-3     :     0.000790
 10 H s       :     0.620263  s :     0.620263
      pz      :     0.017784  p :     0.047655
      px      :     0.013580
      py      :     0.016292
 11 H s       :     0.588029  s :     0.588029
      pz      :     0.010507  p :     0.055667
      px      :     0.028363
      py      :     0.016798
 12 O s       :     3.808045  s :     3.808045
      pz      :     1.543807  p :     4.834387
      px      :     1.496154
      py      :     1.794426
      dz2     :     0.015512  d :     0.049970
      dxz     :     0.006549
      dyz     :     0.008402
      dx2y2   :     0.007521
      dxy     :     0.011986
      f0      :     0.000610  f :     0.003975
      f+1     :     0.000719
      f-1     :     0.000529
      f+2     :     0.000415
      f-2     :     0.000419
      f+3     :     0.000436
      f-3     :     0.000846
 13 H s       :     0.576162  s :     0.576162
      pz      :     0.023631  p :     0.050629
      px      :     0.012623
      py      :     0.014374
 14 H s       :     0.635604  s :     0.635604
      pz      :     0.012791  p :     0.047796
      px      :     0.017500
      py      :     0.017505
 15 O s       :     3.798236  s :     3.798236
      pz      :     1.516723  p :     4.822018
      px      :     1.763615
      py      :     1.541680
      dz2     :     0.016314  d :     0.050904
      dxz     :     0.008043
      dyz     :     0.006554
      dx2y2   :     0.008105
      dxy     :     0.011889
      f0      :     0.000610  f :     0.003960
      f+1     :     0.000530
      f-1     :     0.000736
      f+2     :     0.000414
      f-2     :     0.000421
      f+3     :     0.000819
      f-3     :     0.000430
 16 H s       :     0.592338  s :     0.592338
      pz      :     0.018823  p :     0.045730
      px      :     0.014155
      py      :     0.012752
 17 H s       :     0.599478  s :     0.599478
      pz      :     0.011717  p :     0.045689
      px      :     0.015932
      py      :     0.018041


                     *******************************
                     * LOEWDIN POPULATION ANALYSIS *
                     *******************************

----------------------
LOEWDIN ATOMIC CHARGES
----------------------
   0 O :   -0.374308
   1 H :    0.151651
   2 H :    0.141452
   3 O :   -0.329692
   4 H :    0.159686
   5 H :    0.171835
   6 O :   -0.283163
   7 H :    0.171083
   8 H :    0.179733
   9 O :   -0.341139
  10 H :    0.159251
  11 H :    0.143545
  12 O :   -0.339091
  13 H :    0.153639
  14 H :    0.153927
  15 O :   -0.268191
  16 H :    0.175795
  17 H :    0.173987

-------------------------------
LOEWDIN REDUCED ORBITAL CHARGES
-------------------------------
  0 O s       :     3.465169  s :     3.465169
      pz      :     1.695907  p :     4.847500
      px      :     1.384814
      py      :     1.766779
      dz2     :     0.009766  d :     0.056828
      dxz     :     0.012221
      dyz     :     0.011290
      dx2y2   :     0.008965
      dxy     :     0.014584
      f0      :     0.000453  f :     0.004811
      f+1     :     0.000865
      f-1     :     0.000649
      f+2     :     0.000410
      f-2     :     0.001037
      f+3     :     0.000476
      f-3     :     0.000921
  1 H s       :     0.680571  s :     0.680571
      pz      :     0.066836  p :     0.167779
      px      :     0.046079
      py      :     0.054863
  2 H s       :     0.662358  s :     0.662358
      pz      :     0.035251  p :     0.196190
      px      :     0.111785
      py      :     0.049154
  3 O s       :     3.472173  s :     3.472173
      pz      :     1.496761  p :     4.792920
      px      :     1.522693
      py      :     1.773466
      dz2     :     0.021844  d :     0.059636
      dxz     :     0.007283
      dyz     :     0.007895
      dx2y2   :     0.007615
      dxy     :     0.015000
      f0      :     0.000916  f :     0.004963
      f+1     :     0.001019
      f-1     :     0.000719
      f+2     :     0.000390
      f-2     :     0.000417
      f+3     :     0.000376
      f-3     :     0.001128
  4 H s       :     0.678900  s :     0.678900
      pz      :     0.080777  p :     0.161414
      px      :     0.036489
      py      :     0.044149
  5 H s       :     0.668198  s :     0.668198
      pz      :     0.030415  p :     0.159967
      px      :     0.073291
      py      :     0.056261
  6 O s       :     3.465911  s :     3.465911
      pz      :     1.538837  p :     4.752358
      px      :     1.760856
      py      :     1.452665
      dz2     :     0.020869  d :     0.060018
      dxz     :     0.007019
      dyz     :     0.009295
      dx2y2   :     0.010957
      dxy     :     0.011878
      f0      :     0.000772  f :     0.004877
      f+1     :     0.000600
      f-1     :     0.001193
      f+2     :     0.000415
      f-2     :     0.000415
      f+3     :     0.001026
      f-3     :     0.000456
  7 H s       :     0.667116  s :     0.667116
      pz      :     0.081267  p :     0.161801
      px      :     0.044364
      py      :     0.036170
  8 H s       :     0.663656  s :     0.663656
      pz      :     0.030300  p :     0.156611
      px      :     0.050554
      py      :     0.075757
  9 O s       :     3.462126  s :     3.462126
      pz      :     1.511144  p :     4.816044
      px      :     1.478520
      py      :     1.826380
      dz2     :     0.020423  d :     0.058123
      dxz     :     0.009466
      dyz     :     0.007262
      dx2y2   :     0.009375
      dxy     :     0.011595
      f0      :     0.000824  f :     0.004846
      f+1     :     0.001192
      f-1     :     0.000576
      f+2     :     0.000420
      f-2     :     0.000416
      f+3     :     0.000445
      f-3     :     0.000973
 10 H s       :     0.678329  s :     0.678329
      pz      :     0.079501  p :     0.162420
      px      :     0.037642
      py      :     0.045276
 11 H s       :     0.667237  s :     0.667237
      pz      :     0.030084  p :     0.189219
      px      :     0.105130
      py      :     0.054005
 12 O s       :     3.465115  s :     3.465115
      pz      :     1.529395  p :     4.810378
      px      :     1.509668
      py      :     1.771314
      dz2     :     0.020477  d :     0.058690
      dxz     :     0.007029
      dyz     :     0.007733
      dx2y2   :     0.007828
      dxy     :     0.015623
      f0      :     0.000855  f :     0.004908
      f+1     :     0.000992
      f-1     :     0.000714
      f+2     :     0.000390
      f-2     :     0.000416
      f+3     :     0.000375
      f-3     :     0.001167
 13 H s       :     0.673004  s :     0.673004
      pz      :     0.093516  p :     0.173357
      px      :     0.036648
      py      :     0.043193
 14 H s       :     0.684771  s :     0.684771
      pz      :     0.032821  p :     0.161302
      px      :     0.071766
      py      :     0.056715
 15 O s       :     3.456816  s :     3.456816
      pz      :     1.513100  p :     4.745664
      px      :     1.708343
      py      :     1.524221
      dz2     :     0.021796  d :     0.060707
      dxz     :     0.007511
      dyz     :     0.007128
      dx2y2   :     0.009390
      dxy     :     0.014881
      f0      :     0.000872  f :     0.005004
      f+1     :     0.000746
      f-1     :     0.001017
      f+2     :     0.000391
      f-2     :     0.000421
      f+3     :     0.001147
      f-3     :     0.000409
 16 H s       :     0.662602  s :     0.662602
      pz      :     0.082197  p :     0.161603
      px      :     0.043041
      py      :     0.036364
 17 H s       :     0.665460  s :     0.665460
      pz      :     0.030891  p :     0.160553
      px      :     0.056523
      py      :     0.073139


                      *****************************
                      * MAYER POPULATION ANALYSIS *
                      *****************************

  NA   - Mulliken gross atomic population
  ZA   - Total nuclear charge
  QA   - Mulliken gross atomic charge
  VA   - Mayer's total valence
  BVA  - Mayer's bonded valence
  FA   - Mayer's free valence

  ATOM       NA         ZA         QA         VA         BVA        FA
  0 O      8.7370     8.0000    -0.7370     2.0189     1.6320     0.3868
  1 H      0.6691     1.0000     0.3309     0.9106     0.8632     0.0474
  2 H      0.6350     1.0000     0.3650     0.9140     0.8688     0.0453
  3 O      8.6800     8.0000    -0.6800     2.0919     1.7110     0.3809
  4 H      0.6712     1.0000     0.3288     0.9130     0.8645     0.0484
  5 H      0.6469     1.0000     0.3531     0.8990     0.8528     0.0462
  6 O      8.6766     8.0000    -0.6766     2.1225     1.7399     0.3826
  7 H      0.6444     1.0000     0.3556     0.8942     0.8478     0.0464
  8 H      0.6385     1.0000     0.3615     0.8971     0.8506     0.0465
  9 O      8.7248     8.0000    -0.7248     2.0387     1.6517     0.3870
 10 H      0.6679     1.0000     0.3321     0.9116     0.8632     0.0484
 11 H      0.6437     1.0000     0.3563     0.9304     0.8847     0.0457
 12 O      8.6964     8.0000    -0.6964     2.0812     1.6984     0.3828
 13 H      0.6268     1.0000     0.3732     0.8994     0.8557     0.0437
 14 H      0.6834     1.0000     0.3166     0.9244     0.8747     0.0497
 15 O      8.6751     8.0000    -0.6751     2.1142     1.7346     0.3797
 16 H      0.6381     1.0000     0.3619     0.8898     0.8444     0.0454
 17 H      0.6452     1.0000     0.3548     0.8965     0.8503     0.0462

  Mayer bond orders larger than 0.100000
B(  0-O ,  1-H ) :   0.8574 B(  0-O ,  2-H ) :   0.7858 B(  3-O ,  4-H ) :   0.8559 
B(  3-O ,  5-H ) :   0.8389 B(  6-O ,  7-H ) :   0.8370 B(  6-O ,  8-H ) :   0.8267 
B(  9-O , 10-H ) :   0.8524 B(  9-O , 11-H ) :   0.7758 B( 12-O , 13-H ) :   0.8161 
B( 12-O , 14-H ) :   0.8615 B( 15-O , 16-H ) :   0.8337 B( 15-O , 17-H ) :   0.8377 



----------------------------------
MP2 DERIVATIVE INTEGRAL GENERATION
----------------------------------


Input Wavefunction Amplitudes       ... 12h2o.su.etal.mol1,3,4,6,8,9-orca.engrad-mp2.def2tzvp.frozencore.mp2tsaa.tmp
Input Correlated Electron Density   ... 12h2o.su.etal.mol1,3,4,6,8,9-orca.engrad-mp2.def2tzvp.frozencore.pmp2re
Input Energy Weighted Density       ... 12h2o.su.etal.mol1,3,4,6,8,9-orca.engrad-mp2.def2tzvp.frozencore.wmp2.tmp
Input SCF Electron Density          ... 12h2o.su.etal.mol1,3,4,6,8,9-orca.engrad-mp2.def2tzvp.frozencore.scfp

One-Electron Terms    ...
                        ... One-Electron Terms done
Prescreening matrices              ... done

Batch handling in the gradient evaluation:
Memory available                      ... 8000.0 MB
Memory per occupied orbital in Q2     ...   12.2 MB
Memory per occupied orbital in Q3     ...    0.1 MB
Total memory requirement per |i>      ...   12.3 MB
Max. Number of orbitals possible      ...    651
Number of orbitals treated per batch  ...     24
Number of batches to be done          ...      1
Batch   0: i=    6 ...    29

---------------------------------------
MP2 TOTAL ENERGY:     -457.907387798 Eh
---------------------------------------

The final MP2 gradient
  0:  -0.01125340   0.00401506   0.00248759
  1:  -0.00151973  -0.00002874   0.00046550
  2:   0.02058552  -0.00630917  -0.00214501
  3:  -0.00664769   0.00411883  -0.01035503
  4:  -0.00126279   0.00078641   0.00929039
  5:   0.00684516  -0.00602825   0.00009581
  6:   0.00503663   0.01438871   0.01204643
  7:   0.00218007   0.00119489  -0.00671984
  8:  -0.00377108  -0.01601614  -0.00440881
  9:   0.00141900  -0.00213917  -0.01252912
 10:   0.00092251  -0.00082202   0.01119854
 11:  -0.00448883   0.00256871  -0.00277938
 12:   0.01003357  -0.00699153  -0.00062735
 13:   0.00075094   0.00300617   0.00163016
 14:  -0.01029497   0.00630245   0.00054824
 15:  -0.01203365  -0.00565805   0.00842275
 16:  -0.00055062  -0.00073420  -0.00611163
 17:   0.00404934   0.00834606  -0.00050924

-----------------------------------
NORM OF THE MP2 GRADIENT:  0.051810
-----------------------------------

-------------------------   --------------------
FINAL SINGLE POINT ENERGY      -457.907387797892
-------------------------   --------------------


                            ***************************************
                            *     ORCA property calculations      *
                            ***************************************

                                    ---------------------
                                    Active property flags
                                    ---------------------
   (+) Dipole Moment


------------------------------------------------------------------------------
                       ORCA ELECTRIC PROPERTIES CALCULATION
------------------------------------------------------------------------------

Dipole Moment Calculation                       ... on
Quadrupole Moment Calculation                   ... off
Polarizability Calculation                      ... off
GBWName                                         ... 12h2o.su.etal.mol1,3,4,6,8,9-orca.engrad-mp2.def2tzvp.frozencore.gbw
Electron density file                           ... 12h2o.su.etal.mol1,3,4,6,8,9-orca.engrad-mp2.def2tzvp.frozencore.scfp
The origin for moment calculation is the CENTER OF MASS  = (-0.063900, -0.021190 -0.012373)

-------------
DIPOLE MOMENT
-------------
                                X             Y             Z
Electronic contribution:      0.06934      -0.00891      -0.03060
Nuclear contribution   :     -0.03370      -0.22463       1.31870
                        -----------------------------------------
Total Dipole Moment    :      0.03564      -0.23354       1.28810
                        -----------------------------------------
Magnitude (a.u.)       :      1.30958
Magnitude (Debye)      :      3.32869



--------------------
Rotational spectrum 
--------------------
 
Rotational constants in cm-1:     0.047183     0.022565     0.019073 
Rotational constants in MHz :  1414.518473   676.467248   571.779268 

 Dipole components along the rotational axes: 
x,y,z [a.u.] :     1.276857     0.279613     0.080354 
x,y,z [Debye]:     3.245512     0.710720     0.204243 

 

                         *** MP2 UNRELAXED DENSITY ***

------------------------------------------------------------------------------
                       ORCA ELECTRIC PROPERTIES CALCULATION
------------------------------------------------------------------------------

Dipole Moment Calculation                       ... on
Quadrupole Moment Calculation                   ... off
Polarizability Calculation                      ... off
GBWName                                         ... 12h2o.su.etal.mol1,3,4,6,8,9-orca.engrad-mp2.def2tzvp.frozencore.gbw
Electron density file                           ... 12h2o.su.etal.mol1,3,4,6,8,9-orca.engrad-mp2.def2tzvp.frozencore.pmp2ur
The origin for moment calculation is the CENTER OF MASS  = (-0.063900, -0.021190 -0.012373)

-------------
DIPOLE MOMENT
-------------
                                X             Y             Z
Electronic contribution:      0.06940      -0.00720      -0.04223
Nuclear contribution   :     -0.03370      -0.22463       1.31870
                        -----------------------------------------
Total Dipole Moment    :      0.03569      -0.23183       1.27647
                        -----------------------------------------
Magnitude (a.u.)       :      1.29784
Magnitude (Debye)      :      3.29884



--------------------
Rotational spectrum 
--------------------
 
Rotational constants in cm-1:     0.047183     0.022565     0.019073 
Rotational constants in MHz :  1414.518473   676.467248   571.779268 

 Dipole components along the rotational axes: 
x,y,z [a.u.] :     1.265383     0.277356     0.079152 
x,y,z [Debye]:     3.216348     0.704982     0.201188 

 

                           *** MP2 RELAXED DENSITY ***

------------------------------------------------------------------------------
                       ORCA ELECTRIC PROPERTIES CALCULATION
------------------------------------------------------------------------------

Dipole Moment Calculation                       ... on
Quadrupole Moment Calculation                   ... off
Polarizability Calculation                      ... off
GBWName                                         ... 12h2o.su.etal.mol1,3,4,6,8,9-orca.engrad-mp2.def2tzvp.frozencore.gbw
Electron density file                           ... 12h2o.su.etal.mol1,3,4,6,8,9-orca.engrad-mp2.def2tzvp.frozencore.pmp2re
The origin for moment calculation is the CENTER OF MASS  = (-0.063900, -0.021190 -0.012373)

-------------
DIPOLE MOMENT
-------------
                                X             Y             Z
Electronic contribution:      0.05886      -0.00692      -0.05161
Nuclear contribution   :     -0.03370      -0.22463       1.31870
                        -----------------------------------------
Total Dipole Moment    :      0.02515      -0.23155       1.26709
                        -----------------------------------------
Magnitude (a.u.)       :      1.28832
Magnitude (Debye)      :      3.27464



--------------------
Rotational spectrum 
--------------------
 
Rotational constants in cm-1:     0.047183     0.022565     0.019073 
Rotational constants in MHz :  1414.518473   676.467248   571.779268 

 Dipole components along the rotational axes: 
x,y,z [a.u.] :     1.258155     0.265281     0.080193 
x,y,z [Debye]:     3.197976     0.674290     0.203836 

 

Timings for individual modules:

Sum of individual times         ...       51.058 sec (=   0.851 min)
GTO integral calculation        ...        0.965 sec (=   0.016 min)   1.9 %
SCF iterations                  ...        9.985 sec (=   0.166 min)  19.6 %
MP2 module                      ...       40.109 sec (=   0.668 min)  78.6 %
                             ****ORCA TERMINATED NORMALLY****
TOTAL RUN TIME: 0 days 0 hours 0 minutes 52 seconds 14 msec
