
                                 *****************
                                 * O   R   C   A *
                                 *****************

           --- An Ab Initio, DFT and Semiempirical electronic structure package ---

                  #######################################################
                  #                        -***-                        #
                  #          Department of theory and spectroscopy      #
                  #               Directorship: Frank Neese             #
                  #        Max Planck Institute fuer Kohlenforschung    #
                  #                Kaiser Wilhelm Platz 1               #
                  #                 D-45470 Muelheim/Ruhr               #
                  #                      Germany                        #
                  #                                                     #
                  #                  All rights reserved                #
                  #                        -***-                        #
                  #######################################################


                         Program Version 4.2.0 -  RELEASE  -


 With contributions from (in alphabetic order):
   Daniel Aravena         : Magnetic Suceptibility
   Michael Atanasov       : Ab Initio Ligand Field Theory (pilot matlab implementation)
   Alexander A. Auer      : GIAO ZORA, VPT2
   Ute Becker             : Parallelization
   Giovanni Bistoni       : ED, misc. LED, open-shell LED, HFLED
   Martin Brehm           : Molecular dynamics
   Dmytro Bykov           : SCF Hessian
   Vijay G. Chilkuri      : MRCI spin determinant printing, contributions to CSF-ICE
   Dipayan Datta          : RHF DLPNO-CCSD density
   Achintya Kumar Dutta   : EOM-CC, STEOM-CC
   Dmitry Ganyushin       : Spin-Orbit,Spin-Spin,Magnetic field MRCI
   Miquel Garcia          : C-PCM Hessian, Gaussian charge scheme
   Yang Guo               : DLPNO-NEVPT2, CIM, IAO-localization
   Andreas Hansen         : Spin unrestricted coupled pair/coupled cluster methods
   Benjamin Helmich-Paris : CASSCF linear response (MC-RPA)
   Lee Huntington         : MR-EOM, pCC
   Robert Izsak           : Overlap fitted RIJCOSX, COSX-SCS-MP3, EOM
   Christian Kollmar      : KDIIS, OOCD, Brueckner-CCSD(T), CCSD density
   Simone Kossmann        : Meta GGA functionals, TD-DFT gradient, OOMP2, MP2 Hessian
   Martin Krupicka        : AUTO-CI
   Lucas Lang             : DCDCAS
   Dagmar Lenk            : GEPOL surface, SMD
   Dimitrios Liakos       : Extrapolation schemes; Compound Job, initial MDCI parallelization
   Dimitrios Manganas     : Further ROCIS development; embedding schemes
   Dimitrios Pantazis     : SARC Basis sets
   Taras Petrenko         : DFT Hessian,TD-DFT gradient, ASA, ECA, R-Raman, ABS, FL, XAS/XES, NRVS
   Peter Pinski           : DLPNO-MP2, DLPNO-MP2 Gradient
   Christoph Reimann      : Effective Core Potentials
   Marius Retegan         : Local ZFS, SOC
   Christoph Riplinger    : Optimizer, TS searches, QM/MM, DLPNO-CCSD(T), (RO)-DLPNO pert. Triples
   Tobias Risthaus        : Range-separated hybrids, TD-DFT gradient, RPA, STAB
   Michael Roemelt        : Original ROCIS implementation
   Masaaki Saitow         : Open-shell DLPNO-CCSD energy and density
   Barbara Sandhoefer     : DKH picture change effects
   Avijit Sen             : IP-ROCIS
   Kantharuban Sivalingam : CASSCF convergence, NEVPT2, FIC-MRCI
   Bernardo de Souza      : ESD, SOC TD-DFT
   Georgi Stoychev        : AutoAux, RI-MP2 NMR
   Willem Van den Heuvel  : Paramagnetic NMR
   Boris Wezisla          : Elementary symmetry handling
   Frank Wennmohs         : Technical directorship


 We gratefully acknowledge several colleagues who have allowed us to
 interface, adapt or use parts of their codes:
   Stefan Grimme, W. Hujo, H. Kruse,             : VdW corrections, initial TS optimization,
                  C. Bannwarth                     DFT functionals, gCP, sTDA/sTD-DF
   Ed Valeev, F. Pavosevic, A. Kumar             : LibInt (2-el integral package), F12 methods
   Garnet Chan, S. Sharma, J. Yang, R. Olivares  : DMRG
   Ulf Ekstrom                                   : XCFun DFT Library
   Mihaly Kallay                                 : mrcc  (arbitrary order and MRCC methods)
   Andreas Klamt, Michael Diedenhofen            : otool_cosmo (COSMO solvation model)
   Jiri Pittner, Ondrej Demel                    : Mk-CCSD
   Frank Weinhold                                : gennbo (NPA and NBO analysis)
   Christopher J. Cramer and Donald G. Truhlar   : smd solvation model
   Lars Goerigk                                  : TD-DFT with DH, B97 family of functionals
   V. Asgeirsson, H. Jonsson                     : NEB implementation
   FAccTs GmbH                                   : IRC, NEB, NEB-TS, Multilevel, MM, QM/MM, CI optimization
   S Lehtola, MJT Oliveira, MAL Marques          : LibXC Library


 Your calculation uses the libint2 library for the computation of 2-el integrals
 For citations please refer to: http://libint.valeyev.net

 Your ORCA version has been built with support for libXC version: 4.2.3
 For citations please refer to: https://tddft.org/programs/libxc/

 This ORCA versions uses:
   CBLAS   interface :  Fast vector & matrix operations
   LAPACKE interface :  Fast linear algebra routines
   SCALAPACK package :  Parallel linear algebra routines


----- Orbital basis set information -----
Your calculation utilizes the basis: def2-TZVP
   F. Weigend and R. Ahlrichs, Phys. Chem. Chem. Phys. 7, 3297 (2005).

================================================================================
                                        WARNINGS
                       Please study these warnings very carefully!
================================================================================


WARNING: The frozen-core approximation for MP2-gradient calculations is turned on by default.

INFO   : the flag for use of LIBINT has been found!

================================================================================
                                       INPUT FILE
================================================================================
NAME = 12h2o.su.etal.mol1,2,4,5,7,9,10,11-orca.engrad-mp2.def2tzvp.frozencore.inp
|  1> # 12h2o.su.etal.mol1,2,4,5,7,9,10,11
|  2> ! MP2 def2-TZVP EnGrad TightSCF
|  3> 
|  4> %pal
|  5>     nprocs 6
|  6> end
|  7> 
|  8> %maxcore 8000
|  9> 
| 10> %scf
| 11>     ConvForced true
| 12> end
| 13> 
| 14> *xyz 0 1
| 15> O  -1.794470000  -0.923410000   2.768350000
| 16> H  -2.338250000  -1.359750000   3.430940000
| 17> H  -0.879480000  -1.303000000   2.865760000
| 18> O   0.923410000  -1.794470000  -2.768350000
| 19> H   1.359750000  -2.338250000  -3.430940000
| 20> H   1.303000000  -0.879480000  -2.865760000
| 21> O  -0.885520000   1.737840000   0.052730000
| 22> H  -1.032320000   2.090180000  -0.841890000
| 23> H  -1.284090000   0.839590000   0.017130000
| 24> O   0.885520000  -1.737840000   0.052730000
| 25> H   1.284090000  -0.839590000   0.017130000
| 26> H   1.032320000  -2.090180000  -0.841890000
| 27> O  -1.737840000  -0.885520000  -0.052730000
| 28> H  -2.090180000  -1.032320000   0.841890000
| 29> H  -0.839590000  -1.284090000  -0.017130000
| 30> O   0.741530000  -1.752130000   2.896280000
| 31> H   0.920500000  -2.036450000   1.984040000
| 32> H   1.242140000  -0.921210000   2.984230000
| 33> O  -0.923410000   1.794470000  -2.768350000
| 34> H  -1.359750000   2.338250000  -3.430940000
| 35> H  -1.303000000   0.879480000  -2.865760000
| 36> O  -0.741530000   1.752130000   2.896280000
| 37> H  -0.920500000   2.036450000   1.984040000
| 38> H  -1.242140000   0.921210000   2.984230000
| 39> *
| 40> 
| 41>                          ****END OF INPUT****
================================================================================

                     *******************************
                     * Energy+Gradient Calculation *
                     *******************************

---------------------------------
CARTESIAN COORDINATES (ANGSTROEM)
---------------------------------
  O     -1.794470   -0.923410    2.768350
  H     -2.338250   -1.359750    3.430940
  H     -0.879480   -1.303000    2.865760
  O      0.923410   -1.794470   -2.768350
  H      1.359750   -2.338250   -3.430940
  H      1.303000   -0.879480   -2.865760
  O     -0.885520    1.737840    0.052730
  H     -1.032320    2.090180   -0.841890
  H     -1.284090    0.839590    0.017130
  O      0.885520   -1.737840    0.052730
  H      1.284090   -0.839590    0.017130
  H      1.032320   -2.090180   -0.841890
  O     -1.737840   -0.885520   -0.052730
  H     -2.090180   -1.032320    0.841890
  H     -0.839590   -1.284090   -0.017130
  O      0.741530   -1.752130    2.896280
  H      0.920500   -2.036450    1.984040
  H      1.242140   -0.921210    2.984230
  O     -0.923410    1.794470   -2.768350
  H     -1.359750    2.338250   -3.430940
  H     -1.303000    0.879480   -2.865760
  O     -0.741530    1.752130    2.896280
  H     -0.920500    2.036450    1.984040
  H     -1.242140    0.921210    2.984230

----------------------------
CARTESIAN COORDINATES (A.U.)
----------------------------
  NO LB      ZA    FRAG     MASS         X           Y           Z
   0 O     8.0000    0    15.999   -3.391057   -1.744992    5.231423
   1 H     1.0000    0     1.008   -4.418652   -2.569555    6.483537
   2 H     1.0000    0     1.008   -1.661976   -2.462313    5.415502
   3 O     8.0000    0    15.999    1.744992   -3.391057   -5.231423
   4 H     1.0000    0     1.008    2.569555   -4.418652   -6.483537
   5 H     1.0000    0     1.008    2.462313   -1.661976   -5.415502
   6 O     8.0000    0    15.999   -1.673390    3.284042    0.099645
   7 H     1.0000    0     1.008   -1.950802    3.949868   -1.590942
   8 H     1.0000    0     1.008   -2.426578    1.586595    0.032371
   9 O     8.0000    0    15.999    1.673390   -3.284042    0.099645
  10 H     1.0000    0     1.008    2.426578   -1.586595    0.032371
  11 H     1.0000    0     1.008    1.950802   -3.949868   -1.590942
  12 O     8.0000    0    15.999   -3.284042   -1.673390   -0.099645
  13 H     1.0000    0     1.008   -3.949868   -1.950802    1.590942
  14 H     1.0000    0     1.008   -1.586595   -2.426578   -0.032371
  15 O     8.0000    0    15.999    1.401289   -3.311046    5.473176
  16 H     1.0000    0     1.008    1.739493   -3.848333    3.749292
  17 H     1.0000    0     1.008    2.347304   -1.740835    5.639377
  18 O     8.0000    0    15.999   -1.744992    3.391057   -5.231423
  19 H     1.0000    0     1.008   -2.569555    4.418652   -6.483537
  20 H     1.0000    0     1.008   -2.462313    1.661976   -5.415502
  21 O     8.0000    0    15.999   -1.401289    3.311046    5.473176
  22 H     1.0000    0     1.008   -1.739493    3.848333    3.749292
  23 H     1.0000    0     1.008   -2.347304    1.740835    5.639377

--------------------------------
INTERNAL COORDINATES (ANGSTROEM)
--------------------------------
 O      0   0   0     0.000000000000     0.00000000     0.00000000
 H      1   0   0     0.961828878803     0.00000000     0.00000000
 H      1   2   0     0.995381322057   106.21731035     0.00000000
 O      3   1   2     5.935920367146   102.58474291   140.89009172
 H      4   3   1     0.961828878803   146.97742434   224.01286022
 H      4   3   1     0.995381322057    97.62005672    87.72090689
 O      1   2   3     3.909352075396   156.75189195   192.19368952
 H      7   1   2     0.972645187106   148.25827701   289.33301105
 H      7   1   2     0.983350632989    46.29716176   266.74328444
 O      4   3   1     2.821902722526    17.32744736   169.52589616
 H     10   4   3     0.983350632989    88.66470709   258.45499027
 H     10   4   3     0.972645187106    21.75017499   124.29821266
 O      9   7   1     1.785153773264   170.81379649   273.82543867
 H     13   9   7     0.972645187106   101.65007623   109.44492584
 H     13   9   7     0.983350632989    99.09581498     3.33484705
 O      3   1   2     1.682356278379   171.61043709   195.73896161
 H     16   3   1     0.972136791249   103.79460456   289.35412162
 H     16   3   1     0.974050112161   105.61118924    38.30604821
 O      8   7   1     1.952064016317   147.60984291   295.81747223
 H     19   8   7     0.961828878803   124.67322417   165.49513251
 H     19   8   7     0.995381322057   102.38931089    45.51897547
 O      7   1   2     2.847229166523    47.26764468    83.33509555
 H     22   7   1     0.972136791249    19.08819947   225.99629915
 H     22   7   1     0.974050112161    93.43428486   350.09257904

---------------------------
INTERNAL COORDINATES (A.U.)
---------------------------
 O      0   0   0     0.000000000000     0.00000000     0.00000000
 H      1   0   0     1.817593168635     0.00000000     0.00000000
 H      1   2   0     1.880998097508   106.21731035     0.00000000
 O      3   1   2    11.217263846671   102.58474291   140.89009172
 H      4   3   1     1.817593168635   146.97742434   224.01286022
 H      4   3   1     1.880998097508    97.62005672    87.72090689
 O      1   2   3     7.387604783574   156.75189195   192.19368952
 H      7   1   2     1.838033029106   148.25827701   289.33301105
 H      7   1   2     1.858263389967    46.29716176   266.74328444
 O      4   3   1     5.332623322141    17.32744736   169.52589616
 H     10   4   3     1.858263389967    88.66470709   258.45499027
 H     10   4   3     1.838033029106    21.75017499   124.29821266
 O      9   7   1     3.373451738406   170.81379649   273.82543867
 H     13   9   7     1.838033029106   101.65007623   109.44492584
 H     13   9   7     1.858263389967    99.09581498     3.33484705
 O      3   1   2     3.179192625819   171.61043709   195.73896161
 H     16   3   1     1.837072300170   103.79460456   289.35412162
 H     16   3   1     1.840687952699   105.61118924    38.30604821
 O      8   7   1     3.688866386722   147.60984291   295.81747223
 H     19   8   7     1.817593168635   124.67322417   165.49513251
 H     19   8   7     1.880998097508   102.38931089    45.51897547
 O      7   1   2     5.380483365242    47.26764468    83.33509555
 H     22   7   1     1.837072300170    19.08819947   225.99629915
 H     22   7   1     1.840687952699    93.43428486   350.09257904

---------------------
BASIS SET INFORMATION
---------------------
There are 2 groups of distinct atoms

 Group   1 Type O   : 11s6p2d1f contracted to 5s3p2d1f pattern {62111/411/11/1}
 Group   2 Type H   : 5s1p contracted to 3s1p pattern {311/1}

Atom   0O    basis set group =>   1
Atom   1H    basis set group =>   2
Atom   2H    basis set group =>   2
Atom   3O    basis set group =>   1
Atom   4H    basis set group =>   2
Atom   5H    basis set group =>   2
Atom   6O    basis set group =>   1
Atom   7H    basis set group =>   2
Atom   8H    basis set group =>   2
Atom   9O    basis set group =>   1
Atom  10H    basis set group =>   2
Atom  11H    basis set group =>   2
Atom  12O    basis set group =>   1
Atom  13H    basis set group =>   2
Atom  14H    basis set group =>   2
Atom  15O    basis set group =>   1
Atom  16H    basis set group =>   2
Atom  17H    basis set group =>   2
Atom  18O    basis set group =>   1
Atom  19H    basis set group =>   2
Atom  20H    basis set group =>   2
Atom  21O    basis set group =>   1
Atom  22H    basis set group =>   2
Atom  23H    basis set group =>   2


           ************************************************************
           *        Program running with 6 parallel MPI-processes     *
           *              working on a common directory               *
           ************************************************************
------------------------------------------------------------------------------
                           ORCA GTO INTEGRAL CALCULATION
------------------------------------------------------------------------------

                         BASIS SET STATISTICS AND STARTUP INFO

 # of primitive gaussian shells          ...  256
 # of primitive gaussian functions       ...  496
 # of contracted shells                  ...  152
 # of contracted basis functions         ...  344
 Highest angular momentum                ...    3
 Maximum contraction depth               ...    6
 Integral package used                   ... LIBINT
 Integral threshhold            Thresh   ...  2.500e-11
 Primitive cut-off              TCut     ...  2.500e-12


------------------------------ INTEGRAL EVALUATION ----------------------------


 * One electron integrals 
 Pre-screening matrix                    ... done
 Shell pair data                         ... done (   0.002 sec)



           ************************************************************
           *        Program running with 6 parallel MPI-processes     *
           *              working on a common directory               *
           ************************************************************
-------------------------------------------------------------------------------
                                 ORCA SCF
-------------------------------------------------------------------------------

------------
SCF SETTINGS
------------
Hamiltonian:
 Ab initio Hamiltonian  Method          .... Hartree-Fock(GTOs)


General Settings:
 Integral files         IntName         .... 12h2o.su.etal.mol1,2,4,5,7,9,10,11-orca.engrad-mp2.def2tzvp.frozencore
 Hartree-Fock type      HFTyp           .... RHF
 Total Charge           Charge          ....    0
 Multiplicity           Mult            ....    1
 Number of Electrons    NEL             ....   80
 Basis Dimension        Dim             ....  344
 Nuclear Repulsion      ENuc            ....    459.5959790795 Eh

Convergence Acceleration:
 DIIS                   CNVDIIS         .... on
   Start iteration      DIISMaxIt       ....    12
   Startup error        DIISStart       ....  0.200000
   # of expansion vecs  DIISMaxEq       ....     5
   Bias factor          DIISBfac        ....   1.050
   Max. coefficient     DIISMaxC        ....  10.000
 Newton-Raphson         CNVNR           .... off
 SOSCF                  CNVSOSCF        .... on
   Start iteration      SOSCFMaxIt      ....   150
   Startup grad/error   SOSCFStart      ....  0.003300
 Level Shifting         CNVShift        .... on
   Level shift para.    LevelShift      ....    0.2500
   Turn off err/grad.   ShiftErr        ....    0.0010
 Zerner damping         CNVZerner       .... off
 Static damping         CNVDamp         .... on
   Fraction old density DampFac         ....    0.7000
   Max. Damping (<1)    DampMax         ....    0.9800
   Min. Damping (>=0)   DampMin         ....    0.0000
   Turn off err/grad.   DampErr         ....    0.1000
 Fernandez-Rico         CNVRico         .... off

SCF Procedure:
 Maximum # iterations   MaxIter         ....   125
 SCF integral mode      SCFMode         .... Direct
   Integral package                     .... LIBINT
 Reset frequency        DirectResetFreq ....    20
 Integral Threshold     Thresh          ....  2.500e-11 Eh
 Primitive CutOff       TCut            ....  2.500e-12 Eh

Convergence Tolerance:
 Convergence Check Mode ConvCheckMode   .... Total+1el-Energy
 Convergence forced     ConvForced      .... 1
 Energy Change          TolE            ....  1.000e-08 Eh
 1-El. energy change                    ....  1.000e-05 Eh
 Orbital Gradient       TolG            ....  1.000e-05
 Orbital Rotation angle TolX            ....  1.000e-05
 DIIS Error             TolErr          ....  5.000e-07


Diagonalization of the overlap matrix:
Smallest eigenvalue                        ... 3.578e-03
Time for diagonalization                   ...    0.016 sec
Threshold for overlap eigenvalues          ... 1.000e-08
Number of eigenvalues below threshold      ... 0
Time for construction of square roots      ...    0.009 sec
Total time needed                          ...    0.025 sec

-------------------
DFT GRID GENERATION
-------------------

General Integration Accuracy     IntAcc      ...  4.340
Radial Grid Type                 RadialGrid  ... Gauss-Chebyshev
Angular Grid (max. acc.)         AngularGrid ... Lebedev-110
Angular grid pruning method      GridPruning ... 3 (G Style)
Weight generation scheme         WeightScheme... Becke
Basis function cutoff            BFCut       ...    1.0000e-11
Integration weight cutoff        WCut        ...    1.0000e-14
Grids for H and He will be reduced by one unit

# of grid points (after initial pruning)     ...  26432 (   0.0 sec)
# of grid points (after weights+screening)   ...  24630 (   0.0 sec)
nearest neighbour list constructed           ...    0.0 sec
Grid point re-assignment to atoms done       ...    0.0 sec
Grid point division into batches done        ...    0.0 sec
Reduced shell lists constructed in    0.1 sec

Total number of grid points                  ...    24630
Total number of batches                      ...      398
Average number of points per batch           ...       61
Average number of grid points per atom       ...     1026
Average number of shells per batch           ...    72.07 (47.42%)
Average number of basis functions per batch  ...   145.13 (42.19%)
Average number of large shells per batch     ...    48.34 (67.07%)
Average number of large basis fcns per batch ...    95.66 (65.91%)
Maximum spatial batch extension              ...  13.20, 16.09, 13.04 au
Average spatial batch extension              ...   0.49,  0.54,  0.47 au

Time for grid setup =    0.092 sec

------------------------------
INITIAL GUESS: MODEL POTENTIAL
------------------------------
Loading Hartree-Fock densities                     ... done
Calculating cut-offs                               ... done
Setting up the integral package                    ... done
Initializing the effective Hamiltonian             ... done
Starting the Coulomb interaction                   ... done (   0.0 sec)
Reading the grid                                   ... done
Mapping shells                                     ... done
Starting the XC term evaluation                    ... done (   0.0 sec)
Transforming the Hamiltonian                       ... done (   0.0 sec)
Diagonalizing the Hamiltonian                      ... done (   0.0 sec)
Back transforming the eigenvectors                 ... done (   0.0 sec)
Now organizing SCF variables                       ... done
                      ------------------
                      INITIAL GUESS DONE (   0.3 sec)
                      ------------------
--------------
SCF ITERATIONS
--------------
ITER       Energy         Delta-E        Max-DP      RMS-DP      [F,P]     Damp
               ***  Starting incremental Fock matrix formation  ***
  0   -607.8224175998   0.000000000000 0.04391950  0.00082959  0.3399292 0.7000
  1   -608.0904358014  -0.268018201621 0.02919738  0.00057578  0.2165230 0.7000
                               ***Turning on DIIS***
  2   -608.2329770798  -0.142541278408 0.01623010  0.00032362  0.1634750 0.7000
  3   -609.5603395478  -1.327362467962 0.00753995  0.00015049  0.1216971 0.7000
  4   -609.2942525176   0.266087030184 0.01690586  0.00035070  0.0861209 0.0000
  5   -608.5605349883   0.733717529312 0.00229463  0.00005662  0.0052847 0.0000
                      *** Initiating the SOSCF procedure ***
                           *** Shutting down DIIS ***
                      *** Re-Reading the Fockian *** 
                      *** Removing any level shift *** 
ITER      Energy       Delta-E        Grad      Rot      Max-DP    RMS-DP
  6   -608.52154429   0.0389906967  0.000798  0.000798  0.001518  0.000035
               *** Restarting incremental Fock matrix formation ***
  7   -608.50911968   0.0124246091  0.000315  0.000433  0.000700  0.000015
  8   -608.50913181  -0.0000121259  0.000124  0.000315  0.000550  0.000013
  9   -608.50913471  -0.0000029027  0.000059  0.000039  0.000097  0.000002
 10   -608.50913495  -0.0000002397  0.000011  0.000010  0.000019  0.000000
                  ***Gradient check signals convergence***
              ***Rediagonalizing the Fockian in SOSCF/NRSCF***

               *****************************************************
               *                     SUCCESS                       *
               *           SCF CONVERGED AFTER  11 CYCLES          *
               *****************************************************


----------------
TOTAL SCF ENERGY
----------------

Total Energy       :         -608.50913496 Eh          -16558.37537 eV

Components:
Nuclear Repulsion  :          459.59597908 Eh           12506.24240 eV
Electronic Energy  :        -1068.10511404 Eh          -29064.61777 eV
One Electron Energy:        -1757.17364956 Eh          -47815.12588 eV
Two Electron Energy:          689.06853553 Eh           18750.50811 eV

Virial components:
Potential Energy   :        -1216.22599031 Eh          -33095.19172 eV
Kinetic Energy     :          607.71685535 Eh           16536.81635 eV
Virial Ratio       :            2.00130370


---------------
SCF CONVERGENCE
---------------

  Last Energy change         ...   -5.4968e-09  Tolerance :   1.0000e-08
  Last MAX-Density change    ...    5.6796e-06  Tolerance :   1.0000e-07
  Last RMS-Density change    ...    1.2431e-07  Tolerance :   5.0000e-09
  Last Orbital Gradient      ...    2.4527e-06  Tolerance :   1.0000e-05
  Last Orbital Rotation      ...    2.4735e-06  Tolerance :   1.0000e-05

             **** THE GBW FILE WAS UPDATED (12h2o.su.etal.mol1,2,4,5,7,9,10,11-orca.engrad-mp2.def2tzvp.frozencore.gbw) ****
             **** DENSITY FILE WAS UPDATED (12h2o.su.etal.mol1,2,4,5,7,9,10,11-orca.engrad-mp2.def2tzvp.frozencore.scfp) ****
             **** ENERGY FILE WAS UPDATED (12h2o.su.etal.mol1,2,4,5,7,9,10,11-orca.engrad-mp2.def2tzvp.frozencore.en.tmp) ****
             **** THE GBW FILE WAS UPDATED (12h2o.su.etal.mol1,2,4,5,7,9,10,11-orca.engrad-mp2.def2tzvp.frozencore.gbw) ****
             **** DENSITY FILE WAS UPDATED (12h2o.su.etal.mol1,2,4,5,7,9,10,11-orca.engrad-mp2.def2tzvp.frozencore.scfp) ****
----------------
ORBITAL ENERGIES
----------------

  NO   OCC          E(Eh)            E(eV) 
   0   2.0000     -20.612671      -560.8993 
   1   2.0000     -20.598021      -560.5006 
   2   2.0000     -20.586559      -560.1887 
   3   2.0000     -20.575150      -559.8783 
   4   2.0000     -20.550681      -559.2125 
   5   2.0000     -20.529306      -558.6308 
   6   2.0000     -20.506524      -558.0109 
   7   2.0000     -20.484280      -557.4056 
   8   2.0000      -1.393604       -37.9219 
   9   2.0000      -1.381908       -37.6036 
  10   2.0000      -1.364448       -37.1285 
  11   2.0000      -1.364328       -37.1253 
  12   2.0000      -1.336825       -36.3769 
  13   2.0000      -1.318223       -35.8707 
  14   2.0000      -1.292471       -35.1699 
  15   2.0000      -1.268757       -34.5246 
  16   2.0000      -0.758773       -20.6473 
  17   2.0000      -0.747466       -20.3396 
  18   2.0000      -0.731105       -19.8944 
  19   2.0000      -0.723245       -19.6805 
  20   2.0000      -0.717600       -19.5269 
  21   2.0000      -0.694748       -18.9051 
  22   2.0000      -0.673676       -18.3317 
  23   2.0000      -0.646738       -17.5986 
  24   2.0000      -0.644007       -17.5243 
  25   2.0000      -0.623361       -16.9625 
  26   2.0000      -0.603453       -16.4208 
  27   2.0000      -0.599791       -16.3211 
  28   2.0000      -0.590018       -16.0552 
  29   2.0000      -0.562407       -15.3039 
  30   2.0000      -0.556881       -15.1535 
  31   2.0000      -0.551955       -15.0195 
  32   2.0000      -0.530203       -14.4276 
  33   2.0000      -0.526660       -14.3312 
  34   2.0000      -0.514350       -13.9962 
  35   2.0000      -0.502905       -13.6847 
  36   2.0000      -0.489034       -13.3073 
  37   2.0000      -0.473842       -12.8939 
  38   2.0000      -0.457929       -12.4609 
  39   2.0000      -0.434538       -11.8244 
  40   0.0000       0.081650         2.2218 
  41   0.0000       0.123903         3.3716 
  42   0.0000       0.127296         3.4639 
  43   0.0000       0.155423         4.2293 
  44   0.0000       0.172698         4.6994 
  45   0.0000       0.195095         5.3088 
  46   0.0000       0.199225         5.4212 
  47   0.0000       0.222051         6.0423 
  48   0.0000       0.237741         6.4693 
  49   0.0000       0.269285         7.3276 
  50   0.0000       0.273288         7.4366 
  51   0.0000       0.292411         7.9569 
  52   0.0000       0.329683         8.9711 
  53   0.0000       0.343232         9.3398 
  54   0.0000       0.357403         9.7254 
  55   0.0000       0.368177        10.0186 
  56   0.0000       0.429166        11.6782 
  57   0.0000       0.446124        12.1397 
  58   0.0000       0.495166        13.4742 
  59   0.0000       0.503499        13.7009 
  60   0.0000       0.520865        14.1735 
  61   0.0000       0.525246        14.2927 
  62   0.0000       0.532003        14.4765 
  63   0.0000       0.539408        14.6780 
  64   0.0000       0.544292        14.8109 
  65   0.0000       0.546938        14.8829 
  66   0.0000       0.570784        15.5318 
  67   0.0000       0.572216        15.5708 
  68   0.0000       0.583436        15.8761 
  69   0.0000       0.592660        16.1271 
  70   0.0000       0.600157        16.3311 
  71   0.0000       0.613285        16.6883 
  72   0.0000       0.626514        17.0483 
  73   0.0000       0.633260        17.2319 
  74   0.0000       0.645551        17.5663 
  75   0.0000       0.655769        17.8444 
  76   0.0000       0.661958        18.0128 
  77   0.0000       0.684171        18.6172 
  78   0.0000       0.697829        18.9889 
  79   0.0000       0.717681        19.5291 
  80   0.0000       0.723790        19.6953 
  81   0.0000       0.735043        20.0015 
  82   0.0000       0.736980        20.0542 
  83   0.0000       0.760853        20.7039 
  84   0.0000       0.763629        20.7794 
  85   0.0000       0.768699        20.9174 
  86   0.0000       0.788030        21.4434 
  87   0.0000       0.790878        21.5209 
  88   0.0000       0.808919        22.0118 
  89   0.0000       0.827976        22.5304 
  90   0.0000       0.834961        22.7204 
  91   0.0000       0.843367        22.9492 
  92   0.0000       0.859445        23.3867 
  93   0.0000       0.884842        24.0778 
  94   0.0000       0.923996        25.1432 
  95   0.0000       0.944609        25.7041 
  96   0.0000       0.951439        25.8900 
  97   0.0000       0.968381        26.3510 
  98   0.0000       1.016209        27.6525 
  99   0.0000       1.020249        27.7624 
 100   0.0000       1.063133        28.9293 
 101   0.0000       1.088453        29.6183 
 102   0.0000       1.108159        30.1545 
 103   0.0000       1.198700        32.6183 
 104   0.0000       1.348683        36.6995 
 105   0.0000       1.363777        37.1103 
 106   0.0000       1.389463        37.8092 
 107   0.0000       1.389967        37.8229 
 108   0.0000       1.399641        38.0862 
 109   0.0000       1.412439        38.4344 
 110   0.0000       1.425854        38.7995 
 111   0.0000       1.429043        38.8862 
 112   0.0000       1.437640        39.1202 
 113   0.0000       1.450827        39.4790 
 114   0.0000       1.466968        39.9182 
 115   0.0000       1.483342        40.3638 
 116   0.0000       1.498488        40.7759 
 117   0.0000       1.522759        41.4364 
 118   0.0000       1.537007        41.8241 
 119   0.0000       1.544390        42.0250 
 120   0.0000       1.572518        42.7904 
 121   0.0000       1.579436        42.9786 
 122   0.0000       1.594218        43.3809 
 123   0.0000       1.615548        43.9613 
 124   0.0000       1.627227        44.2791 
 125   0.0000       1.630538        44.3692 
 126   0.0000       1.666652        45.3519 
 127   0.0000       1.705797        46.4171 
 128   0.0000       1.787755        48.6473 
 129   0.0000       1.815999        49.4159 
 130   0.0000       1.833756        49.8990 
 131   0.0000       1.854401        50.4608 
 132   0.0000       1.856045        50.5056 
 133   0.0000       1.868950        50.8567 
 134   0.0000       1.907276        51.8996 
 135   0.0000       1.928834        52.4863 
 136   0.0000       1.938435        52.7475 
 137   0.0000       1.950930        53.0875 
 138   0.0000       1.970868        53.6300 
 139   0.0000       1.979058        53.8529 
 140   0.0000       1.990655        54.1685 
 141   0.0000       2.011440        54.7341 
 142   0.0000       2.028329        55.1936 
 143   0.0000       2.032791        55.3151 
 144   0.0000       2.050654        55.8011 
 145   0.0000       2.071953        56.3807 
 146   0.0000       2.104635        57.2700 
 147   0.0000       2.122181        57.7475 
 148   0.0000       2.140500        58.2460 
 149   0.0000       2.182134        59.3789 
 150   0.0000       2.204966        60.0002 
 151   0.0000       2.230956        60.7074 
 152   0.0000       2.258010        61.4436 
 153   0.0000       2.273079        61.8536 
 154   0.0000       2.281567        62.0846 
 155   0.0000       2.294067        62.4247 
 156   0.0000       2.306041        62.7506 
 157   0.0000       2.314028        62.9679 
 158   0.0000       2.330169        63.4071 
 159   0.0000       2.336847        63.5888 
 160   0.0000       2.338737        63.6403 
 161   0.0000       2.351498        63.9875 
 162   0.0000       2.361560        64.2613 
 163   0.0000       2.387845        64.9766 
 164   0.0000       2.396908        65.2232 
 165   0.0000       2.407296        65.5059 
 166   0.0000       2.423890        65.9574 
 167   0.0000       2.455566        66.8193 
 168   0.0000       2.469615        67.2016 
 169   0.0000       2.490933        67.7817 
 170   0.0000       2.502638        68.1003 
 171   0.0000       2.524387        68.6921 
 172   0.0000       2.535504        68.9946 
 173   0.0000       2.566382        69.8348 
 174   0.0000       2.567356        69.8613 
 175   0.0000       2.584965        70.3405 
 176   0.0000       2.587201        70.4013 
 177   0.0000       2.611101        71.0517 
 178   0.0000       2.627432        71.4961 
 179   0.0000       2.645079        71.9763 
 180   0.0000       2.652172        72.1693 
 181   0.0000       2.667499        72.5863 
 182   0.0000       2.690410        73.2098 
 183   0.0000       2.698867        73.4399 
 184   0.0000       2.702201        73.5306 
 185   0.0000       2.715871        73.9026 
 186   0.0000       2.724240        74.1303 
 187   0.0000       2.741304        74.5947 
 188   0.0000       2.769727        75.3681 
 189   0.0000       2.784472        75.7693 
 190   0.0000       2.809448        76.4490 
 191   0.0000       2.842960        77.3609 
 192   0.0000       2.865670        77.9788 
 193   0.0000       2.906613        79.0930 
 194   0.0000       2.911139        79.2161 
 195   0.0000       2.944281        80.1180 
 196   0.0000       2.951071        80.3027 
 197   0.0000       2.974408        80.9377 
 198   0.0000       2.987880        81.3043 
 199   0.0000       2.997689        81.5713 
 200   0.0000       3.018711        82.1433 
 201   0.0000       3.028497        82.4096 
 202   0.0000       3.033875        82.5559 
 203   0.0000       3.043333        82.8133 
 204   0.0000       3.057133        83.1888 
 205   0.0000       3.073620        83.6374 
 206   0.0000       3.090624        84.1002 
 207   0.0000       3.105638        84.5087 
 208   0.0000       3.132058        85.2276 
 209   0.0000       3.145384        85.5903 
 210   0.0000       3.163905        86.0942 
 211   0.0000       3.203671        87.1763 
 212   0.0000       3.238902        88.1350 
 213   0.0000       3.247399        88.3662 
 214   0.0000       3.252918        88.5164 
 215   0.0000       3.261523        88.7506 
 216   0.0000       3.297326        89.7248 
 217   0.0000       3.323893        90.4477 
 218   0.0000       3.368824        91.6704 
 219   0.0000       3.371833        91.7522 
 220   0.0000       3.423463        93.1572 
 221   0.0000       3.454760        94.0088 
 222   0.0000       3.520603        95.8005 
 223   0.0000       3.544815        96.4593 
 224   0.0000       3.951889       107.5364 
 225   0.0000       3.980491       108.3147 
 226   0.0000       4.038120       109.8828 
 227   0.0000       4.058616       110.4405 
 228   0.0000       4.128589       112.3446 
 229   0.0000       4.139064       112.6297 
 230   0.0000       4.143810       112.7588 
 231   0.0000       4.205234       114.4302 
 232   0.0000       4.264567       116.0448 
 233   0.0000       4.278095       116.4129 
 234   0.0000       4.290982       116.7635 
 235   0.0000       4.308269       117.2340 
 236   0.0000       4.371951       118.9668 
 237   0.0000       4.387483       119.3895 
 238   0.0000       4.394489       119.5801 
 239   0.0000       4.424219       120.3891 
 240   0.0000       5.502637       149.7344 
 241   0.0000       5.508441       149.8923 
 242   0.0000       5.529597       150.4680 
 243   0.0000       5.530362       150.4888 
 244   0.0000       5.555029       151.1600 
 245   0.0000       5.568545       151.5278 
 246   0.0000       5.588798       152.0789 
 247   0.0000       5.597322       152.3109 
 248   0.0000       5.617053       152.8478 
 249   0.0000       5.618323       152.8823 
 250   0.0000       5.640855       153.4955 
 251   0.0000       5.650495       153.7578 
 252   0.0000       5.677298       154.4871 
 253   0.0000       5.704685       155.2324 
 254   0.0000       5.708013       155.3229 
 255   0.0000       5.726232       155.8187 
 256   0.0000       5.765064       156.8754 
 257   0.0000       5.783401       157.3743 
 258   0.0000       5.791590       157.5972 
 259   0.0000       5.796495       157.7307 
 260   0.0000       5.807827       158.0390 
 261   0.0000       5.822210       158.4304 
 262   0.0000       5.831661       158.6876 
 263   0.0000       5.835699       158.7974 
 264   0.0000       5.849371       159.1695 
 265   0.0000       5.854019       159.2959 
 266   0.0000       5.859729       159.4513 
 267   0.0000       5.870528       159.7452 
 268   0.0000       5.873554       159.8275 
 269   0.0000       5.879109       159.9787 
 270   0.0000       5.887443       160.2055 
 271   0.0000       5.895419       160.4225 
 272   0.0000       5.896864       160.4618 
 273   0.0000       5.903515       160.6428 
 274   0.0000       5.921792       161.1401 
 275   0.0000       5.931112       161.3938 
 276   0.0000       5.936439       161.5387 
 277   0.0000       5.950185       161.9128 
 278   0.0000       5.956393       162.0817 
 279   0.0000       5.980048       162.7254 
 280   0.0000       6.382961       173.6892 
 281   0.0000       6.409533       174.4123 
 282   0.0000       6.432080       175.0258 
 283   0.0000       6.472436       176.1239 
 284   0.0000       6.481403       176.3679 
 285   0.0000       6.500469       176.8868 
 286   0.0000       6.523712       177.5192 
 287   0.0000       6.566191       178.6752 
 288   0.0000       6.649951       180.9544 
 289   0.0000       6.662990       181.3092 
 290   0.0000       6.682000       181.8265 
 291   0.0000       6.697851       182.2578 
 292   0.0000       6.719778       182.8545 
 293   0.0000       6.743942       183.5120 
 294   0.0000       6.757630       183.8845 
 295   0.0000       6.793946       184.8727 
 296   0.0000       6.832894       185.9325 
 297   0.0000       6.844945       186.2604 
 298   0.0000       6.846950       186.3150 
 299   0.0000       6.864310       186.7874 
 300   0.0000       6.868577       186.9035 
 301   0.0000       6.874610       187.0676 
 302   0.0000       6.883709       187.3152 
 303   0.0000       6.891669       187.5318 
 304   0.0000       6.901716       187.8052 
 305   0.0000       6.904373       187.8775 
 306   0.0000       6.909709       188.0227 
 307   0.0000       6.917153       188.2253 
 308   0.0000       6.922883       188.3812 
 309   0.0000       6.942020       188.9020 
 310   0.0000       6.950029       189.1199 
 311   0.0000       6.955108       189.2581 
 312   0.0000       6.969522       189.6503 
 313   0.0000       6.981445       189.9748 
 314   0.0000       7.011213       190.7848 
 315   0.0000       7.032400       191.3613 
 316   0.0000       7.037921       191.5116 
 317   0.0000       7.067273       192.3103 
 318   0.0000       7.085367       192.8026 
 319   0.0000       7.105203       193.3424 
 320   0.0000       7.335662       199.6135 
 321   0.0000       7.362912       200.3550 
 322   0.0000       7.379404       200.8038 
 323   0.0000       7.405498       201.5138 
 324   0.0000       7.441214       202.4857 
 325   0.0000       7.451000       202.7520 
 326   0.0000       7.463329       203.0875 
 327   0.0000       7.482052       203.5970 
 328   0.0000       7.497197       204.0091 
 329   0.0000       7.528199       204.8527 
 330   0.0000       7.541693       205.2199 
 331   0.0000       7.562772       205.7935 
 332   0.0000       7.587211       206.4585 
 333   0.0000       7.632626       207.6943 
 334   0.0000       7.654220       208.2819 
 335   0.0000       7.673628       208.8100 
 336   0.0000      44.817731      1219.5525 
 337   0.0000      44.866110      1220.8689 
 338   0.0000      44.967852      1223.6375 
 339   0.0000      45.008478      1224.7430 
 340   0.0000      45.027453      1225.2593 
 341   0.0000      45.045127      1225.7402 
 342   0.0000      45.092185      1227.0207 
 343   0.0000      45.176536      1229.3161 

                    ********************************
                    * MULLIKEN POPULATION ANALYSIS *
                    ********************************

-----------------------
MULLIKEN ATOMIC CHARGES
-----------------------
   0 O :   -0.784046
   1 H :    0.354291
   2 H :    0.411559
   3 O :   -0.726666
   4 H :    0.367777
   5 H :    0.372700
   6 O :   -0.786978
   7 H :    0.377697
   8 H :    0.375728
   9 O :   -0.770633
  10 H :    0.370080
  11 H :    0.410726
  12 O :   -0.774461
  13 H :    0.394894
  14 H :    0.383909
  15 O :   -0.737636
  16 H :    0.401928
  17 H :    0.370805
  18 O :   -0.726670
  19 H :    0.358400
  20 H :    0.375077
  21 O :   -0.770224
  22 H :    0.388000
  23 H :    0.363743
Sum of atomic charges:   -0.0000000

--------------------------------
MULLIKEN REDUCED ORBITAL CHARGES
--------------------------------
  0 O s       :     3.807624  s :     3.807624
      pz      :     1.720091  p :     4.952766
      px      :     1.435410
      py      :     1.797265
      dz2     :     0.003613  d :     0.022264
      dxz     :     0.004350
      dyz     :     0.005144
      dx2y2   :     0.002230
      dxy     :     0.006927
      f0      :     0.000080  f :     0.001392
      f+1     :     0.000314
      f-1     :     0.000171
      f+2     :     0.000062
      f-2     :     0.000346
      f+3     :     0.000083
      f-3     :     0.000335
  1 H s       :     0.600208  s :     0.600208
      pz      :     0.016859  p :     0.045502
      px      :     0.013793
      py      :     0.014850
  2 H s       :     0.532877  s :     0.532877
      pz      :     0.010001  p :     0.055564
      px      :     0.032452
      py      :     0.013111
  3 O s       :     3.810925  s :     3.810925
      pz      :     1.719145  p :     4.889733
      px      :     1.804819
      py      :     1.365769
      dz2     :     0.003887  d :     0.024497
      dxz     :     0.005739
      dyz     :     0.004227
      dx2y2   :     0.002505
      dxy     :     0.008139
      f0      :     0.000082  f :     0.001511
      f+1     :     0.000185
      f-1     :     0.000328
      f+2     :     0.000071
      f-2     :     0.000349
      f+3     :     0.000396
      f-3     :     0.000100
  4 H s       :     0.586911  s :     0.586911
      pz      :     0.017013  p :     0.045312
      px      :     0.014840
      py      :     0.013459
  5 H s       :     0.585767  s :     0.585767
      pz      :     0.010620  p :     0.041533
      px      :     0.013083
      py      :     0.017830
  6 O s       :     3.806555  s :     3.806555
      pz      :     1.577773  p :     4.956621
      px      :     1.878124
      py      :     1.500723
      dz2     :     0.009865  d :     0.022413
      dxz     :     0.002273
      dyz     :     0.002514
      dx2y2   :     0.002820
      dxy     :     0.004941
      f0      :     0.000184  f :     0.001390
      f+1     :     0.000117
      f-1     :     0.000422
      f+2     :     0.000077
      f-2     :     0.000036
      f+3     :     0.000441
      f-3     :     0.000114
  7 H s       :     0.573141  s :     0.573141
      pz      :     0.024091  p :     0.049162
      px      :     0.013425
      py      :     0.011646
  8 H s       :     0.570352  s :     0.570352
      pz      :     0.009250  p :     0.053920
      px      :     0.015735
      py      :     0.028936
  9 O s       :     3.802417  s :     3.802417
      pz      :     1.614630  p :     4.943478
      px      :     1.855700
      py      :     1.473148
      dz2     :     0.010248  d :     0.023348
      dxz     :     0.002047
      dyz     :     0.002448
      dx2y2   :     0.003435
      dxy     :     0.005170
      f0      :     0.000169  f :     0.001389
      f+1     :     0.000112
      f-1     :     0.000438
      f+2     :     0.000069
      f-2     :     0.000036
      f+3     :     0.000455
      f-3     :     0.000110
 10 H s       :     0.588077  s :     0.588077
      pz      :     0.009264  p :     0.041843
      px      :     0.013835
      py      :     0.018744
 11 H s       :     0.540952  s :     0.540952
      pz      :     0.025223  p :     0.048322
      px      :     0.012260
      py      :     0.010838
 12 O s       :     3.797093  s :     3.797093
      pz      :     1.603319  p :     4.952362
      px      :     1.508538
      py      :     1.840505
      dz2     :     0.010972  d :     0.023683
      dxz     :     0.002756
      dyz     :     0.002078
      dx2y2   :     0.003271
      dxy     :     0.004607
      f0      :     0.000150  f :     0.001322
      f+1     :     0.000447
      f-1     :     0.000108
      f+2     :     0.000067
      f-2     :     0.000039
      f+3     :     0.000098
      f-3     :     0.000412
 13 H s       :     0.556611  s :     0.556611
      pz      :     0.024928  p :     0.048495
      px      :     0.010992
      py      :     0.012574
 14 H s       :     0.563002  s :     0.563002
      pz      :     0.009682  p :     0.053089
      px      :     0.028380
      py      :     0.015027
 15 O s       :     3.797019  s :     3.797019
      pz      :     1.571297  p :     4.914248
      px      :     1.786928
      py      :     1.556023
      dz2     :     0.011948  d :     0.024974
      dxz     :     0.002358
      dyz     :     0.001218
      dx2y2   :     0.002405
      dxy     :     0.007044
      f0      :     0.000228  f :     0.001395
      f+1     :     0.000154
      f-1     :     0.000383
      f+2     :     0.000050
      f-2     :     0.000055
      f+3     :     0.000474
      f-3     :     0.000050
 16 H s       :     0.550214  s :     0.550214
      pz      :     0.024857  p :     0.047858
      px      :     0.011922
      py      :     0.011078
 17 H s       :     0.585758  s :     0.585758
      pz      :     0.010352  p :     0.043436
      px      :     0.014549
      py      :     0.018535
 18 O s       :     3.811468  s :     3.811468
      pz      :     1.720394  p :     4.888986
      px      :     1.801575
      py      :     1.367017
      dz2     :     0.004147  d :     0.024703
      dxz     :     0.005723
      dyz     :     0.004486
      dx2y2   :     0.002515
      dxy     :     0.007832
      f0      :     0.000084  f :     0.001514
      f+1     :     0.000187
      f-1     :     0.000330
      f+2     :     0.000070
      f-2     :     0.000350
      f+3     :     0.000393
      f-3     :     0.000099
 19 H s       :     0.596136  s :     0.596136
      pz      :     0.017114  p :     0.045464
      px      :     0.014886
      py      :     0.013464
 20 H s       :     0.583498  s :     0.583498
      pz      :     0.010598  p :     0.041425
      px      :     0.012997
      py      :     0.017830
 21 O s       :     3.804812  s :     3.804812
      pz      :     1.558954  p :     4.939751
      px      :     1.819693
      py      :     1.561104
      dz2     :     0.011188  d :     0.024231
      dxz     :     0.002780
      dyz     :     0.001181
      dx2y2   :     0.002027
      dxy     :     0.007055
      f0      :     0.000247  f :     0.001431
      f+1     :     0.000158
      f-1     :     0.000370
      f+2     :     0.000056
      f-2     :     0.000054
      f+3     :     0.000480
      f-3     :     0.000064
 22 H s       :     0.563513  s :     0.563513
      pz      :     0.024546  p :     0.048487
      px      :     0.012608
      py      :     0.011333
 23 H s       :     0.585742  s :     0.585742
      pz      :     0.010310  p :     0.050515
      px      :     0.016708
      py      :     0.023497


                     *******************************
                     * LOEWDIN POPULATION ANALYSIS *
                     *******************************

----------------------
LOEWDIN ATOMIC CHARGES
----------------------
   0 O :   -0.323901
   1 H :    0.156060
   2 H :    0.157033
   3 O :   -0.315863
   4 H :    0.166292
   5 H :    0.188915
   6 O :   -0.360086
   7 H :    0.150385
   8 H :    0.146924
   9 O :   -0.298505
  10 H :    0.179246
  11 H :    0.165265
  12 O :   -0.331571
  13 H :    0.155541
  14 H :    0.147449
  15 O :   -0.286555
  16 H :    0.162489
  17 H :    0.175848
  18 O :   -0.319282
  19 H :    0.161686
  20 H :    0.188594
  21 O :   -0.366645
  22 H :    0.155626
  23 H :    0.145056

-------------------------------
LOEWDIN REDUCED ORBITAL CHARGES
-------------------------------
  0 O s       :     3.455768  s :     3.455768
      pz      :     1.681116  p :     4.837149
      px      :     1.403553
      py      :     1.752480
      dz2     :     0.004722  d :     0.029017
      dxz     :     0.006703
      dyz     :     0.005306
      dx2y2   :     0.003570
      dxy     :     0.008717
      f0      :     0.000085  f :     0.001967
      f+1     :     0.000430
      f-1     :     0.000263
      f+2     :     0.000032
      f-2     :     0.000611
      f+3     :     0.000083
      f-3     :     0.000464
  1 H s       :     0.678440  s :     0.678440
      pz      :     0.066050  p :     0.165500
      px      :     0.046056
      py      :     0.053394
  2 H s       :     0.645873  s :     0.645873
      pz      :     0.033270  p :     0.197094
      px      :     0.116274
      py      :     0.047549
  3 O s       :     3.467258  s :     3.467258
      pz      :     1.681695  p :     4.814878
      px      :     1.775171
      py      :     1.358012
      dz2     :     0.005195  d :     0.031647
      dxz     :     0.005680
      dyz     :     0.006608
      dx2y2   :     0.003814
      dxy     :     0.010351
      f0      :     0.000085  f :     0.002079
      f+1     :     0.000270
      f-1     :     0.000443
      f+2     :     0.000035
      f-2     :     0.000602
      f+3     :     0.000553
      f-3     :     0.000092
  4 H s       :     0.670306  s :     0.670306
      pz      :     0.066334  p :     0.163403
      px      :     0.052744
      py      :     0.044325
  5 H s       :     0.662614  s :     0.662614
      pz      :     0.033264  p :     0.148471
      px      :     0.043635
      py      :     0.071573
  6 O s       :     3.457310  s :     3.457310
      pz      :     1.548467  p :     4.872261
      px      :     1.839645
      py      :     1.484150
      dz2     :     0.013626  d :     0.028585
      dxz     :     0.001509
      dyz     :     0.003873
      dx2y2   :     0.003688
      dxy     :     0.005889
      f0      :     0.000365  f :     0.001930
      f+1     :     0.000182
      f-1     :     0.000691
      f+2     :     0.000042
      f-2     :     0.000043
      f+3     :     0.000541
      f-3     :     0.000065
  7 H s       :     0.677582  s :     0.677582
      pz      :     0.091582  p :     0.172034
      px      :     0.043188
      py      :     0.037263
  8 H s       :     0.665333  s :     0.665333
      pz      :     0.030334  p :     0.187743
      px      :     0.052823
      py      :     0.104586
  9 O s       :     3.455821  s :     3.455821
      pz      :     1.564563  p :     4.810321
      px      :     1.788951
      py      :     1.456806
      dz2     :     0.013860  d :     0.030366
      dxz     :     0.001244
      dyz     :     0.003469
      dx2y2   :     0.005190
      dxy     :     0.006603
      f0      :     0.000331  f :     0.001997
      f+1     :     0.000200
      f-1     :     0.000694
      f+2     :     0.000036
      f-2     :     0.000041
      f+3     :     0.000622
      f-3     :     0.000072
 10 H s       :     0.665580  s :     0.665580
      pz      :     0.030495  p :     0.155174
      px      :     0.049312
      py      :     0.075366
 11 H s       :     0.661391  s :     0.661391
      pz      :     0.095417  p :     0.173344
      px      :     0.042231
      py      :     0.035695
 12 O s       :     3.455247  s :     3.455247
      pz      :     1.577235  p :     4.845535
      px      :     1.483270
      py      :     1.785029
      dz2     :     0.013370  d :     0.028875
      dxz     :     0.003643
      dyz     :     0.001223
      dx2y2   :     0.004844
      dxy     :     0.005795
      f0      :     0.000326  f :     0.001914
      f+1     :     0.000695
      f-1     :     0.000195
      f+2     :     0.000036
      f-2     :     0.000043
      f+3     :     0.000067
      f-3     :     0.000551
 13 H s       :     0.669930  s :     0.669930
      pz      :     0.094285  p :     0.174528
      px      :     0.037385
      py      :     0.042858
 14 H s       :     0.667661  s :     0.667661
      pz      :     0.030775  p :     0.184890
      px      :     0.101462
      py      :     0.052652
 15 O s       :     3.451965  s :     3.451965
      pz      :     1.542628  p :     4.800938
      px      :     1.724894
      py      :     1.533415
      dz2     :     0.015379  d :     0.031559
      dxz     :     0.001795
      dyz     :     0.001795
      dx2y2   :     0.003589
      dxy     :     0.009002
      f0      :     0.000410  f :     0.002093
      f+1     :     0.000331
      f-1     :     0.000557
      f+2     :     0.000020
      f-2     :     0.000046
      f+3     :     0.000703
      f-3     :     0.000026
 16 H s       :     0.665753  s :     0.665753
      pz      :     0.094253  p :     0.171758
      px      :     0.041457
      py      :     0.036048
 17 H s       :     0.665553  s :     0.665553
      pz      :     0.030964  p :     0.158599
      px      :     0.054700
      py      :     0.072936
 18 O s       :     3.468339  s :     3.468339
      pz      :     1.683025  p :     4.816803
      px      :     1.775939
      py      :     1.357839
      dz2     :     0.005411  d :     0.032042
      dxz     :     0.005758
      dyz     :     0.006952
      dx2y2   :     0.003838
      dxy     :     0.010082
      f0      :     0.000091  f :     0.002099
      f+1     :     0.000272
      f-1     :     0.000447
      f+2     :     0.000035
      f-2     :     0.000612
      f+3     :     0.000548
      f-3     :     0.000093
 19 H s       :     0.674839  s :     0.674839
      pz      :     0.066507  p :     0.163475
      px      :     0.052759
      py      :     0.044209
 20 H s       :     0.662732  s :     0.662732
      pz      :     0.033353  p :     0.148674
      px      :     0.043595
      py      :     0.071726
 21 O s       :     3.459661  s :     3.459661
      pz      :     1.539697  p :     4.875566
      px      :     1.792335
      py      :     1.543535
      dz2     :     0.014399  d :     0.029411
      dxz     :     0.002136
      dyz     :     0.001841
      dx2y2   :     0.002121
      dxy     :     0.008915
      f0      :     0.000432  f :     0.002007
      f+1     :     0.000302
      f-1     :     0.000540
      f+2     :     0.000023
      f-2     :     0.000047
      f+3     :     0.000661
      f-3     :     0.000002
 22 H s       :     0.672291  s :     0.672291
      pz      :     0.093604  p :     0.172083
      px      :     0.041849
      py      :     0.036629
 23 H s       :     0.681001  s :     0.681001
      pz      :     0.031504  p :     0.173943
      px      :     0.058008
      py      :     0.084431


                      *****************************
                      * MAYER POPULATION ANALYSIS *
                      *****************************

  NA   - Mulliken gross atomic population
  ZA   - Total nuclear charge
  QA   - Mulliken gross atomic charge
  VA   - Mayer's total valence
  BVA  - Mayer's bonded valence
  FA   - Mayer's free valence

  ATOM       NA         ZA         QA         VA         BVA        FA
  0 O      8.7840     8.0000    -0.7840     1.6822     1.6822    -0.0000
  1 H      0.6457     1.0000     0.3543     0.8918     0.8918     0.0000
  2 H      0.5884     1.0000     0.4116     0.8656     0.8656     0.0000
  3 O      8.7267     8.0000    -0.7267     1.7650     1.7650     0.0000
  4 H      0.6322     1.0000     0.3678     0.8801     0.8801    -0.0000
  5 H      0.6273     1.0000     0.3727     0.8757     0.8757    -0.0000
  6 O      8.7870     8.0000    -0.7870     1.6735     1.6735     0.0000
  7 H      0.6223     1.0000     0.3777     0.8853     0.8853     0.0000
  8 H      0.6243     1.0000     0.3757     0.9020     0.9020    -0.0000
  9 O      8.7706     8.0000    -0.7706     1.7199     1.7199    -0.0000
 10 H      0.6299     1.0000     0.3701     0.8833     0.8833    -0.0000
 11 H      0.5893     1.0000     0.4107     0.8633     0.8633    -0.0000
 12 O      8.7745     8.0000    -0.7745     1.7039     1.7039    -0.0000
 13 H      0.6051     1.0000     0.3949     0.8759     0.8759    -0.0000
 14 H      0.6161     1.0000     0.3839     0.8834     0.8834    -0.0000
 15 O      8.7376     8.0000    -0.7376     1.7497     1.7497    -0.0000
 16 H      0.5981     1.0000     0.4019     0.8615     0.8615    -0.0000
 17 H      0.6292     1.0000     0.3708     0.8811     0.8811    -0.0000
 18 O      8.7267     8.0000    -0.7267     1.7600     1.7600     0.0000
 19 H      0.6416     1.0000     0.3584     0.8869     0.8869     0.0000
 20 H      0.6249     1.0000     0.3751     0.8741     0.8741    -0.0000
 21 O      8.7702     8.0000    -0.7702     1.7147     1.7147    -0.0000
 22 H      0.6120     1.0000     0.3880     0.8790     0.8790    -0.0000
 23 H      0.6363     1.0000     0.3637     0.8993     0.8993    -0.0000

  Mayer bond orders larger than 0.100000
B(  0-O ,  1-H ) :   0.8812 B(  0-O ,  2-H ) :   0.7813 B(  3-O ,  4-H ) :   0.8728 
B(  3-O ,  5-H ) :   0.8645 B(  6-O ,  7-H ) :   0.8575 B(  6-O ,  8-H ) :   0.8151 
B(  9-O , 10-H ) :   0.8640 B(  9-O , 11-H ) :   0.8205 B( 12-O , 13-H ) :   0.8366 
B( 12-O , 14-H ) :   0.8355 B( 15-O , 16-H ) :   0.8357 B( 15-O , 17-H ) :   0.8676 
B( 18-O , 19-H ) :   0.8789 B( 18-O , 20-H ) :   0.8628 B( 21-O , 22-H ) :   0.8475 
B( 21-O , 23-H ) :   0.8646 

-------
TIMINGS
-------

Total SCF time: 0 days 0 hours 0 min 28 sec 

Total time                  ....      28.448 sec
Sum of individual times     ....      28.123 sec  ( 98.9%)

Fock matrix formation       ....      27.523 sec  ( 96.8%)
Diagonalization             ....       0.143 sec  (  0.5%)
Density matrix formation    ....       0.016 sec  (  0.1%)
Population analysis         ....       0.033 sec  (  0.1%)
Initial guess               ....       0.192 sec  (  0.7%)
Orbital Transformation      ....       0.000 sec  (  0.0%)
Orbital Orthonormalization  ....       0.000 sec  (  0.0%)
DIIS solution               ....       0.059 sec  (  0.2%)
SOSCF solution              ....       0.065 sec  (  0.2%)


           ************************************************************
           *        Program running with 6 parallel MPI-processes     *
           *              working on a common directory               *
           ************************************************************

------------------------------------------------------------------------------
                                ORCA  MP2 
------------------------------------------------------------------------------

Freezing NCore=16 chemical core electrons
MP2 will be done in the AO integral direct mode
The Q1-step will be done using symmetric double matrices
Dimension of the basis                    ...  344
Memory devoted for MP2                    ... 8000 MB   
Memory needed for all in one shot         ...  935 MB
Number of MOs that can be treated together...   50      
MP2 density construction                  ... relaxed
The MP2 gradient is requested => amplitudes will be stored on disk
Total number of MOs              ...   32
Number of MOs treated per batch  ...    6 
Number of batches necessary      ...    1 
OPERATORS   0/  0 PASS   0
-----------------------------------------------
 MP2 CORRELATION ENERGY   :     -2.072433526 Eh
-----------------------------------------------


---------------------
MP2 DENSITY FORMATION
---------------------

Completing the external part of the density      ... done
Storing the unrelaxed density                    ... done

Calculating G(D)                                 ... done
Completing the Lagrangian                        ... done
Solving the Z-vector equations                   ... 

------------------------------------------------------------------------------
                           ORCA CP-SCF CALCULATION
------------------------------------------------------------------------------

Input orbitals are from        ... 12h2o.su.etal.mol1,2,4,5,7,9,10,11-orca.engrad-mp2.def2tzvp.frozencore.gbw
Input Perturbation             ... 12h2o.su.etal.mol1,2,4,5,7,9,10,11-orca.engrad-mp2.def2tzvp.frozencore.pin.tmp
Wavefunction output            ... 12h2o.su.etal.mol1,2,4,5,7,9,10,11-orca.engrad-mp2.def2tzvp.frozencore.pout.tmp
Perturbation mode              ... Real perturbation (singlet)
Solver                         ... POPLE
Max. number of iterations      ... 128
Convergence tolerance          ... 1.000e-08
Integral handling              ... Direct
Number of perturbations        ... 1
Number of operators            ... 1
Orbital ranges used for CP-SCF:
 Operator 0:  Orbitals   0... 39  to  40...343
Variables per vector in CP-SCF ... 12160
Number of vectors sought       ... 1
     CP-SCF ITERATION   0: 
     CP-SCF ITERATION   1:      0.001022369354
     CP-SCF ITERATION   2:      0.000027403647
     CP-SCF ITERATION   3:      0.000001312419
     CP-SCF ITERATION   4:      0.000000118150
     CP-SCF ITERATION   5:      0.000000009963
                                                 ... done
Finalizing the relaxed density                   ... done
Transforming P to the AO basis                   ... done
Storing the relaxed density                      ... done

------------------------------------
ENERGY WEIGHTED DENSITY FINALIZATION
------------------------------------

Gathering the parts of the W-matrix              ...                                                      done
Forming the Z-density                            ... done
Transforming Z to the AO basis                   ... done
Calculating G(Z)                                 ... done
Finalizing the W-matrix                          ...                                                      done
Transforming W to the AO basis and storing       ... done

                *********************************************
                * UNRELAXED MP2 DENSITY POPULATION ANALYSIS *
                *********************************************

------------------------------------------------------------------------------
                           ORCA POPULATION ANALYSIS
------------------------------------------------------------------------------
Input electron density              ... 12h2o.su.etal.mol1,2,4,5,7,9,10,11-orca.engrad-mp2.def2tzvp.frozencore.pmp2ur
BaseName (.gbw .S,...)              ... 12h2o.su.etal.mol1,2,4,5,7,9,10,11-orca.engrad-mp2.def2tzvp.frozencore

                    ********************************
                    * MULLIKEN POPULATION ANALYSIS *
                    ********************************

-----------------------
MULLIKEN ATOMIC CHARGES
-----------------------
   0 O :   -0.777482
   1 H :    0.351929
   2 H :    0.406703
   3 O :   -0.721226
   4 H :    0.365627
   5 H :    0.369884
   6 O :   -0.780542
   7 H :    0.374806
   8 H :    0.370863
   9 O :   -0.764070
  10 H :    0.367101
  11 H :    0.407775
  12 O :   -0.766992
  13 H :    0.391625
  14 H :    0.379686
  15 O :   -0.730820
  16 H :    0.399008
  17 H :    0.368176
  18 O :   -0.721387
  19 H :    0.356187
  20 H :    0.372232
  21 O :   -0.764298
  22 H :    0.384911
  23 H :    0.360304
Sum of atomic charges:   -0.0000000

--------------------------------
MULLIKEN REDUCED ORBITAL CHARGES
--------------------------------
  0 O s       :     3.802659  s :     3.802659
      pz      :     1.708947  p :     4.920641
      px      :     1.426484
      py      :     1.785210
      dz2     :     0.009303  d :     0.050193
      dxz     :     0.009879
      dyz     :     0.010691
      dx2y2   :     0.007905
      dxy     :     0.012415
      f0      :     0.000454  f :     0.003989
      f+1     :     0.000682
      f-1     :     0.000539
      f+2     :     0.000434
      f-2     :     0.000714
      f+3     :     0.000460
      f-3     :     0.000705
  1 H s       :     0.600942  s :     0.600942
      pz      :     0.017332  p :     0.047129
      px      :     0.014237
      py      :     0.015560
  2 H s       :     0.536115  s :     0.536115
      pz      :     0.010805  p :     0.057182
      px      :     0.032559
      py      :     0.013818
  3 O s       :     3.806139  s :     3.806139
      pz      :     1.708157  p :     4.859665
      px      :     1.793461
      py      :     1.358047
      dz2     :     0.009417  d :     0.051358
      dxz     :     0.011141
      dyz     :     0.009598
      dx2y2   :     0.007855
      dxy     :     0.013347
      f0      :     0.000453  f :     0.004064
      f+1     :     0.000550
      f-1     :     0.000689
      f+2     :     0.000437
      f-2     :     0.000713
      f+3     :     0.000754
      f-3     :     0.000468
  4 H s       :     0.587522  s :     0.587522
      pz      :     0.017468  p :     0.046851
      px      :     0.015545
      py      :     0.013838
  5 H s       :     0.587058  s :     0.587058
      pz      :     0.011443  p :     0.043058
      px      :     0.013857
      py      :     0.017758
  6 O s       :     3.801532  s :     3.801532
      pz      :     1.567864  p :     4.924925
      px      :     1.865932
      py      :     1.491129
      dz2     :     0.015334  d :     0.050104
      dxz     :     0.007940
      dyz     :     0.008026
      dx2y2   :     0.008389
      dxy     :     0.010414
      f0      :     0.000571  f :     0.003981
      f+1     :     0.000492
      f-1     :     0.000795
      f+2     :     0.000442
      f-2     :     0.000404
      f+3     :     0.000797
      f-3     :     0.000480
  7 H s       :     0.574458  s :     0.574458
      pz      :     0.024207  p :     0.050736
      px      :     0.014276
      py      :     0.012253
  8 H s       :     0.573544  s :     0.573544
      pz      :     0.010066  p :     0.055593
      px      :     0.016456
      py      :     0.029071
  9 O s       :     3.797383  s :     3.797383
      pz      :     1.604434  p :     4.911559
      px      :     1.842957
      py      :     1.464168
      dz2     :     0.015731  d :     0.051142
      dxz     :     0.007797
      dyz     :     0.007911
      dx2y2   :     0.009023
      dxy     :     0.010680
      f0      :     0.000559  f :     0.003986
      f+1     :     0.000491
      f-1     :     0.000808
      f+2     :     0.000436
      f-2     :     0.000404
      f+3     :     0.000810
      f-3     :     0.000478
 10 H s       :     0.589519  s :     0.589519
      pz      :     0.010065  p :     0.043380
      px      :     0.014567
      py      :     0.018749
 11 H s       :     0.542486  s :     0.542486
      pz      :     0.025317  p :     0.049739
      px      :     0.013051
      py      :     0.011371
 12 O s       :     3.791827  s :     3.791827
      pz      :     1.593259  p :     4.919722
      px      :     1.499069
      py      :     1.827394
      dz2     :     0.016316  d :     0.051513
      dxz     :     0.008244
      dyz     :     0.007795
      dx2y2   :     0.008972
      dxy     :     0.010186
      f0      :     0.000539  f :     0.003930
      f+1     :     0.000818
      f-1     :     0.000485
      f+2     :     0.000435
      f-2     :     0.000408
      f+3     :     0.000470
      f-3     :     0.000774
 13 H s       :     0.558365  s :     0.558365
      pz      :     0.025021  p :     0.050009
      px      :     0.011591
      py      :     0.013397
 14 H s       :     0.565511  s :     0.565511
      pz      :     0.010527  p :     0.054802
      px      :     0.028546
      py      :     0.015730
 15 O s       :     3.791860  s :     3.791860
      pz      :     1.561610  p :     4.882621
      px      :     1.774468
      py      :     1.546542
      dz2     :     0.017172  d :     0.052346
      dxz     :     0.007985
      dyz     :     0.006670
      dx2y2   :     0.008057
      dxy     :     0.012462
      f0      :     0.000613  f :     0.003993
      f+1     :     0.000533
      f-1     :     0.000752
      f+2     :     0.000414
      f-2     :     0.000423
      f+3     :     0.000834
      f-3     :     0.000425
 16 H s       :     0.551663  s :     0.551663
      pz      :     0.024908  p :     0.049329
      px      :     0.012714
      py      :     0.011708
 17 H s       :     0.586858  s :     0.586858
      pz      :     0.011125  p :     0.044966
      px      :     0.015164
      py      :     0.018677
 18 O s       :     3.806666  s :     3.806666
      pz      :     1.709522  p :     4.859111
      px      :     1.790247
      py      :     1.359342
      dz2     :     0.009670  d :     0.051543
      dxz     :     0.011107
      dyz     :     0.009852
      dx2y2   :     0.007863
      dxy     :     0.013051
      f0      :     0.000455  f :     0.004067
      f+1     :     0.000552
      f-1     :     0.000692
      f+2     :     0.000437
      f-2     :     0.000714
      f+3     :     0.000751
      f-3     :     0.000467
 19 H s       :     0.596774  s :     0.596774
      pz      :     0.017596  p :     0.047039
      px      :     0.015589
      py      :     0.013853
 20 H s       :     0.584816  s :     0.584816
      pz      :     0.011430  p :     0.042952
      px      :     0.013760
      py      :     0.017762
 21 O s       :     3.800004  s :     3.800004
      pz      :     1.549368  p :     4.908985
      px      :     1.808058
      py      :     1.551558
      dz2     :     0.016389  d :     0.051303
      dxz     :     0.008294
      dyz     :     0.006659
      dx2y2   :     0.007603
      dxy     :     0.012358
      f0      :     0.000628  f :     0.004007
      f+1     :     0.000532
      f-1     :     0.000740
      f+2     :     0.000417
      f-2     :     0.000421
      f+3     :     0.000836
      f-3     :     0.000433
 22 H s       :     0.565069  s :     0.565069
      pz      :     0.024585  p :     0.050019
      px      :     0.013432
      py      :     0.012002
 23 H s       :     0.587523  s :     0.587523
      pz      :     0.011129  p :     0.052174
      px      :     0.017343
      py      :     0.023702


                     *******************************
                     * LOEWDIN POPULATION ANALYSIS *
                     *******************************

----------------------
LOEWDIN ATOMIC CHARGES
----------------------
   0 O :   -0.319793
   1 H :    0.154685
   2 H :    0.154346
   3 O :   -0.312093
   4 H :    0.165207
   5 H :    0.187164
   6 O :   -0.356750
   7 H :    0.148364
   8 H :    0.144171
   9 O :   -0.293728
  10 H :    0.177379
  11 H :    0.163311
  12 O :   -0.327369
  13 H :    0.153384
  14 H :    0.144810
  15 O :   -0.282176
  16 H :    0.160565
  17 H :    0.174317
  18 O :   -0.315732
  19 H :    0.160518
  20 H :    0.186784
  21 O :   -0.363812
  22 H :    0.153662
  23 H :    0.142786

-------------------------------
LOEWDIN REDUCED ORBITAL CHARGES
-------------------------------
  0 O s       :     3.452121  s :     3.452121
      pz      :     1.669499  p :     4.804805
      px      :     1.394973
      py      :     1.740333
      dz2     :     0.010541  d :     0.058103
      dxz     :     0.012451
      dyz     :     0.011199
      dx2y2   :     0.009339
      dxy     :     0.014573
      f0      :     0.000471  f :     0.004764
      f+1     :     0.000846
      f-1     :     0.000651
      f+2     :     0.000411
      f-2     :     0.001023
      f+3     :     0.000474
      f-3     :     0.000887
  1 H s       :     0.676632  s :     0.676632
      pz      :     0.067288  p :     0.168683
      px      :     0.046994
      py      :     0.054402
  2 H s       :     0.646189  s :     0.646189
      pz      :     0.034102  p :     0.199465
      px      :     0.116952
      py      :     0.048411
  3 O s       :     3.463493  s :     3.463493
      pz      :     1.670277  p :     4.784204
      px      :     1.764043
      py      :     1.349884
      dz2     :     0.010814  d :     0.059571
      dxz     :     0.011363
      dyz     :     0.012184
      dx2y2   :     0.009288
      dxy     :     0.015922
      f0      :     0.000467  f :     0.004826
      f+1     :     0.000654
      f-1     :     0.000851
      f+2     :     0.000409
      f-2     :     0.001009
      f+3     :     0.000964
      f-3     :     0.000473
  4 H s       :     0.668457  s :     0.668457
      pz      :     0.067495  p :     0.166336
      px      :     0.053714
      py      :     0.045127
  5 H s       :     0.661329  s :     0.661329
      pz      :     0.034091  p :     0.151508
      px      :     0.044621
      py      :     0.072796
  6 O s       :     3.453677  s :     3.453677
      pz      :     1.537985  p :     4.840901
      px      :     1.828085
      py      :     1.474830
      dz2     :     0.019688  d :     0.057453
      dxz     :     0.007119
      dyz     :     0.009444
      dx2y2   :     0.009470
      dxy     :     0.011732
      f0      :     0.000784  f :     0.004720
      f+1     :     0.000573
      f-1     :     0.001134
      f+2     :     0.000414
      f-2     :     0.000418
      f+3     :     0.000954
      f-3     :     0.000443
  7 H s       :     0.676621  s :     0.676621
      pz      :     0.092965  p :     0.175015
      px      :     0.043973
      py      :     0.038077
  8 H s       :     0.665284  s :     0.665284
      pz      :     0.031185  p :     0.190545
      px      :     0.053685
      py      :     0.105674
  9 O s       :     3.452041  s :     3.452041
      pz      :     1.553964  p :     4.777689
      px      :     1.776166
      py      :     1.447558
      dz2     :     0.019913  d :     0.059207
      dxz     :     0.006914
      dyz     :     0.008984
      dx2y2   :     0.010972
      dxy     :     0.012423
      f0      :     0.000752  f :     0.004792
      f+1     :     0.000595
      f-1     :     0.001133
      f+2     :     0.000410
      f-2     :     0.000416
      f+3     :     0.001034
      f-3     :     0.000452
 10 H s       :     0.664341  s :     0.664341
      pz      :     0.031328  p :     0.158280
      px      :     0.050265
      py      :     0.076688
 11 H s       :     0.660714  s :     0.660714
      pz      :     0.096591  p :     0.175974
      px      :     0.042983
      py      :     0.036400
 12 O s       :     3.451553  s :     3.451553
      pz      :     1.567209  p :     4.813278
      px      :     1.473971
      py      :     1.772098
      dz2     :     0.019340  d :     0.057814
      dxz     :     0.009172
      dyz     :     0.006862
      dx2y2   :     0.010719
      dxy     :     0.011721
      f0      :     0.000746  f :     0.004723
      f+1     :     0.001138
      f-1     :     0.000588
      f+2     :     0.000411
      f-2     :     0.000419
      f+3     :     0.000452
      f-3     :     0.000970
 13 H s       :     0.669247  s :     0.669247
      pz      :     0.095576  p :     0.177368
      px      :     0.038168
      py      :     0.043625
 14 H s       :     0.667404  s :     0.667404
      pz      :     0.031636  p :     0.187786
      px      :     0.102613
      py      :     0.053537
 15 O s       :     3.448174  s :     3.448174
      pz      :     1.532940  p :     4.769148
      px      :     1.712389
      py      :     1.523820
      dz2     :     0.021274  d :     0.059965
      dxz     :     0.007351
      dyz     :     0.007203
      dx2y2   :     0.009219
      dxy     :     0.014918
      f0      :     0.000836  f :     0.004888
      f+1     :     0.000733
      f-1     :     0.000981
      f+2     :     0.000388
      f-2     :     0.000421
      f+3     :     0.001123
      f-3     :     0.000406
 16 H s       :     0.664902  s :     0.664902
      pz      :     0.095513  p :     0.174533
      px      :     0.042245
      py      :     0.036776
 17 H s       :     0.664084  s :     0.664084
      pz      :     0.031713  p :     0.161598
      px      :     0.055695
      py      :     0.074190
 18 O s       :     3.464590  s :     3.464590
      pz      :     1.671717  p :     4.786322
      px      :     1.764864
      py      :     1.349742
      dz2     :     0.011031  d :     0.059975
      dxz     :     0.011440
      dyz     :     0.012526
      dx2y2   :     0.009312
      dxy     :     0.015666
      f0      :     0.000474  f :     0.004846
      f+1     :     0.000656
      f-1     :     0.000856
      f+2     :     0.000409
      f-2     :     0.001019
      f+3     :     0.000958
      f-3     :     0.000474
 19 H s       :     0.672970  s :     0.672970
      pz      :     0.067738  p :     0.166512
      px      :     0.053739
      py      :     0.045035
 20 H s       :     0.661511  s :     0.661511
      pz      :     0.034194  p :     0.151705
      px      :     0.044560
      py      :     0.072951
 21 O s       :     3.456047  s :     3.456047
      pz      :     1.530160  p :     4.845363
      px      :     1.781197
      py      :     1.534007
      dz2     :     0.020283  d :     0.057623
      dxz     :     0.007595
      dyz     :     0.007272
      dx2y2   :     0.007683
      dxy     :     0.014790
      f0      :     0.000854  f :     0.004778
      f+1     :     0.000699
      f-1     :     0.000964
      f+2     :     0.000388
      f-2     :     0.000421
      f+3     :     0.001076
      f-3     :     0.000376
 22 H s       :     0.671407  s :     0.671407
      pz      :     0.094901  p :     0.174931
      px      :     0.042641
      py      :     0.037390
 23 H s       :     0.680202  s :     0.680202
      pz      :     0.032307  p :     0.177013
      px      :     0.058997
      py      :     0.085710


                      *****************************
                      * MAYER POPULATION ANALYSIS *
                      *****************************

  NA   - Mulliken gross atomic population
  ZA   - Total nuclear charge
[...]
      f+1     :     0.000544
      f-1     :     0.000672
      f+2     :     0.000437
      f-2     :     0.000693
      f+3     :     0.000731
      f-3     :     0.000466
 19 H s       :     0.602877  s :     0.602877
      pz      :     0.017775  p :     0.047730
      px      :     0.016172
      py      :     0.013783
 20 H s       :     0.592239  s :     0.592239
      pz      :     0.012278  p :     0.043540
      px      :     0.014491
      py      :     0.016770
 21 O s       :     3.797167  s :     3.797167
      pz      :     1.544727  p :     4.890368
      px      :     1.799937
      py      :     1.545704
      dz2     :     0.015222  d :     0.049351
      dxz     :     0.008253
      dyz     :     0.006622
      dx2y2   :     0.007553
      dxy     :     0.011701
      f0      :     0.000613  f :     0.003937
      f+1     :     0.000522
      f-1     :     0.000719
      f+2     :     0.000417
      f-2     :     0.000420
      f+3     :     0.000814
      f-3     :     0.000433
 22 H s       :     0.578992  s :     0.578992
      pz      :     0.023760  p :     0.050454
      px      :     0.014229
      py      :     0.012465
 23 H s       :     0.603835  s :     0.603835
      pz      :     0.011848  p :     0.052810
      px      :     0.017865
      py      :     0.023097


                     *******************************
                     * LOEWDIN POPULATION ANALYSIS *
                     *******************************

----------------------
LOEWDIN ATOMIC CHARGES
----------------------
   0 O :   -0.313005
   1 H :    0.156548
   2 H :    0.146653
   3 O :   -0.309993
   4 H :    0.167107
   5 H :    0.188433
   6 O :   -0.353803
   7 H :    0.144808
   8 H :    0.136931
   9 O :   -0.285316
  10 H :    0.177858
  11 H :    0.159057
  12 O :   -0.319952
  13 H :    0.148846
  14 H :    0.138503
  15 O :   -0.275040
  16 H :    0.157138
  17 H :    0.175409
  18 O :   -0.314729
  19 H :    0.162177
  20 H :    0.187431
  21 O :   -0.363408
  22 H :    0.150023
  23 H :    0.138324

-------------------------------
LOEWDIN REDUCED ORBITAL CHARGES
-------------------------------
  0 O s       :     3.453809  s :     3.453809
      pz      :     1.664274  p :     4.796705
      px      :     1.398737
      py      :     1.733694
      dz2     :     0.010632  d :     0.057688
      dxz     :     0.012110
      dyz     :     0.011167
      dx2y2   :     0.009401
      dxy     :     0.014379
      f0      :     0.000474  f :     0.004803
      f+1     :     0.000857
      f-1     :     0.000653
      f+2     :     0.000412
      f-2     :     0.001025
      f+3     :     0.000479
      f-3     :     0.000902
  1 H s       :     0.674717  s :     0.674717
      pz      :     0.067237  p :     0.168735
      px      :     0.046591
      py      :     0.054907
  2 H s       :     0.653719  s :     0.653719
      pz      :     0.034663  p :     0.199629
      px      :     0.116099
      py      :     0.048867
  3 O s       :     3.465196  s :     3.465196
      pz      :     1.664731  p :     4.781613
      px      :     1.762052
      py      :     1.354830
      dz2     :     0.010710  d :     0.058339
      dxz     :     0.011328
      dyz     :     0.011814
      dx2y2   :     0.009058
      dxy     :     0.015429
      f0      :     0.000470  f :     0.004844
      f+1     :     0.000654
      f-1     :     0.000857
      f+2     :     0.000409
      f-2     :     0.001009
      f+3     :     0.000969
      f-3     :     0.000476
  4 H s       :     0.666832  s :     0.666832
      pz      :     0.067416  p :     0.166061
      px      :     0.054315
      py      :     0.044330
  5 H s       :     0.660097  s :     0.660097
      pz      :     0.034740  p :     0.151469
      px      :     0.045390
      py      :     0.071339
  6 O s       :     3.454518  s :     3.454518
      pz      :     1.535967  p :     4.837629
      px      :     1.824978
      py      :     1.476684
      dz2     :     0.019404  d :     0.056899
      dxz     :     0.007183
      dyz     :     0.009264
      dx2y2   :     0.009422
      dxy     :     0.011627
      f0      :     0.000789  f :     0.004758
      f+1     :     0.000573
      f-1     :     0.001148
      f+2     :     0.000417
      f-2     :     0.000417
      f+3     :     0.000968
      f-3     :     0.000446
  7 H s       :     0.679732  s :     0.679732
      pz      :     0.092380  p :     0.175460
      px      :     0.044825
      py      :     0.038255
  8 H s       :     0.671687  s :     0.671687
      pz      :     0.031644  p :     0.191381
      px      :     0.054380
      py      :     0.105357
  9 O s       :     3.452965  s :     3.452965
      pz      :     1.552385  p :     4.769078
      px      :     1.766495
      py      :     1.450199
      dz2     :     0.019615  d :     0.058459
      dxz     :     0.006993
      dyz     :     0.008805
      dx2y2   :     0.010849
      dxy     :     0.012197
      f0      :     0.000756  f :     0.004814
      f+1     :     0.000596
      f-1     :     0.001141
      f+2     :     0.000412
      f-2     :     0.000415
      f+3     :     0.001040
      f-3     :     0.000454
 10 H s       :     0.663788  s :     0.663788
      pz      :     0.031840  p :     0.158355
      px      :     0.050881
      py      :     0.075634
 11 H s       :     0.664847  s :     0.664847
      pz      :     0.096019  p :     0.176096
      px      :     0.043719
      py      :     0.036358
 12 O s       :     3.452222  s :     3.452222
      pz      :     1.568706  p :     4.805657
      px      :     1.476264
      py      :     1.760687
      dz2     :     0.018991  d :     0.057318
      dxz     :     0.008995
      dyz     :     0.006928
      dx2y2   :     0.010738
      dxy     :     0.011666
      f0      :     0.000746  f :     0.004756
      f+1     :     0.001150
      f-1     :     0.000590
      f+2     :     0.000413
      f-2     :     0.000418
      f+3     :     0.000455
      f-3     :     0.000984
 13 H s       :     0.673377  s :     0.673377
      pz      :     0.095109  p :     0.177777
      px      :     0.038402
      py      :     0.044266
 14 H s       :     0.672955  s :     0.672955
      pz      :     0.032254  p :     0.188542
      px      :     0.102201
      py      :     0.054087
 15 O s       :     3.448879  s :     3.448879
      pz      :     1.534571  p :     4.762118
      px      :     1.702269
      py      :     1.525279
      dz2     :     0.020760  d :     0.059136
      dxz     :     0.007400
      dyz     :     0.007094
      dx2y2   :     0.009264
      dxy     :     0.014617
      f0      :     0.000839  f :     0.004907
      f+1     :     0.000734
      f-1     :     0.000987
      f+2     :     0.000390
      f-2     :     0.000421
      f+3     :     0.001129
      f-3     :     0.000408
 16 H s       :     0.668186  s :     0.668186
      pz      :     0.094708  p :     0.174677
      px      :     0.042866
      py      :     0.037102
 17 H s       :     0.663090  s :     0.663090
      pz      :     0.032129  p :     0.161500
      px      :     0.055984
      py      :     0.073387
 18 O s       :     3.466620  s :     3.466620
      pz      :     1.666742  p :     4.784461
      px      :     1.763151
      py      :     1.354567
      dz2     :     0.010956  d :     0.058782
      dxz     :     0.011413
      dyz     :     0.012152
      dx2y2   :     0.009076
      dxy     :     0.015186
      f0      :     0.000477  f :     0.004866
      f+1     :     0.000656
      f-1     :     0.000863
      f+2     :     0.000410
      f-2     :     0.001019
      f+3     :     0.000964
      f-3     :     0.000477
 19 H s       :     0.671404  s :     0.671404
      pz      :     0.067868  p :     0.166419
      px      :     0.054320
      py      :     0.044230
 20 H s       :     0.660886  s :     0.660886
      pz      :     0.034911  p :     0.151682
      px      :     0.045285
      py      :     0.071487
 21 O s       :     3.456632  s :     3.456632
      pz      :     1.531466  p :     4.845268
      px      :     1.778588
      py      :     1.535214
      dz2     :     0.019766  d :     0.056705
      dxz     :     0.007613
      dyz     :     0.007156
      dx2y2   :     0.007650
      dxy     :     0.014520
      f0      :     0.000858  f :     0.004802
      f+1     :     0.000698
      f-1     :     0.000973
      f+2     :     0.000390
      f-2     :     0.000421
      f+3     :     0.001087
      f-3     :     0.000376
 22 H s       :     0.674794  s :     0.674794
      pz      :     0.094067  p :     0.175183
      px      :     0.043347
      py      :     0.037770
 23 H s       :     0.683861  s :     0.683861
      pz      :     0.032873  p :     0.177815
      px      :     0.059625
      py      :     0.085317


                      *****************************
                      * MAYER POPULATION ANALYSIS *
                      *****************************

  NA   - Mulliken gross atomic population
  ZA   - Total nuclear charge
  QA   - Mulliken gross atomic charge
  VA   - Mayer's total valence
  BVA  - Mayer's bonded valence
  FA   - Mayer's free valence

  ATOM       NA         ZA         QA         VA         BVA        FA
  0 O      8.7477     8.0000    -0.7477     2.0420     1.6520     0.3900
  1 H      0.6551     1.0000     0.3449     0.9027     0.8559     0.0468
  2 H      0.6172     1.0000     0.3828     0.9017     0.8570     0.0447
  3 O      8.7021     8.0000    -0.7021     2.0976     1.7133     0.3843
  4 H      0.6409     1.0000     0.3591     0.8906     0.8457     0.0448
  5 H      0.6371     1.0000     0.3629     0.8886     0.8412     0.0475
  6 O      8.7515     8.0000    -0.7515     2.0185     1.6281     0.3904
  7 H      0.6401     1.0000     0.3599     0.9098     0.8648     0.0449
  8 H      0.6549     1.0000     0.3451     0.9437     0.8967     0.0471
  9 O      8.7342     8.0000    -0.7342     2.0861     1.6985     0.3876
 10 H      0.6415     1.0000     0.3585     0.9002     0.8529     0.0473
 11 H      0.6083     1.0000     0.3917     0.8906     0.8487     0.0419
 12 O      8.7317     8.0000    -0.7317     2.0625     1.6742     0.3883
 13 H      0.6246     1.0000     0.3754     0.9047     0.8609     0.0438
 14 H      0.6404     1.0000     0.3596     0.9182     0.8721     0.0462
 15 O      8.7022     8.0000    -0.7022     2.0971     1.7145     0.3826
 16 H      0.6140     1.0000     0.3860     0.8849     0.8420     0.0430
 17 H      0.6393     1.0000     0.3607     0.8951     0.8492     0.0459
 18 O      8.7039     8.0000    -0.7039     2.0905     1.7060     0.3845
 19 H      0.6506     1.0000     0.3494     0.8976     0.8519     0.0457
 20 H      0.6358     1.0000     0.3642     0.8881     0.8408     0.0473
 21 O      8.7408     8.0000    -0.7408     2.0484     1.6619     0.3865
 22 H      0.6294     1.0000     0.3706     0.9046     0.8605     0.0441
 23 H      0.6566     1.0000     0.3434     0.9300     0.8836     0.0465

  Mayer bond orders larger than 0.100000
B(  0-O ,  1-H ) :   0.8434 B(  0-O ,  2-H ) :   0.7442 B(  3-O ,  4-H ) :   0.8379 
B(  3-O ,  5-H ) :   0.8268 B(  6-O ,  7-H ) :   0.8239 B(  6-O ,  8-H ) :   0.7741 
B(  8-H , 12-O ) :   0.1049 B(  9-O , 10-H ) :   0.8260 B(  9-O , 11-H ) :   0.7893 
B( 12-O , 13-H ) :   0.8037 B( 12-O , 14-H ) :   0.7977 B( 15-O , 16-H ) :   0.8032 
B( 15-O , 17-H ) :   0.8310 B( 18-O , 19-H ) :   0.8431 B( 18-O , 20-H ) :   0.8259 
B( 21-O , 22-H ) :   0.8153 B( 21-O , 23-H ) :   0.8291 


----------------------------------
MP2 DERIVATIVE INTEGRAL GENERATION
----------------------------------


Input Wavefunction Amplitudes       ... 12h2o.su.etal.mol1,2,4,5,7,9,10,11-orca.engrad-mp2.def2tzvp.frozencore.mp2tsaa.tmp
Input Correlated Electron Density   ... 12h2o.su.etal.mol1,2,4,5,7,9,10,11-orca.engrad-mp2.def2tzvp.frozencore.pmp2re
Input Energy Weighted Density       ... 12h2o.su.etal.mol1,2,4,5,7,9,10,11-orca.engrad-mp2.def2tzvp.frozencore.wmp2.tmp
Input SCF Electron Density          ... 12h2o.su.etal.mol1,2,4,5,7,9,10,11-orca.engrad-mp2.def2tzvp.frozencore.scfp

One-Electron Terms    ...
                        ... One-Electron Terms done
Prescreening matrices              ... done

Batch handling in the gradient evaluation:
Memory available                      ... 8000.0 MB
Memory per occupied orbital in Q2     ...   28.9 MB
Memory per occupied orbital in Q3     ...    0.1 MB
Total memory requirement per |i>      ...   29.0 MB
Max. Number of orbitals possible      ...    275
Number of orbitals treated per batch  ...     32
Number of batches to be done          ...      1
Batch   0: i=    8 ...    39

---------------------------------------
MP2 TOTAL ENERGY:     -610.581568482 Eh
---------------------------------------

The final MP2 gradient
  0:  -0.00319976   0.00467916   0.00049315
  1:  -0.00007976   0.00054667  -0.00123946
  2:   0.00846131  -0.00301774  -0.00188756
  3:  -0.01006618  -0.02582651  -0.00347784
  4:  -0.00173998  -0.00098798   0.00261073
  5:   0.01057828   0.02609433   0.00142352
  6:   0.00229438   0.00142624   0.00393888
  7:  -0.00279582   0.00247943  -0.00588052
  8:  -0.00129196  -0.00424419   0.00030913
  9:  -0.01228776  -0.01528696  -0.00103146
 10:   0.00748797   0.01323482  -0.00078707
 11:   0.00141949   0.00001135   0.00249041
 12:  -0.00445685   0.00380801   0.00139575
 13:  -0.00174124  -0.00147947  -0.00055329
 14:   0.01126175  -0.00224762  -0.00010382
 15:  -0.00740377  -0.00662763   0.00190258
 16:  -0.00012364   0.00090735  -0.00012901
 17:   0.00523422   0.00601120  -0.00174613
 18:   0.00687669   0.02606130   0.00280164
 19:   0.00219359   0.00152230   0.00207439
 20:  -0.00808416  -0.02660141  -0.00201940
 21:   0.00210795   0.00388525  -0.00135705
 22:  -0.00282343   0.00204031  -0.00109964
 23:  -0.00182129  -0.00638821   0.00187206

-----------------------------------
NORM OF THE MP2 GRADIENT:  0.066108
-----------------------------------

-------------------------   --------------------
FINAL SINGLE POINT ENERGY      -610.581568481924
-------------------------   --------------------


                            ***************************************
                            *     ORCA property calculations      *
                            ***************************************

                                    ---------------------
                                    Active property flags
                                    ---------------------
   (+) Dipole Moment


------------------------------------------------------------------------------
                       ORCA ELECTRIC PROPERTIES CALCULATION
------------------------------------------------------------------------------

Dipole Moment Calculation                       ... on
Quadrupole Moment Calculation                   ... off
Polarizability Calculation                      ... off
GBWName                                         ... 12h2o.su.etal.mol1,2,4,5,7,9,10,11-orca.engrad-mp2.def2tzvp.frozencore.gbw
Electron density file                           ... 12h2o.su.etal.mol1,2,4,5,7,9,10,11-orca.engrad-mp2.def2tzvp.frozencore.scfp
The origin for moment calculation is the CENTER OF MASS  = (-0.822266, -0.445290  0.682693)

-------------
DIPOLE MOMENT
-------------
                                X             Y             Z
Electronic contribution:      0.26458      -0.39221      -0.15790
Nuclear contribution   :      0.76337      -1.13309      -2.77909
                        -----------------------------------------
Total Dipole Moment    :      1.02795      -1.52530      -2.93699
                        -----------------------------------------
Magnitude (a.u.)       :      3.46542
Magnitude (Debye)      :      8.80840



--------------------
Rotational spectrum 
--------------------
 
Rotational constants in cm-1:     0.032622     0.020627     0.014900 
Rotational constants in MHz :   977.981209   618.375573   446.701796 

 Dipole components along the rotational axes: 
x,y,z [a.u.] :    -2.924634    -1.854105     0.133949 
x,y,z [Debye]:    -7.433828    -4.712762     0.340472 

 

                         *** MP2 UNRELAXED DENSITY ***

------------------------------------------------------------------------------
                       ORCA ELECTRIC PROPERTIES CALCULATION
------------------------------------------------------------------------------

Dipole Moment Calculation                       ... on
Quadrupole Moment Calculation                   ... off
Polarizability Calculation                      ... off
GBWName                                         ... 12h2o.su.etal.mol1,2,4,5,7,9,10,11-orca.engrad-mp2.def2tzvp.frozencore.gbw
Electron density file                           ... 12h2o.su.etal.mol1,2,4,5,7,9,10,11-orca.engrad-mp2.def2tzvp.frozencore.pmp2ur
The origin for moment calculation is the CENTER OF MASS  = (-0.822266, -0.445290  0.682693)

-------------
DIPOLE MOMENT
-------------
                                X             Y             Z
Electronic contribution:      0.26077      -0.38664      -0.13548
Nuclear contribution   :      0.76337      -1.13309      -2.77909
                        -----------------------------------------
Total Dipole Moment    :      1.02415      -1.51973      -2.91457
                        -----------------------------------------
Magnitude (a.u.)       :      3.44285
Magnitude (Debye)      :      8.75102



--------------------
Rotational spectrum 
--------------------
 
Rotational constants in cm-1:     0.032622     0.020627     0.014900 
Rotational constants in MHz :   977.981209   618.375573   446.701796 

 Dipole components along the rotational axes: 
x,y,z [a.u.] :    -2.902352    -1.847189     0.132021 
x,y,z [Debye]:    -7.377192    -4.695181     0.335570 

 

                           *** MP2 RELAXED DENSITY ***

------------------------------------------------------------------------------
                       ORCA ELECTRIC PROPERTIES CALCULATION
------------------------------------------------------------------------------

Dipole Moment Calculation                       ... on
Quadrupole Moment Calculation                   ... off
Polarizability Calculation                      ... off
GBWName                                         ... 12h2o.su.etal.mol1,2,4,5,7,9,10,11-orca.engrad-mp2.def2tzvp.frozencore.gbw
Electron density file                           ... 12h2o.su.etal.mol1,2,4,5,7,9,10,11-orca.engrad-mp2.def2tzvp.frozencore.pmp2re
The origin for moment calculation is the CENTER OF MASS  = (-0.822266, -0.445290  0.682693)

-------------
DIPOLE MOMENT
-------------
                                X             Y             Z
Electronic contribution:      0.27231      -0.39569      -0.12290
Nuclear contribution   :      0.76337      -1.13309      -2.77909
                        -----------------------------------------
Total Dipole Moment    :      1.03568      -1.52878      -2.90199
                        -----------------------------------------
Magnitude (a.u.)       :      3.43967
Magnitude (Debye)      :      8.74295



--------------------
Rotational spectrum 
--------------------
 
Rotational constants in cm-1:     0.032622     0.020627     0.014900 
Rotational constants in MHz :   977.981209   618.375573   446.701796 

 Dipole components along the rotational axes: 
x,y,z [a.u.] :    -2.890533    -1.860308     0.124188 
x,y,z [Debye]:    -7.347152    -4.728528     0.315662 

 

Timings for individual modules:

Sum of individual times         ...      187.728 sec (=   3.129 min)
GTO integral calculation        ...        1.013 sec (=   0.017 min)   0.5 %
SCF iterations                  ...       29.128 sec (=   0.485 min)  15.5 %
MP2 module                      ...      157.587 sec (=   2.626 min)  83.9 %
                             ****ORCA TERMINATED NORMALLY****
TOTAL RUN TIME: 0 days 0 hours 3 minutes 8 seconds 854 msec
