
                                 *****************
                                 * O   R   C   A *
                                 *****************

           --- An Ab Initio, DFT and Semiempirical electronic structure package ---

                  #######################################################
                  #                        -***-                        #
                  #          Department of theory and spectroscopy      #
                  #               Directorship: Frank Neese             #
                  #        Max Planck Institute fuer Kohlenforschung    #
                  #                Kaiser Wilhelm Platz 1               #
                  #                 D-45470 Muelheim/Ruhr               #
                  #                      Germany                        #
                  #                                                     #
                  #                  All rights reserved                #
                  #                        -***-                        #
                  #######################################################


                         Program Version 4.2.0 -  RELEASE  -


 With contributions from (in alphabetic order):
   Daniel Aravena         : Magnetic Suceptibility
   Michael Atanasov       : Ab Initio Ligand Field Theory (pilot matlab implementation)
   Alexander A. Auer      : GIAO ZORA, VPT2
   Ute Becker             : Parallelization
   Giovanni Bistoni       : ED, misc. LED, open-shell LED, HFLED
   Martin Brehm           : Molecular dynamics
   Dmytro Bykov           : SCF Hessian
   Vijay G. Chilkuri      : MRCI spin determinant printing, contributions to CSF-ICE
   Dipayan Datta          : RHF DLPNO-CCSD density
   Achintya Kumar Dutta   : EOM-CC, STEOM-CC
   Dmitry Ganyushin       : Spin-Orbit,Spin-Spin,Magnetic field MRCI
   Miquel Garcia          : C-PCM Hessian, Gaussian charge scheme
   Yang Guo               : DLPNO-NEVPT2, CIM, IAO-localization
   Andreas Hansen         : Spin unrestricted coupled pair/coupled cluster methods
   Benjamin Helmich-Paris : CASSCF linear response (MC-RPA)
   Lee Huntington         : MR-EOM, pCC
   Robert Izsak           : Overlap fitted RIJCOSX, COSX-SCS-MP3, EOM
   Christian Kollmar      : KDIIS, OOCD, Brueckner-CCSD(T), CCSD density
   Simone Kossmann        : Meta GGA functionals, TD-DFT gradient, OOMP2, MP2 Hessian
   Martin Krupicka        : AUTO-CI
   Lucas Lang             : DCDCAS
   Dagmar Lenk            : GEPOL surface, SMD
   Dimitrios Liakos       : Extrapolation schemes; Compound Job, initial MDCI parallelization
   Dimitrios Manganas     : Further ROCIS development; embedding schemes
   Dimitrios Pantazis     : SARC Basis sets
   Taras Petrenko         : DFT Hessian,TD-DFT gradient, ASA, ECA, R-Raman, ABS, FL, XAS/XES, NRVS
   Peter Pinski           : DLPNO-MP2, DLPNO-MP2 Gradient
   Christoph Reimann      : Effective Core Potentials
   Marius Retegan         : Local ZFS, SOC
   Christoph Riplinger    : Optimizer, TS searches, QM/MM, DLPNO-CCSD(T), (RO)-DLPNO pert. Triples
   Tobias Risthaus        : Range-separated hybrids, TD-DFT gradient, RPA, STAB
   Michael Roemelt        : Original ROCIS implementation
   Masaaki Saitow         : Open-shell DLPNO-CCSD energy and density
   Barbara Sandhoefer     : DKH picture change effects
   Avijit Sen             : IP-ROCIS
   Kantharuban Sivalingam : CASSCF convergence, NEVPT2, FIC-MRCI
   Bernardo de Souza      : ESD, SOC TD-DFT
   Georgi Stoychev        : AutoAux, RI-MP2 NMR
   Willem Van den Heuvel  : Paramagnetic NMR
   Boris Wezisla          : Elementary symmetry handling
   Frank Wennmohs         : Technical directorship


 We gratefully acknowledge several colleagues who have allowed us to
 interface, adapt or use parts of their codes:
   Stefan Grimme, W. Hujo, H. Kruse,             : VdW corrections, initial TS optimization,
                  C. Bannwarth                     DFT functionals, gCP, sTDA/sTD-DF
   Ed Valeev, F. Pavosevic, A. Kumar             : LibInt (2-el integral package), F12 methods
   Garnet Chan, S. Sharma, J. Yang, R. Olivares  : DMRG
   Ulf Ekstrom                                   : XCFun DFT Library
   Mihaly Kallay                                 : mrcc  (arbitrary order and MRCC methods)
   Andreas Klamt, Michael Diedenhofen            : otool_cosmo (COSMO solvation model)
   Jiri Pittner, Ondrej Demel                    : Mk-CCSD
   Frank Weinhold                                : gennbo (NPA and NBO analysis)
   Christopher J. Cramer and Donald G. Truhlar   : smd solvation model
   Lars Goerigk                                  : TD-DFT with DH, B97 family of functionals
   V. Asgeirsson, H. Jonsson                     : NEB implementation
   FAccTs GmbH                                   : IRC, NEB, NEB-TS, Multilevel, MM, QM/MM, CI optimization
   S Lehtola, MJT Oliveira, MAL Marques          : LibXC Library


 Your calculation uses the libint2 library for the computation of 2-el integrals
 For citations please refer to: http://libint.valeyev.net

 Your ORCA version has been built with support for libXC version: 4.2.3
 For citations please refer to: https://tddft.org/programs/libxc/

 This ORCA versions uses:
   CBLAS   interface :  Fast vector & matrix operations
   LAPACKE interface :  Fast linear algebra routines
   SCALAPACK package :  Parallel linear algebra routines


----- Orbital basis set information -----
Your calculation utilizes the basis: def2-TZVP
   F. Weigend and R. Ahlrichs, Phys. Chem. Chem. Phys. 7, 3297 (2005).

================================================================================
                                        WARNINGS
                       Please study these warnings very carefully!
================================================================================


WARNING: The frozen-core approximation for MP2-gradient calculations is turned on by default.

WARNING: Geometry Optimization
  ===> : Switching off AutoStart
         For restart on a previous wavefunction, please use MOREAD

WARNING: Post HF methods need fully converged wavefunctions
  ===> : Setting SCFConvForced true
         You can overwrite this default with %scf ConvForced false 


INFO   : the flag for use of LIBINT has been found!

================================================================================
                                       INPUT FILE
================================================================================
NAME = input.inp
|  1> # Functional Basis-set
|  2> ! MP2 def2-TZVP
|  3> 
|  4> # Type of calculation
|  5> ! OPT
|  6> 
|  7> # Options
|  8> ! TightSCF Grid4
|  9> %maxcore 2000
| 10> 
| 11> %pal nprocs 24 end
| 12> 
| 13> *xyz  0  1
| 14> O    -2.867666    -1.821372    -0.772018
| 15> H    -1.982241    -2.110818    -0.955241
| 16> H    -2.999116    -1.037472    -1.292291
| 17> O     0.043817    -1.866490    -0.767104
| 18> H     0.048987    -1.609614     0.152031
| 19> H     0.923713    -2.171052    -0.955827
| 20> O     2.930036    -1.852845    -0.941014
| 21> H     2.970082    -0.973048    -1.322711
| 22> H     3.610150    -2.363474    -1.348915
| 23> O    -2.935599     0.927315    -1.851481
| 24> H    -2.976890     1.307539    -0.971120
| 25> H    -3.617549     1.333190    -2.361278
| 26> O    -0.049937     0.768624    -1.864595
| 27> H    -0.051102    -0.150622    -1.608116
| 28> H    -0.930018     0.953578    -2.170817
| 29> O     2.861689     0.784646    -1.824610
| 30> H     1.975329     0.963600    -2.113946
| 31> H     2.990362     1.304807    -1.040165
| 32> O    -2.870860     1.809723     0.786711
| 33> H    -2.994629     1.024733     1.307312
| 34> H    -1.986549     2.104959     0.965905
| 35> O     0.041043     1.866434     0.769987
| 36> H     0.041900     1.609528    -0.149127
| 37> H     0.919901     2.177253     0.953121
| 38> O     2.927814     1.864104     0.922952
| 39> H     2.972441     0.984434     1.304398
| 40> H     3.610126     2.376036     1.325540
| 41> O    -2.921378    -0.938585     1.865604
| 42> H    -2.966858    -1.319314     0.985644
| 43> H    -3.599494    -1.345653     2.379560
| 44> O    -0.035371    -0.767829     1.868273
| 45> H    -0.040157     0.151604     1.612372
| 46> H    -0.914375    -0.955770     2.175766
| 47> O     2.876537    -0.774086     1.807503
| 48> H     3.001442    -1.293952     1.022253
| 49> H     1.993489    -0.957585     2.104019
| 50> *
| 51> 
| 52>                          ****END OF INPUT****
================================================================================

                       *****************************
                       * Geometry Optimization Run *
                       *****************************

Geometry optimization settings:
Update method            Update   .... BFGS
Choice of coordinates    CoordSys .... Z-matrix Internals
Initial Hessian          InHess   .... Almoef's Model

Convergence Tolerances:
Energy Change            TolE     ....  5.0000e-06 Eh
Max. Gradient            TolMAXG  ....  3.0000e-04 Eh/bohr
RMS Gradient             TolRMSG  ....  1.0000e-04 Eh/bohr
Max. Displacement        TolMAXD  ....  4.0000e-03 bohr
RMS Displacement         TolRMSD  ....  2.0000e-03 bohr
Strict Convergence                ....  False
------------------------------------------------------------------------------
                        ORCA OPTIMIZATION COORDINATE SETUP
------------------------------------------------------------------------------

The optimization will be done in new redundant internal coordinates
Making redundant internal coordinates   ...  (new redundants) done
Evaluating the initial hessian          ...  (Almloef) done
Evaluating the coordinates              ...  done
Calculating the B-matrix                .... done
Calculating the G-matrix                .... done
Diagonalizing the G-matrix              .... done
The first mode is                       .... 1010
The number of degrees of freedom        ....  102

    -----------------------------------------------------------------
                    Redundant Internal Coordinates


    -----------------------------------------------------------------
         Definition                    Initial Value    Approx d2E/dq
    -----------------------------------------------------------------
      1. B(H   1,O   0)                  0.9494         0.540638   
      2. B(H   2,O   0)                  0.9500         0.539452   
      3. B(O   3,H   1)                  2.0494         0.009504   
      4. B(H   4,H   1)                  2.3671         0.000632   
      5. B(H   4,O   3)                  0.9544         0.530823   
      6. B(H   5,O   3)                  0.9500         0.539317   
      7. B(O   6,H   5)                  2.0315         0.010151   
      8. B(H   7,O   6)                  0.9599         0.520216   
      9. B(H   7,H   5)                  2.3995         0.000561   
     10. B(H   8,O   6)                  0.9432         0.552999   
     11. B(O   9,H   2)                  2.0438         0.009701   
     12. B(H  10,O   9)                  0.9598         0.520244   
     13. B(H  10,H   2)                  2.3670         0.000633   
     14. B(H  11,O   9)                  0.9432         0.552996   
     15. B(H  13,H   5)                  2.3362         0.000708   
     16. B(H  13,O   3)                  1.9132         0.015672   
     17. B(H  13,O  12)                  0.9544         0.530849   
     18. B(H  13,H   4)                  2.2884         0.000844   
     19. B(H  14,O   9)                  2.0310         0.010168   
     20. B(H  14,O  12)                  0.9500         0.539389   
     21. B(H  14,H  10)                  2.3988         0.000563   
     22. B(O  15,H   7)                  1.8312         0.021188   
     23. B(H  16,H  13)                  2.3672         0.000632   
     24. B(H  16,O  15)                  0.9494         0.540589   
     25. B(H  16,O  12)                  2.0499         0.009488   
     26. B(H  16,H   7)                  2.3165         0.000761   
     27. B(H  17,H   7)                  2.2954         0.000823   
     28. B(H  17,O  15)                  0.9500         0.539435   
     29. B(O  18,H  10)                  1.8312         0.021182   
     30. B(H  19,H  10)                  2.2960         0.000821   
     31. B(H  19,O  18)                  0.9500         0.539357   
     32. B(H  20,O  18)                  0.9494         0.540686   
     33. B(H  20,H  10)                  2.3170         0.000760   
     34. B(O  21,H  20)                  2.0510         0.009450   
     35. B(H  22,O  21)                  0.9543         0.530873   
     36. B(H  22,H  14)                  2.3371         0.000706   
     37. B(H  22,H  20)                  2.3671         0.000632   
     38. B(H  22,H  13)                  2.2881         0.000845   
     39. B(H  22,O  12)                  1.9127         0.015704   
     40. B(H  23,O  21)                  0.9500         0.539373   
     41. B(O  24,H  17)                  2.0422         0.009759   
     42. B(O  24,H  23)                  2.0324         0.010116   
     43. B(H  25,H  17)                  2.3664         0.000634   
     44. B(H  25,O  24)                  0.9598         0.520243   
     45. B(H  25,H  23)                  2.3998         0.000561   
     46. B(H  26,O  24)                  0.9432         0.552977   
     47. B(O  27,H  19)                  2.0425         0.009749   
     48. B(H  28,H  19)                  2.3662         0.000634   
     49. B(H  28,H   2)                  2.2955         0.000822   
     50. B(H  28,H   1)                  2.3158         0.000763   
     51. B(H  28,O   0)                  1.8306         0.021228   
     52. B(H  28,O  27)                  0.9599         0.520202   
     53. B(H  29,O  27)                  0.9432         0.552982   
     54. B(O  30,H   4)                  1.9134         0.015662   
     55. B(H  31,H  22)                  2.2880         0.000845   
     56. B(H  31,O  21)                  1.9123         0.015727   
     57. B(H  31,O  30)                  0.9544         0.530778   
     58. B(H  31,H   4)                  2.2896         0.000840   
     59. B(H  31,H  23)                  2.3366         0.000707   
     60. B(H  32,H  28)                  2.4003         0.000560   
     61. B(H  32,O  27)                  2.0309         0.010172   
     62. B(H  32,O  30)                  0.9500         0.539390   
     63. B(H  32,H   4)                  2.3348         0.000712   
     64. B(O  33,H  25)                  1.8316         0.021155   
     65. B(H  34,O  33)                  0.9500         0.539434   
     66. B(H  34,H  25)                  2.2960         0.000821   
     67. B(H  34,H   7)                  2.3670         0.000633   
     68. B(H  34,O   6)                  2.0425         0.009747   
     69. B(H  35,O  33)                  0.9494         0.540596   
     70. B(H  35,H  31)                  2.3681         0.000630   
     71. B(H  35,O  30)                  2.0513         0.009438   
     72. B(H  35,H  25)                  2.3171         0.000760   
     73. A(H   2,O   0,H  28)          106.9795         0.202833   
     74. A(H   1,O   0,H   2)          105.9580         0.325864   
     75. A(H   1,O   0,H  28)          108.6293         0.202889   
     76. A(O   3,H   1,H   4)           23.5767         0.105667   
     77. A(O   3,H   1,H  28)          107.6165         0.106393   
     78. A(O   0,H   1,H   4)          130.2009         0.130598   
     79. A(O   0,H   1,H  28)           48.5109         0.132410   
     80. A(H   4,H   1,H  28)           84.2857         0.096620   
     81. A(O   0,H   1,O   3)          150.2213         0.183950   
     82. A(O   9,H   2,H  28)          112.8986         0.106771   
     83. A(O   0,H   2,H  28)           49.7047         0.133126   
     84. A(O   0,H   2,H  10)          137.8932         0.130580   
     85. A(O   0,H   2,O   9)          159.8539         0.184345   
     86. A(H  10,H   2,H  28)           89.2471         0.096750   
     87. A(O   9,H   2,H  10)           23.7125         0.105746   
     88. A(H   4,O   3,H  13)          100.4993         0.194890   
     89. A(H   1,O   3,H   4)           97.2302         0.183557   
     90. A(H   4,O   3,H   5)          105.8179         0.324870   
     91. A(H   5,O   3,H  13)          104.2488         0.195271   
     92. A(H   1,O   3,H  13)           91.0039         0.131603   
     93. A(H   1,O   3,H   5)          149.2224         0.183897   
     94. A(H   1,H   4,O  30)          118.3522         0.107662   
     95. A(O   3,H   4,O  30)          169.1141         0.194874   
     96. A(O   3,H   4,H  32)          155.2205         0.131555   
     97. A(O  30,H   4,H  32)           23.2406         0.108170   
     98. A(O   3,H   4,H  31)          145.1937         0.133182   
     99. A(H   1,H   4,H  31)          115.3288         0.096787   
    100. A(H  13,H   4,O  30)          114.0467         0.108923   
    101. A(H   1,H   4,H  32)           96.3550         0.096501   
    102. A(O  30,H   4,H  31)           24.1892         0.108903   
    103. A(H  13,H   4,H  32)          118.0410         0.097008   
    104. A(H  31,H   4,H  32)           38.3419         0.097000   
    105. A(O   3,H   4,H  13)           55.2919         0.133227   
    106. A(H   1,H   4,O   3)           59.1931         0.130426   
    107. A(H  13,H   4,H  31)           89.9113         0.097314   
    108. A(H   1,H   4,H  13)           74.7916         0.096795   
    109. A(O   3,H   5,H   7)          131.3140         0.129471   
    110. A(O   6,H   5,H   7)           23.1637         0.105468   
    111. A(H   7,H   5,H  13)           83.1873         0.096293   
    112. A(O   3,H   5,H  13)           52.5382         0.131656   
    113. A(O   6,H   5,H  13)          106.1808         0.106357   
    114. A(O   3,H   5,O   6)          149.6595         0.185323   
    115. A(H   7,O   6,H   8)          107.1069         0.325130   
    116. A(H   5,O   6,H  34)           94.8414         0.127836   
    117. A(H   5,O   6,H   8)          128.6218         0.185871   
    118. A(H   5,O   6,H   7)          100.4792         0.184540   
    119. A(H   7,O   6,H  34)           97.4676         0.183665   
    120. A(H   8,O   6,H  34)          122.5882         0.184984   
    121. A(H  16,H   7,H  34)          117.2202         0.096616   
    122. A(H  16,H   7,H  17)           38.3908         0.097083   
    123. A(O  15,H   7,H  34)          113.7315         0.108984   
    124. A(O  15,H   7,H  16)           22.8508         0.109841   
    125. A(O   6,H   7,H  16)          152.1526         0.132008   
    126. A(O   6,H   7,H  34)           58.8245         0.130239   
    127. A(H  17,H   7,H  34)           90.7147         0.096751   
    128. A(H   5,H   7,H  17)          118.9585         0.096544   
    129. A(H   5,H   7,H  34)           78.0026         0.096108   
    130. A(H   5,H   7,H  16)           95.9354         0.096413   
    131. A(H   5,H   7,O  15)          118.0781         0.108452   
    132. A(O   6,H   7,O  15)          170.5176         0.201853   
    133. A(H   5,H   7,O   6)           56.3571         0.129142   
    134. A(O   6,H   7,H  17)          149.4289         0.132770   
    135. A(O  15,H   7,H  17)           23.3237         0.110210   
    136. A(H  11,O   9,H  14)          128.5646         0.185906   
    137. A(H  10,O   9,H  14)          100.4610         0.184576   
    138. A(H   2,O   9,H  10)           97.3848         0.183566   
    139. A(H   2,O   9,H  14)           94.9415         0.127809   
    140. A(H  10,O   9,H  11)          107.1074         0.325133   
    141. A(H   2,O   9,H  11)          122.6207         0.184881   
    142. A(O  18,H  10,H  19)           23.3134         0.110199   
    143. A(H   2,H  10,H  19)           90.7189         0.096747   
    144. A(H   2,H  10,O  18)          113.7331         0.108983   
    145. A(O   9,H  10,H  19)          149.5096         0.132749   
    146. A(O   9,H  10,O  18)          170.5976         0.201848   
    147. A(H  14,H  10,H  19)          118.9940         0.096545   
    148. A(H  14,H  10,O  18)          118.1081         0.108462   
    149. A(H  19,H  10,H  20)           38.3806         0.097076   
    150. A(O   9,H  10,H  14)           56.3674         0.129164   
    151. A(H   2,H  10,O   9)           58.9027         0.130240   
    152. A(H   2,H  10,H  14)           78.1100         0.096112   
    153. A(O  18,H  10,H  20)           22.8380         0.109831   
    154. A(O   9,H  10,H  20)          152.2145         0.131990   
    155. A(H  14,H  10,H  20)           95.9794         0.096414   
    156. A(H   2,H  10,H  20)          117.2840         0.096613   
    157. A(H  14,O  12,H  16)          149.0426         0.183864   
    158. A(H  13,O  12,H  14)          105.8440         0.324880   
    159. A(H  13,O  12,H  22)          100.5151         0.194940   
    160. A(H  16,O  12,H  22)           91.1371         0.131606   
    161. A(H  13,O  12,H  16)           97.2105         0.183522   
    162. A(H  14,O  12,H  22)          104.3583         0.195324   
    163. A(O  12,H  13,H  16)           59.2135         0.130421   
    164. A(O  12,H  13,H  22)           55.2744         0.133238   
    165. A(H   4,H  13,H  16)          115.2775         0.096795   
    166. A(H   5,H  13,H  16)           96.2884         0.096491   
    167. A(H   5,H  13,H  22)          118.0529         0.097000   
    168. A(H  16,H  13,H  22)           74.8929         0.096797   
    169. A(O   3,H  13,H  16)          118.2674         0.107662   
    170. A(H   4,H  13,H   5)           38.3360         0.096998   
    171. A(O   3,H  13,H   5)           23.2131         0.108150   
    172. A(H   5,H  13,O  12)          155.1678         0.131504   
    173. A(H   4,H  13,H  22)           89.8982         0.097325   
    174. A(H   4,H  13,O  12)          145.1607         0.133227   
    175. A(O   3,H  13,H  22)          114.0538         0.108931   
    176. A(O   3,H  13,H   4)           24.2088         0.108926   
    177. A(O   3,H  13,O  12)          169.0865         0.194891   
    178. A(O   9,H  14,H  10)           23.1716         0.105483   
    179. A(H  10,H  14,H  22)           83.1547         0.096291   
    180. A(O   9,H  14,H  22)          106.1572         0.106350   
    181. A(O   9,H  14,O  12)          149.4956         0.185361   
    182. A(O  12,H  14,H  22)           52.4510         0.131625   
    183. A(H  10,H  14,O  12)          131.1474         0.129494   
    184. A(H  16,O  15,H  17)          105.9557         0.325857   
    185. A(H   7,O  15,H  17)          106.9318         0.202784   
    186. A(H   7,O  15,H  16)          108.6460         0.202839   
    187. A(H   7,H  16,H  13)           84.3247         0.096615   
    188. A(H  13,H  16,O  15)          130.1918         0.130592   
    189. A(H   7,H  16,O  12)          107.6499         0.106376   
    190. A(O  12,H  16,O  15)          150.1574         0.183911   
    191. A(H   7,H  16,O  15)           48.5032         0.132384   
    192. A(O  12,H  16,H  13)           23.5760         0.105658   
    193. A(O  24,H  17,H  25)           23.7153         0.105776   
    194. A(O  15,H  17,H  25)          137.9843         0.130600   
    195. A(H   7,H  17,H  25)           89.2861         0.096755   
    196. A(H   7,H  17,O  24)          112.9441         0.106797   
    197. A(O  15,H  17,O  24)          159.9804         0.184471   
    198. A(H   7,H  17,O  15)           49.7444         0.133131   
    199. A(H  10,O  18,H  20)          108.6873         0.202837   
    200. A(H  10,O  18,H  19)          106.9708         0.202773   
    201. A(H  19,O  18,H  20)          105.9549         0.325859   
    202. A(H  10,H  19,O  18)           49.7159         0.133108   
    203. A(O  27,H  19,H  28)           23.7204         0.105776   
    204. A(H  10,H  19,H  28)           89.2567         0.096752   
    205. A(O  18,H  19,H  28)          137.9472         0.130607   
    206. A(H  10,H  19,O  27)          112.9157         0.106784   
    207. A(O  18,H  19,O  27)          159.9470         0.184447   
    208. A(O  21,H  20,H  22)           23.5808         0.105644   
    209. A(H  10,H  20,H  22)           84.2863         0.096612   
    210. A(O  18,H  20,H  22)          130.1063         0.130597   
    211. A(H  10,H  20,O  21)          107.6176         0.106352   
    212. A(O  18,H  20,O  21)          150.0745         0.183828   
    213. A(H  10,H  20,O  18)           48.4747         0.132366   
    214. A(H  22,O  21,H  23)          105.8366         0.324881   
    215. A(H  20,O  21,H  31)           91.1593         0.131581   
    216. A(H  20,O  21,H  23)          149.1031         0.183776   
    217. A(H  20,O  21,H  22)           97.1342         0.183436   
    218. A(H  23,O  21,H  31)          104.3446         0.195358   
    219. A(H  22,O  21,H  31)          100.5380         0.194977   
    220. A(H  13,H  22,H  14)           38.3357         0.096994   
    221. A(O  12,H  22,H  14)           23.1906         0.108144   
    222. A(H  14,H  22,H  31)          118.1780         0.096995   
    223. A(O  12,H  22,H  13)           24.2105         0.108941   
    224. A(H  13,H  22,H  31)           89.9585         0.097327   
    225. A(H  13,H  22,O  21)          145.1999         0.133239   
    226. A(O  12,H  22,H  31)          114.1186         0.108942   
    227. A(O  12,H  22,O  21)          169.1388         0.194941   
    228. A(H  14,H  22,O  21)          155.2692         0.131472   
    229. A(H  14,H  22,H  20)           96.3069         0.096486   
    230. A(H  13,H  22,H  20)          115.2476         0.096797   
    231. A(O  12,H  22,H  20)          118.2517         0.107672   
    232. A(H  20,H  22,H  31)           74.9290         0.096798   
    233. A(O  21,H  22,H  31)           55.2531         0.133241   
    234. A(H  20,H  22,O  21)           59.2850         0.130425   
    235. A(O  24,H  23,H  25)           23.1627         0.105450   
    236. A(H  25,H  23,H  31)           83.0629         0.096288   
    237. A(O  21,H  23,H  25)          131.0579         0.129460   
    238. A(O  24,H  23,H  31)          106.0540         0.106338   
    239. A(O  21,H  23,O  24)          149.3922         0.185249   
    240. A(O  21,H  23,H  31)           52.4574         0.131644   
    241. A(H  17,O  24,H  23)           94.9752         0.127815   
    242. A(H  23,O  24,H  26)          128.6596         0.185793   
    243. A(H  23,O  24,H  25)          100.4421         0.184465   
    244. A(H  17,O  24,H  26)          122.4642         0.185009   
    245. A(H  17,O  24,H  25)           97.4463         0.183692   
    246. A(H  25,O  24,H  26)          107.1067         0.325131   
    247. A(O  33,H  25,H  35)           22.8411         0.109823   
    248. A(H  23,H  25,H  35)           96.0702         0.096407   
    249. A(H  17,H  25,H  35)          117.2946         0.096616   
    250. A(O  24,H  25,H  35)          152.3246         0.131986   
    251. A(O  33,H  25,H  34)           23.3157         0.110193   
    252. A(H  23,H  25,H  34)          119.0815         0.096539   
    253. A(H  17,H  25,H  34)           90.7161         0.096751   
    254. A(O  24,H  25,H  34)          149.4514         0.132750   
    255. A(H  23,H  25,O  33)          118.2058         0.108439   
    256. A(H  17,H  25,O  33)          113.7361         0.108987   
    257. A(O  24,H  25,O  33)          170.6209         0.201814   
    258. A(H  17,H  25,H  23)           78.1214         0.096110   
    259. A(H  34,H  25,H  35)           38.3769         0.097075   
    260. A(H  23,H  25,O  24)           56.3952         0.129130   
    261. A(H  17,H  25,O  24)           58.8384         0.130261   
    262. A(H  29,O  27,H  32)          128.5793         0.185915   
    263. A(H  28,O  27,H  32)          100.5722         0.184584   
    264. A(H  28,O  27,H  29)          107.1144         0.325127   
    265. A(H  19,O  27,H  32)           94.8945         0.127855   
    266. A(H  19,O  27,H  29)          122.5474         0.184987   
    267. A(H  19,O  27,H  28)           97.4112         0.183669   
    268. A(O   0,H  28,O  27)          170.5436         0.201900   
    269. A(H   1,H  28,H  32)           95.9554         0.096413   
    270. A(O   0,H  28,H  32)          118.1166         0.108447   
    271. A(O  27,H  28,H  32)           56.2793         0.129115   
    272. A(H   2,H  28,H  32)          119.0420         0.096539   
    273. A(H   1,H  28,H   2)           38.3958         0.097087   
    274. A(O   0,H  28,H   2)           23.3158         0.110217   
    275. A(H   2,H  28,O  27)          149.5065         0.132765   
    276. A(H  19,H  28,H  32)           78.0292         0.096109   
    277. A(H   2,H  28,H  19)           90.7510         0.096755   
    278. A(H   1,H  28,H  19)          117.2266         0.096626   
    279. A(O   0,H  28,H  19)          113.7562         0.109006   
    280. A(H  19,H  28,O  27)           58.8683         0.130268   
    281. A(O   0,H  28,H   1)           22.8598         0.109862   
    282. A(H   1,H  28,O  27)          152.0980         0.132033   
    283. A(H   4,O  30,H  35)           91.0761         0.131528   
    284. A(H  32,O  30,H  35)          149.2754         0.183749   
    285. A(H  31,O  30,H  35)           97.1745         0.183405   
    286. A(H  31,O  30,H  32)          105.8268         0.324873   
    287. A(H   4,O  30,H  32)          104.1273         0.195258   
    288. A(H   4,O  30,H  31)          100.5762         0.194872   
    289. A(H   4,H  31,H  35)           74.8520         0.096781   
    290. A(H  23,H  31,H  35)           96.4183         0.096483   
    291. A(H  22,H  31,H  35)          115.3087         0.096792   
    292. A(O  21,H  31,H  35)          118.3607         0.107664   
    293. A(O  30,H  31,H  35)           59.2554         0.130391   
    294. A(H   4,H  31,H  23)          118.0930         0.096988   
    295. A(H   4,H  31,H  22)           89.8690         0.097317   
    296. A(H   4,H  31,O  21)          114.0273         0.108922   
    297. A(H   4,H  31,O  30)           55.2346         0.133181   
    298. A(H  22,H  31,H  23)           38.3392         0.096998   
    299. A(O  21,H  31,H  23)           23.1981         0.108159   
    300. A(H  23,H  31,O  30)          155.3354         0.131490   
    301. A(O  21,H  31,H  22)           24.2089         0.108948   
    302. A(H  22,H  31,O  30)          145.0945         0.133239   
    303. A(O  21,H  31,O  30)          169.0507         0.194972   
    304. A(O  27,H  32,H  28)           23.1484         0.105465   
    305. A(H  28,H  32,O  30)          131.3511         0.129445   
    306. A(O  27,H  32,O  30)          149.6849         0.185370   
    307. A(H   4,H  32,H  28)           83.1447         0.096297   
    308. A(H   4,H  32,O  27)          106.1263         0.106386   
    309. A(H   4,H  32,O  30)           52.6321         0.131709   
    310. A(H  25,O  33,H  35)          108.6664         0.202799   
    311. A(H  25,O  33,H  34)          106.9459         0.202743   
    312. A(H  34,O  33,H  35)          105.9430         0.325858   
    313. A(H   7,H  34,H  25)           89.2574         0.096747   
    314. A(O   6,H  34,H  25)          112.9054         0.106783   
    315. A(H  25,H  34,O  33)           49.7383         0.133110   
    316. A(O   6,H  34,H   7)           23.7080         0.105763   
    317. A(H   7,H  34,O  33)          137.9835         0.130579   
    318. A(O   6,H  34,O  33)          159.9944         0.184446   
    319. A(O  30,H  35,H  31)           23.5701         0.105627   
    320. A(H  25,H  35,H  31)           84.1807         0.096605   
    321. A(H  31,H  35,O  33)          130.0447         0.130564   
    322. A(H  25,H  35,O  30)          107.4979         0.106346   
    323. A(O  30,H  35,O  33)          150.0152         0.183797   
    324. A(H  25,H  35,O  33)           48.4925         0.132361   
    325. D(H   4,H   1,O   0,H   2)     91.7747         0.463230   
    326. D(H   4,H   1,O   0,H  28)    -22.8659         0.463230   
    327. D(O   3,H   1,O   0,H   2)     71.7004         0.463230   
    328. D(O   3,H   1,O   0,H  28)    -42.9401         0.463230   
    329. D(H  28,H   1,O   0,H   2)    114.6406         0.463230   
    330. D(H  10,H   2,O   0,H   1)   -100.3211         0.460589   
    331. D(O   9,H   2,O   0,H  28)     33.8923         0.460589   
    332. D(H  28,H   2,O   0,H   1)   -115.7664         0.460589   
    333. D(H  10,H   2,O   0,H  28)     15.4453         0.460589   
    334. D(O   9,H   2,O   0,H   1)    -81.8741         0.460589   
    335. D(H  13,O   3,H   1,H  28)    -92.1342         0.001561   
    336. D(H   5,O   3,H   1,H   4)    138.5874         0.001561   
    337. D(H   4,O   3,H   1,O   0)     40.9531         0.001561   
    338. D(H  13,O   3,H   1,H   4)   -100.7156         0.001561   
    339. D(H  13,O   3,H   1,O   0)    -59.7626         0.001561   
    340. D(H   5,O   3,H   1,H  28)    147.1688         0.001561   
    341. D(H   5,O   3,H   1,O   0)    179.5405         0.001561   
    342. D(H   4,O   3,H   1,H  28)      8.5814         0.001561   
    343. D(H  32,H   4,O   3,H  13)     82.1822         0.540906   
    344. D(H  32,H   4,H   1,H  28)      3.9366         0.001506   
    345. D(O  30,H   4,H   1,H  28)     -3.9850         0.001506   
    346. D(H  13,H   4,H   1,H  28)   -113.4440         0.001506   
    347. D(H   1,H   4,O   3,H   5)   -159.4023         0.540906   
    348. D(H  31,H   4,H   1,O   0)    -13.9300         0.001506   
    349. D(H  31,H   4,O   3,H   5)    109.7450         0.540906   
    350. D(H  31,H   4,H   1,O   3)    140.8434         0.001506   
    351. D(O  30,H   4,O   3,H   5)    120.5524         0.540906   
    352. D(H  32,H   4,O   3,H   5)   -169.5971         0.540906   
    353. D(H  13,H   4,H   1,O   0)    -96.4346         0.001506   
    354. D(H  32,H   4,H   1,O   3)    175.7194         0.001506   
    355. D(H  31,H   4,H   1,H  28)    -30.9393         0.001506   
    356. D(H   1,H   4,O   3,H  13)     92.3769         0.540906   
    357. D(H  13,H   4,O   3,H   1)    -92.3769         0.540906   
    358. D(H  32,H   4,O   3,H   1)    -10.1948         0.540906   
    359. D(O   3,H   4,H   1,H  28)   -171.7827         0.001506   
    360. D(H  13,H   4,O   3,H   5)    108.2208         0.540906   
    361. D(O  30,H   4,H   1,O   0)     13.0243         0.001506   
    362. D(O  30,H   4,O   3,H  13)     12.3316         0.540906   
    363. D(O  30,H   4,O   3,H   1)    -80.0453         0.540906   
    364. D(H  31,H   4,O   3,H   1)    -90.8527         0.540906   
    365. D(H  13,H   4,H   1,O   3)     58.3387         0.001506   
    366. D(O   3,H   4,H   1,O   0)   -154.7733         0.001506   
    367. D(H  31,H   4,O   3,H  13)      1.5242         0.540906   
    368. D(O  30,H   4,H   1,O   3)    167.7977         0.001506   
    369. D(H  32,H   4,H   1,O   0)     20.9460         0.001506   
    370. D(H   7,H   5,O   3,H  13)     29.2514         0.496573   
    371. D(H  13,H   5,O   3,H   4)   -105.5067         0.496573   
    372. D(O   6,H   5,O   3,H   1)    169.6050         0.496573   
    373. D(H  13,H   5,O   3,H   1)    117.4969         0.496573   
    374. D(O   6,H   5,O   3,H  13)     52.1080         0.496573   
    375. D(O   6,H   5,O   3,H   4)    -53.3986         0.496573   
    376. D(H   7,H   5,O   3,H   1)    146.7483         0.496573   
    377. D(H   7,H   5,O   3,H   4)    -76.2553         0.496573   
    378. D(H  34,O   6,H   5,H   7)     98.5289         0.001570   
    379. D(H  34,O   6,H   5,O   3)     50.6539         0.001570   
    380. D(H   7,O   6,H   5,O   3)    -47.8751         0.001570   
    381. D(H   8,O   6,H   5,H   7)   -122.0499         0.001570   
    382. D(H  34,O   6,H   5,H  13)     91.3652         0.001570   
    383. D(H   8,O   6,H   5,O   3)   -169.9250         0.001570   
    384. D(H   8,O   6,H   5,H  13)   -129.2137         0.001570   
    385. D(H   7,O   6,H   5,H  13)     -7.1637         0.001570   
    386. D(O   6,H   7,H   5,O   3)    150.0791         0.001504   
    387. D(H  16,H   7,O   6,H  34)    -89.9566         0.513290   
    388. D(O   6,H   7,H   5,H  13)    173.0723         0.001504   
    389. D(H  17,H   7,O   6,H   8)   -132.8866         0.513290   
    390. D(H  34,H   7,O   6,H   8)   -127.4950         0.513290   
    391. D(O  15,H   7,H   5,O   3)    -20.9671         0.001504   
    392. D(H  17,H   7,O   6,H  34)     -5.3916         0.513290   
    393. D(H  16,H   7,O   6,H   8)    142.5484         0.513290   
    394. D(O  15,H   7,O   6,H  34)    -39.8982         0.513290   
    395. D(H  34,H   7,H   5,H  13)    112.6944         0.001504   
    396. D(O  15,H   7,O   6,H   8)   -167.3931         0.513290   
    397. D(H  34,H   7,H   5,O   6)    -60.3779         0.001504   
    398. D(H  16,H   7,O   6,H   5)      6.4053         0.513290   
    399. D(H   5,H   7,O   6,H  34)    -96.3619         0.513290   
    400. D(H  34,H   7,O   6,H   5)     96.3619         0.513290   
    401. D(O  15,H   7,O   6,H   5)     56.4637         0.513290   
    402. D(H  17,H   7,O   6,H   5)     90.9703         0.513290   
    403. D(H  17,H   7,H   5,O   6)   -144.4649         0.001504   
    404. D(H  17,H   7,H   5,H  13)     28.6074         0.001504   
    405. D(O  15,H   7,H   5,H  13)      2.0261         0.001504   
    406. D(H  16,H   7,H   5,O   6)   -176.9968         0.001504   
    407. D(H  16,H   7,H   5,H  13)     -3.9245         0.001504   
    408. D(H  34,H   7,H   5,O   3)     89.7012         0.001504   
    409. D(H   5,H   7,O   6,H   8)    136.1432         0.513290   
    410. D(H  16,H   7,H   5,O   3)    -26.9177         0.001504   
    411. D(H  17,H   7,H   5,O   3)      5.6142         0.001504   
    412. D(O  15,H   7,H   5,O   6)   -171.0462         0.001504   
    413. D(H  14,O   9,H   2,H  10)    101.2432         0.001564   
    414. D(H  11,O   9,H   2,O   0)   -147.6364         0.001564   
    415. D(H  11,O   9,H   2,H  10)   -115.7936         0.001564   
    416. D(H  11,O   9,H   2,H  28)   -120.1393         0.001564   
    417. D(H  10,O   9,H   2,H  28)     -4.3456         0.001564   
    418. D(H  10,O   9,H   2,O   0)    -31.8428         0.001564   
    419. D(H  14,O   9,H   2,H  28)     96.8975         0.001564   
    420. D(H  14,O   9,H   2,O   0)     69.4004         0.001564   
    421. D(H  20,H  10,O   9,H   2)     90.2095         0.513362   
    422. D(H  19,H  10,O   9,H   2)      5.4358         0.513362   
    423. D(O  18,H  10,O   9,H   2)     40.0532         0.513362   
    424. D(H  14,H  10,O   9,H   2)     96.4454         0.513362   
    425. D(H   2,H  10,O   9,H  14)    -96.4454         0.513362   
    426. D(O  18,H  10,O   9,H  11)    167.5444         0.513362   
    427. D(H  19,H  10,O   9,H  11)    132.9270         0.513362   
    428. D(H  20,H  10,O   9,H  11)   -142.2993         0.513362   
    429. D(H  20,H  10,O   9,H  14)     -6.2360         0.513362   
    430. D(H   2,H  10,O   9,H  11)    127.4912         0.513362   
    431. D(H  20,H  10,H   2,O   9)   -148.3645         0.001506   
    432. D(H  20,H  10,H   2,H  28)     27.6326         0.001506   
    433. D(H  20,H  10,H   2,O   0)     15.9117         0.001506   
    434. D(H  19,H  10,H   2,H  28)     -1.2477         0.001506   
    435. D(O   9,H  10,H   2,H  28)    175.9971         0.001506   
    436. D(O  18,H  10,H   2,O   9)   -173.4057         0.001506   
    437. D(O   9,H  10,H   2,O   0)    164.2762         0.001506   
    438. D(H  19,H  10,H   2,O   0)    -12.9686         0.001506   
    439. D(H  19,H  10,H   2,O   9)   -177.2447         0.001506   
    440. D(O  18,H  10,O   9,H  14)    -56.3923         0.513362   
    441. D(H  14,H  10,H   2,O   0)    106.5524         0.001506   
    442. D(H  14,H  10,O   9,H  11)   -136.0634         0.513362   
    443. D(H  14,H  10,H   2,O   9)    -57.7238         0.001506   
    444. D(H  19,H  10,O   9,H  14)    -91.0096         0.513362   
    445. D(O  18,H  10,H   2,O   0)     -9.1296         0.001506   
    446. D(H  14,H  10,H   2,H  28)    118.2733         0.001506   
    447. D(O  18,H  10,H   2,H  28)      2.5913         0.001506   
    448. D(H  22,H  13,O   3,H   4)      4.0380         0.001691   
    449. D(O  12,H  13,O   3,H   1)    113.0662         0.001691   
    450. D(O  12,H  13,O   3,H   5)    -93.9326         0.001691   
    451. D(O  12,H  13,O   3,H   4)     15.5234         0.001691   
    452. D(H  22,H  13,O  12,H  14)   -108.3523         0.540974   
    453. D(H  22,H  13,H   5,H   7)    -72.3660         0.001507   
    454. D(H   4,H  13,O  12,H  16)     90.8063         0.540974   
    455. D(H   4,H  13,O  12,H  14)   -110.0579         0.540974   
    456. D(O   3,H  13,O  12,H  22)    -12.7813         0.540974   
    457. D(H   5,H  13,O  12,H  16)     10.2863         0.540974   
    458. D(O   3,H  13,O  12,H  16)     79.7305         0.540974   
    459. D(H   5,H  13,O  12,H  14)    169.4221         0.540974   
    460. D(H   5,H  13,O  12,H  22)    -82.2256         0.540974   
    461. D(H  16,H  13,O  12,H  14)    159.1358         0.540974   
    462. D(O   3,H  13,O  12,H  14)   -121.1336         0.540974   
    463. D(H  22,H  13,O  12,H  16)     92.5119         0.540974   
    464. D(H  16,H  13,H   5,H   7)      3.8428         0.001507   
    465. D(H  16,H  13,H   5,O   6)      6.6745         0.001507   
    466. D(O   3,H  13,H   5,O   6)   -155.4755         0.001507   
    467. D(H  16,H  13,H   5,O   3)    162.1500         0.001507   
    468. D(H   4,H  13,H   5,O   6)   -116.9142         0.001507   
    469. D(H   4,H  13,H   5,O   3)     38.5613         0.001507   
    470. D(O   3,H  13,H   4,H   1)    -62.7860         0.001511   
    471. D(H  22,H  13,H   5,O   3)     85.9412         0.001507   
    472. D(H  16,H  13,H   4,H  31)     77.7551         0.001511   
    473. D(O  12,H  13,H   5,H   7)     -5.0353         0.001507   
    474. D(H  22,H  13,H   4,H   1)    120.9009         0.001511   
    475. D(H  16,H  13,H   4,O  30)     79.4166         0.001511   
    476. D(H  16,H  13,H   4,H   1)   -165.9008         0.001511   
    477. D(O   3,H  13,H   4,O  30)   -177.4686         0.001511   
    478. D(H   5,H  13,H   4,H  31)    144.0599         0.001511   
    479. D(H  16,H  13,H   4,O   3)   -103.1148         0.001511   
    480. D(H   5,H  13,H   4,O  30)    145.7214         0.001511   
    481. D(H   5,H  13,H   4,H   1)    -99.5960         0.001511   
    482. D(H  16,H  13,H   4,H  32)    104.9492         0.001511   
    483. D(H   5,H  13,H   4,H  32)    171.2540         0.001511   
    484. D(O   3,H  13,H   4,H  32)   -151.9360         0.001511   
    485. D(O   3,H  13,H   4,H  31)   -179.1300         0.001511   
    486. D(H   4,H  13,H   5,H   7)   -119.7459         0.001507   
    487. D(H  22,H  13,H   4,H  32)     31.7509         0.001511   
    488. D(H  22,H  13,H   4,H  31)      4.5568         0.001511   
    489. D(H  22,H  13,H   4,O  30)      6.2182         0.001511   
    490. D(H  22,H  13,O   3,H   5)   -105.4180         0.001691   
    491. D(H  22,H  13,H   5,O   6)    -69.5343         0.001507   
    492. D(H   5,H  13,H   4,O   3)    -36.8100         0.001511   
    493. D(O  12,H  13,H   5,O   6)     -2.2035         0.001507   
    494. D(O   3,H  13,H   5,H   7)   -158.3072         0.001507   
    495. D(O  12,H  13,H   4,H   1)    122.3026         0.001511   
    496. D(H   4,H  13,O   3,H   1)     97.5428         0.001691   
    497. D(O  12,H  13,H   4,O   3)   -174.9114         0.001511   
    498. D(H   4,H  13,O   3,H   5)   -109.4560         0.001691   
    499. D(H   5,H  13,O   3,H   4)    109.4560         0.001691   
    500. D(H   5,H  13,O   3,H   1)   -153.0012         0.001691   
    501. D(H  16,H  13,O   3,H   4)     89.2171         0.001691   
    502. D(H  22,H  13,H   4,O   3)   -176.3131         0.001511   
    503. D(O  12,H  13,H   4,H  31)      5.9585         0.001511   
    504. D(O  12,H  13,H   4,H  32)     33.1526         0.001511   
    505. D(O  12,H  13,H   5,O   3)    153.2719         0.001507   
    506. D(H   4,H  13,O  12,H  22)     -1.7056         0.540974   
    507. D(H  22,H  13,O   3,H   1)    101.5808         0.001691   
    508. D(H  16,H  13,O   3,H   5)    -20.2389         0.001691   
    509. D(O  12,H  13,H   4,O  30)      7.6200         0.001511   
    510. D(H  16,H  13,O  12,H  22)    -92.5119         0.540974   
    511. D(H  16,H  13,O   3,H   1)   -173.2401         0.001691   
    512. D(H  10,H  14,O  12,H  16)   -147.1983         0.496745   
    513. D(H  10,H  14,O  12,H  22)    -29.3867         0.496745   
    514. D(O   9,H  14,O  12,H  16)   -169.9842         0.496745   
    515. D(O   9,H  14,O  12,H  22)    -52.1727         0.496745   
    516. D(O   9,H  14,O  12,H  13)     53.4003         0.496745   
    517. D(H  22,H  14,O  12,H  16)   -117.8116         0.496745   
    518. D(H  22,H  14,O  12,H  13)    105.5730         0.496745   
    519. D(O   9,H  14,H  10,H  20)    177.0816         0.001504   
    520. D(O   9,H  14,H  10,H  19)    144.5490         0.001504   
    521. D(H  22,H  14,H  10,H  19)    -28.5457         0.001504   
    522. D(O  12,H  14,H  10,H  20)     27.0558         0.001504   
    523. D(O  12,H  14,O   9,H   2)    -50.6318         0.001570   
    524. D(H  10,H  14,O   9,H   2)    -98.4622         0.001570   
    525. D(H  22,H  14,O   9,H  11)    129.1297         0.001570   
    526. D(O  12,H  14,H  10,O   9)   -150.0258         0.001504   
    527. D(O  12,H  14,O   9,H  11)    169.8208         0.001570   
    528. D(O  12,H  14,H  10,H   2)    -89.6212         0.001504   
    529. D(H  22,H  14,O   9,H  10)      7.1392         0.001570   
    530. D(H  22,H  14,O   9,H   2)    -91.3229         0.001570   
    531. D(O  12,H  14,O   9,H  10)     47.8304         0.001570   
    532. D(O  12,H  14,H  10,O  18)     21.1008         0.001504   
    533. D(H  10,H  14,O   9,H  11)    121.9905         0.001570   
    534. D(H  22,H  14,H  10,O   9)   -173.0947         0.001504   
    535. D(H  22,H  14,H  10,H   2)   -112.6901         0.001504   
    536. D(O  12,H  14,H  10,H  19)     -5.4768         0.001504   
    537. D(O   9,H  14,H  10,H   2)     60.4046         0.001504   
    538. D(H  10,H  14,O  12,H  13)     76.1863         0.496745   
    539. D(H  22,H  14,H  10,H  20)      3.9869         0.001504   
    540. D(O   9,H  14,H  10,O  18)    171.1266         0.001504   
    541. D(H  22,H  14,H  10,O  18)     -1.9681         0.001504   
    542. D(H  17,O  15,H   7,H  34)      9.8632         0.001833   
    543. D(H  17,O  15,H   7,H  16)    113.9533         0.001833   
    544. D(H  17,O  15,H   7,H   5)     98.5548         0.001833   
    545. D(H  17,O  15,H   7,O   6)     46.6963         0.001833   
    546. D(H  16,O  15,H   7,H  34)   -104.0901         0.001833   
    547. D(H  16,O  15,H   7,H  17)   -113.9533         0.001833   
    548. D(H  16,O  15,H   7,O   6)    -67.2571         0.001833   
    549. D(H  16,O  15,H   7,H   5)    -15.3985         0.001833   
    550. D(O  15,H  16,H  13,H   5)    -21.1085         0.001506   
    551. D(H   7,H  16,H  13,O  12)    171.7012         0.001506   
    552. D(O  15,H  16,H  13,H  22)     96.2994         0.001506   
    553. D(O  15,H  16,H  13,O  12)    154.5647         0.001506   
    554. D(H   7,H  16,H  13,H  22)    113.4359         0.001506   
    555. D(H  13,H  16,O  12,H  14)   -138.2361         0.001561   
    556. D(H   7,H  16,O  12,H  14)   -146.9049         0.001561   
    557. D(H   7,H  16,H  13,O   3)      3.9125         0.001506   
    558. D(O  15,H  16,O  12,H  14)   -179.4830         0.001561   
    559. D(O  15,H  16,O  12,H  13)    -41.2469         0.001561   
    560. D(H   7,H  16,O  12,H  22)     92.0796         0.001561   
    561. D(H  13,H  16,H   7,H   5)      3.8645         0.001508   
    562. D(H  13,H  16,H   7,O   6)     -1.4933         0.001508   
    563. D(O  12,H  16,H   7,O  15)   -159.0387         0.001508   
    564. D(O  12,H  16,H   7,H   5)      7.3377         0.001508   
    565. D(O  15,H  16,O  12,H  22)     59.5014         0.001561   
    566. D(H   7,H  16,O  12,H  13)     -8.6688         0.001561   
    567. D(O  12,H  16,H   7,O   6)      1.9799         0.001508   
    568. D(O  15,H  16,H   7,H  34)     86.8357         0.001508   
    569. D(O  15,H  16,H   7,H  17)     35.6359         0.001508   
    570. D(H  13,H  16,O  12,H  22)    100.7484         0.001561   
    571. D(O  12,H  16,H   7,H  34)    -72.2030         0.001508   
    572. D(O  12,H  16,H   7,H  17)   -123.4028         0.001508   
    573. D(O  15,H  16,H  13,O   3)    -13.2240         0.001506   
    574. D(O  15,H  16,H  13,H   4)     13.7408         0.001506   
    575. D(H  13,H  16,H   7,H  17)   -126.8759         0.001508   
    576. D(O  15,H  16,H   7,H   5)    166.3764         0.001508   
    577. D(H  13,H  16,H   7,O  15)   -162.5118         0.001508   
    578. D(O  15,H  16,H   7,O   6)    161.0186         0.001508   
    579. D(H  13,H  16,H   7,H  34)    -75.6762         0.001508   
    580. D(H  13,H  16,O  15,H   7)     23.0457         0.463120   
    581. D(H  13,H  16,O  15,H  17)    -91.5465         0.463120   
    582. D(O  12,H  16,O  15,H   7)     43.2401         0.463120   
    583. D(O  12,H  16,O  15,H  17)    -71.3521         0.463120   
    584. D(H   7,H  16,O  15,H  17)   -114.5922         0.463120   
    585. D(O  12,H  16,H  13,H   5)   -175.6732         0.001506   
    586. D(O  12,H  16,H  13,H   4)   -140.8240         0.001506   
    587. D(O  12,H  16,H  13,O   3)   -167.7887         0.001506   
    588. D(O  12,H  16,H  13,H  22)    -58.2653         0.001506   
    589. D(H   7,H  16,H  13,H   5)     -3.9720         0.001506   
    590. D(H   7,H  16,H  13,H   4)     30.8773         0.001506   
    591. D(H  25,H  17,O  15,H   7)    -15.3641         0.460552   
    592. D(H  25,H  17,O  15,H  16)    100.3982         0.460552   
    593. D(H   7,H  17,O  15,H  16)    115.7623         0.460552   
    594. D(O  24,H  17,O  15,H  16)     82.0463         0.460552   
    595. D(H  25,H  17,H   7,H  34)     -1.1932         0.001509   
    596. D(H  25,H  17,H   7,H  16)    134.9322         0.001509   
    597. D(H  25,H  17,H   7,O  15)    169.7842         0.001509   
    598. D(H  25,H  17,H   7,H   5)     75.4694         0.001509   
    599. D(O  24,H  17,O  15,H   7)    -33.7160         0.460552   
    600. D(O  24,H  17,H   7,O  15)    168.0914         0.001509   
    601. D(O  24,H  17,H   7,H   5)     73.7766         0.001509   
    602. D(O  15,H  17,H   7,H   5)    -94.3148         0.001509   
    603. D(O  15,H  17,H   7,O   6)   -166.3659         0.001509   
    604. D(O  15,H  17,H   7,H  34)   -170.9774         0.001509   
    605. D(O  15,H  17,H   7,H  16)    -34.8520         0.001509   
    606. D(O  24,H  17,H   7,H  34)     -2.8860         0.001509   
    607. D(O  24,H  17,H   7,H  16)    133.2394         0.001509   
    608. D(O  24,H  17,H   7,O   6)      1.7255         0.001509   
    609. D(H  25,H  17,H   7,O   6)      3.4184         0.001509   
    610. D(H  20,O  18,H  10,H  19)    113.9920         0.001833   
    611. D(H  20,O  18,H  10,H  14)     15.4175         0.001833   
    612. D(H  20,O  18,H  10,H   2)    104.2528         0.001833   
    613. D(H  20,O  18,H  10,O   9)     67.2448         0.001833   
    614. D(H  19,O  18,H  10,H  20)   -113.9920         0.001833   
    615. D(H  19,O  18,H  10,H  14)    -98.5746         0.001833   
    616. D(H  19,O  18,H  10,H   2)     -9.7392         0.001833   
    617. D(H  19,O  18,H  10,O   9)    -46.7472         0.001833   
    618. D(O  18,H  19,H  10,H   2)    171.0907         0.001509   
    619. D(H  28,H  19,O  18,H  10)     15.2064         0.460377   
    620. D(O  27,H  19,H  10,O  18)   -168.1283         0.001509   
    621. D(H  10,H  19,O  18,H  20)   -115.8273         0.460377   
    622. D(H  28,H  19,H  10,O   9)     -3.4427         0.001509   
    623. D(H  28,H  19,H  10,H  14)    -75.5737         0.001509   
    624. D(H  28,H  19,H  10,H   2)      1.2104         0.001509   
    625. D(H  28,H  19,H  10,H  20)   -135.0525         0.001509   
    626. D(O  27,H  19,H  10,H  20)   -133.3005         0.001509   
    627. D(O  27,H  19,O  18,H  10)     33.5466         0.460377   
    628. D(O  27,H  19,H  10,H  14)    -73.8216         0.001509   
    629. D(O  27,H  19,O  18,H  20)    -82.2807         0.460377   
    630. D(H  28,H  19,H  10,O  18)   -169.8803         0.001509   
    631. D(O  27,H  19,H  10,H   2)      2.9625         0.001509   
    632. D(O  27,H  19,H  10,O   9)     -1.6907         0.001509   
    633. D(O  18,H  19,H  10,H  20)     34.8278         0.001509   
    634. D(O  18,H  19,H  10,H  14)     94.3066         0.001509   
    635. D(H  28,H  19,O  18,H  20)   -100.6209         0.460377   
    636. D(O  18,H  19,H  10,O   9)    166.4376         0.001509   
    637. D(H  22,H  20,O  18,H  19)     91.5388         0.463338   
    638. D(O  21,H  20,O  18,H  10)    -43.2808         0.463338   
    639. D(O  21,H  20,O  18,H  19)     71.3754         0.463338   
    640. D(H  22,H  20,H  10,H  14)     -3.9277         0.001508   
    641. D(H  22,H  20,H  10,O   9)      1.2897         0.001508   
    642. D(O  21,H  20,H  10,H  19)    123.3552         0.001508   
    643. D(O  21,H  20,H  10,O  18)    158.9707         0.001508   
    644. D(O  18,H  20,H  10,H  19)    -35.6155         0.001508   
    645. D(O  18,H  20,H  10,O   9)   -161.1450         0.001508   
    646. D(O  18,H  20,H  10,H   2)    -86.6781         0.001508   
    647. D(O  21,H  20,H  10,H   2)     72.2926         0.001508   
    648. D(O  21,H  20,H  10,O   9)     -2.1743         0.001508   
    649. D(O  21,H  20,H  10,H  14)     -7.3918         0.001508   
    650. D(H  22,H  20,H  10,H   2)     75.7567         0.001508   
    651. D(O  18,H  20,H  10,H  14)   -166.3625         0.001508   
    652. D(H  10,H  20,O  18,H  19)    114.6562         0.463338   
    653. D(H  22,H  20,H  10,H  19)    126.8192         0.001508   
    654. D(H  22,H  20,O  18,H  10)    -23.1173         0.463338   
    655. D(H  22,H  20,H  10,O  18)    162.4348         0.001508   
    656. D(H  22,O  21,H  20,H  10)      8.6437         0.001561   
    657. D(H  31,O  21,H  20,H  22)   -100.7711         0.001561   
    658. D(H  31,O  21,H  20,H  10)    -92.1274         0.001561   
    659. D(H  31,O  21,H  20,O  18)    -59.5443         0.001561   
    660. D(H  23,O  21,H  20,H  22)    138.1378         0.001561   
    661. D(H  23,O  21,H  20,H  10)    146.7816         0.001561   
    662. D(H  23,O  21,H  20,O  18)    179.3647         0.001561   
    663. D(H  22,O  21,H  20,O  18)     41.2268         0.001561   
    664. D(H  20,H  22,O  21,H  31)     92.5232         0.541039   
    665. D(H  20,H  22,O  21,H  23)   -159.1333         0.541039   
    666. D(H  14,H  22,O  21,H  31)     82.3996         0.541039   
    667. D(H  14,H  22,O  21,H  23)   -169.2568         0.541039   
    668. D(H  13,H  22,O  21,H  20)    -90.8308         0.541039   
    669. D(H  13,H  22,O  21,H  23)    110.0360         0.541039   
    670. D(O  12,H  22,O  21,H  20)    -79.9490         0.541039   
    671. D(O  12,H  22,O  21,H  31)     12.5741         0.541039   
    672. D(H  31,H  22,O  21,H  20)    -92.5232         0.541039   
    673. D(H  31,H  22,O  21,H  23)    108.3436         0.541039   
    674. D(H  14,H  22,H  20,O  21)    175.7572         0.001506   
    675. D(H  14,H  22,H  20,H  10)      4.0340         0.001506   
    676. D(H  14,H  22,H  20,O  18)     21.2158         0.001506   
    677. D(H  13,H  22,H  20,O  21)    140.8815         0.001506   
    678. D(H  13,H  22,H  20,H  10)    -30.8416         0.001506   
    679. D(O  12,H  22,H  20,O  21)    167.8407         0.001506   
    680. D(O  12,H  22,H  20,H  10)     -3.8824         0.001506   
    681. D(O  12,H  22,H  20,O  18)     13.2993         0.001506   
    682. D(H  31,H  22,H  20,O  21)     58.2248         0.001506   
    683. D(H  31,H  22,H  20,H  10)   -113.4983         0.001506   
    684. D(O  21,H  22,H  20,H  10)   -171.7232         0.001506   
    685. D(H  31,H  22,H  14,O   9)     69.5292         0.001507   
    686. D(H  20,H  22,H  14,O  12)   -162.0559         0.001507   
    687. D(H  31,H  22,H  20,O  18)    -96.3166         0.001506   
    688. D(H  13,H  22,H  14,O   9)    116.7815         0.001507   
    689. D(H  13,H  22,H  14,O  12)    -38.5464         0.001507   
    690. D(O  12,H  22,H  14,H  10)    158.1511         0.001507   
    691. D(H  13,H  22,H  14,H  10)    119.6047         0.001507   
    692. D(H  31,H  22,H  14,O  12)    -85.7987         0.001507   
    693. D(H  20,H  22,H  14,O   9)     -6.7280         0.001507   
    694. D(O  21,H  22,H  14,O   9)      2.0168         0.001507   
    695. D(O  21,H  22,H  14,O  12)   -153.3111         0.001507   
    696. D(H  20,H  22,H  13,H  16)    165.8867         0.001511   
    697. D(O  21,H  22,H  20,O  18)   -154.5414         0.001506   
    698. D(H  20,H  22,H  13,H   5)   -104.9898         0.001511   
    699. D(H  20,H  22,H  13,H   4)    -77.8326         0.001511   
    700. D(H  20,H  22,H  13,O  12)    103.1417         0.001511   
    701. D(H  14,H  22,H  13,H  16)     99.4991         0.001511   
    702. D(O  21,H  22,H  14,H  10)      4.8400         0.001507   
    703. D(H  14,H  22,H  13,H   4)   -144.2203         0.001511   
    704. D(H  20,H  22,H  14,H  10)     -3.9048         0.001507   
    705. D(H  31,H  22,H  14,H  10)     72.3524         0.001507   
    706. D(O  12,H  22,H  14,O   9)    155.3279         0.001507   
    707. D(H  14,H  22,H  13,O   3)   -145.8750         0.001511   
    708. D(O  12,H  22,H  13,O   3)    177.3710         0.001511   
    709. D(H  31,H  22,H  13,H  16)   -120.8406         0.001511   
    710. D(O  12,H  22,H  13,H   4)    179.0257         0.001511   
    711. D(O  12,H  22,H  13,H  16)     62.7451         0.001511   
    712. D(H  14,H  22,H  13,O  12)     36.7540         0.001511   
    713. D(O  12,H  22,H  13,H   5)    151.8685         0.001511   
    714. D(H  31,H  22,H  13,H   5)    -31.7172         0.001511   
    715. D(H  31,H  22,H  13,H   4)     -4.5600         0.001511   
    716. D(H  31,H  22,H  13,O   3)     -6.2147         0.001511   
    717. D(H  31,H  22,H  13,O  12)    176.4143         0.001511   
    718. D(H  14,H  22,H  13,H   5)   -171.3775         0.001511   
    719. D(O  21,H  22,H  13,H  16)   -122.2312         0.001511   
    720. D(H  20,H  22,H  13,O   3)    -79.4873         0.001511   
    721. D(O  21,H  22,H  13,H   5)    -33.1077         0.001511   
    722. D(H  13,H  22,H  20,O  18)    -13.6599         0.001506   
    723. D(O  21,H  22,H  13,H   4)     -5.9505         0.001511   
    724. D(O  21,H  22,H  13,O   3)     -7.6052         0.001511   
    725. D(O  21,H  22,H  13,O  12)    175.0237         0.001511   
    726. D(H  20,H  22,O  12,H  16)    173.2734         0.001692   
    727. D(H  20,H  22,O  12,H  14)     20.3428         0.001692   
    728. D(H  20,H  22,O  12,H  13)    -89.1780         0.001692   
    729. D(H  14,H  22,O  12,H  13)   -109.5208         0.001692   
    730. D(O  12,H  22,O  21,H  23)    120.9177         0.541039   
    731. D(H  31,H  22,O  12,H  14)    105.5916         0.001692   
    732. D(O  21,H  22,O  12,H  13)    -15.2318         0.001692   
    733. D(O  21,H  22,O  12,H  14)     94.2889         0.001692   
    734. D(H  13,H  22,O  21,H  31)      1.6924         0.541039   
    735. D(H  31,H  22,O  12,H  16)   -101.4779         0.001692   
    736. D(H  13,H  22,O  12,H  16)    -97.5486         0.001692   
    737. D(H  13,H  22,O  12,H  14)    109.5208         0.001692   
    738. D(H  14,H  22,O  21,H  20)    -10.1236         0.541039   
    739. D(H  31,H  22,O  12,H  13)     -3.9292         0.001692   
    740. D(H  14,H  22,O  12,H  16)    152.9306         0.001692   
    741. D(O  21,H  22,O  12,H  16)   -112.7805         0.001692   
    742. D(H  25,H  23,O  21,H  20)    147.2796         0.496706   
    743. D(H  25,H  23,O  21,H  31)     29.3745         0.496706   
    744. D(H  25,H  23,O  21,H  22)    -76.2160         0.496706   
    745. D(O  24,H  23,O  21,H  20)    170.0204         0.496706   
    746. D(O  24,H  23,O  21,H  31)     52.1153         0.496706   
    747. D(O  24,H  23,O  21,H  22)    -53.4752         0.496706   
    748. D(H  31,H  23,O  21,H  20)    117.9051         0.496706   
    749. D(H  31,H  23,O  21,H  22)   -105.5905         0.496706   
    750. D(H  17,O  24,H  23,H  25)     98.5296         0.001569   
    751. D(H  17,O  24,H  23,H  31)     91.3403         0.001569   
    752. D(H  26,O  24,H  23,H  25)   -122.0376         0.001569   
    753. D(H  26,O  24,H  23,H  31)   -129.2269         0.001569   
    754. D(H  26,O  24,H  23,O  21)   -169.8584         0.001569   
    755. D(H  25,O  24,H  23,H  31)     -7.1893         0.001569   
    756. D(H  25,O  24,H  23,O  21)    -47.8208         0.001569   
    757. D(H  23,O  24,H  17,H  25)   -101.2361         0.001565   
    758. D(H  23,O  24,H  17,H   7)    -97.0242         0.001565   
    759. D(H  23,O  24,H  17,O  15)    -69.6364         0.001565   
    760. D(H  26,O  24,H  17,H  25)    115.7693         0.001565   
    761. D(H  26,O  24,H  17,H   7)    119.9811         0.001565   
    762. D(H  17,O  24,H  23,O  21)     50.7088         0.001569   
    763. D(H  26,O  24,H  17,O  15)    147.3689         0.001565   
    764. D(H  25,O  24,H  17,H   7)      4.2118         0.001565   
    765. D(H  25,O  24,H  17,O  15)     31.5996         0.001565   
    766. D(H  35,H  25,O  24,H  23)      6.4444         0.513359   
    767. D(H  35,H  25,O  24,H  17)    -90.0452         0.513359   
    768. D(H  35,H  25,O  24,H  26)    142.6093         0.513359   
    769. D(H  34,H  25,O  24,H  17)     -5.2153         0.513359   
    770. D(H  34,H  25,O  24,H  26)   -132.5608         0.513359   
    771. D(O  33,H  25,O  24,H  23)     57.2526         0.513359   
    772. D(O  33,H  25,O  24,H  26)   -166.5825         0.513359   
    773. D(H  23,H  25,O  24,H  17)    -96.4896         0.513359   
    774. D(H  23,H  25,O  24,H  26)    136.1649         0.513359   
    775. D(H  17,H  25,O  24,H  26)   -127.3455         0.513359   
    776. D(H  35,H  25,H  23,O  24)   -176.9949         0.001504   
    777. D(H  35,H  25,H  23,H  31)     -3.9537         0.001504   
    778. D(H  35,H  25,H  23,O  21)    -27.0201         0.001504   
    779. D(H  34,H  25,H  23,O  24)   -144.4476         0.001504   
    780. D(H  34,H  25,H  23,H  31)     28.5937         0.001504   
    781. D(H  34,H  25,H  23,O  21)      5.5272         0.001504   
    782. D(O  33,H  25,H  23,O  24)   -171.0522         0.001504   
    783. D(O  33,H  25,H  23,H  31)      1.9890         0.001504   
    784. D(O  33,H  25,H  23,O  21)    -21.0775         0.001504   
    785. D(H  17,H  25,H  23,O  24)    -60.3234         0.001504   
    786. D(H  17,H  25,H  23,H  31)    112.7179         0.001504   
    787. D(H  17,H  25,H  23,O  21)     89.6514         0.001504   
    788. D(O  24,H  25,H  23,H  31)    173.0412         0.001504   
    789. D(O  24,H  25,H  23,O  21)    149.9748         0.001504   
    790. D(H  35,H  25,H  17,O  24)    148.4895         0.001506   
    791. D(H  35,H  25,H  17,H   7)    -27.6321         0.001506   
    792. D(H  35,H  25,H  17,O  15)    -15.9653         0.001506   
    793. D(H  34,H  25,H  17,O  24)    177.3517         0.001506   
    794. D(H  17,H  25,O  24,H  23)     96.4896         0.513359   
    795. D(H  34,H  25,H  17,H   7)      1.2301         0.001506   
    796. D(H  34,H  25,H  17,O  15)     12.8969         0.001506   
    797. D(O  33,H  25,H  17,O  24)    173.5344         0.001506   
    798. D(O  33,H  25,O  24,H  17)    -39.2370         0.513359   
    799. D(O  33,H  25,H  17,H   7)     -2.5872         0.001506   
    800. D(O  33,H  25,H  17,O  15)      9.0795         0.001506   
    801. D(H  23,H  25,H  17,O  24)     57.7413         0.001506   
    802. D(H  34,H  25,O  24,H  23)     91.2743         0.513359   
    803. D(H  23,H  25,H  17,H   7)   -118.3803         0.001506   
    804. D(H  23,H  25,H  17,O  15)   -106.7135         0.001506   
    805. D(O  24,H  25,H  17,H   7)   -176.1216         0.001506   
    806. D(O  24,H  25,H  17,O  15)   -164.4548         0.001506   
    807. D(H  32,O  27,H  19,H  28)    101.3520         0.001565   
    808. D(H  32,O  27,H  19,H  10)     96.9935         0.001565   
    809. D(H  32,O  27,H  19,O  18)     69.7559         0.001565   
    810. D(H  29,O  27,H  19,H  28)   -115.7897         0.001565   
    811. D(H  29,O  27,H  19,H  10)   -120.1482         0.001565   
    812. D(H  29,O  27,H  19,O  18)   -147.3858         0.001565   
    813. D(H  28,O  27,H  19,H  10)     -4.3585         0.001565   
    814. D(H  28,O  27,H  19,O  18)    -31.5961         0.001565   
    815. D(H  19,H  28,H   1,O   0)    -86.8917         0.001508   
    816. D(H  32,H  28,H   1,H   4)     -3.8262         0.001508   
    817. D(H  32,H  28,H   1,O   3)     -7.2649         0.001508   
    818. D(H   2,H  28,H   1,H   4)    127.0340         0.001508   
    819. D(H   2,H  28,H   1,O   3)    123.5953         0.001508   
    820. D(H   2,H  28,H   1,O   0)    -35.6123         0.001508   
    821. D(O   0,H  28,H   1,H   4)    162.6463         0.001508   
    822. D(O   0,H  28,H   1,O   3)    159.2076         0.001508   
    823. D(O  27,H  28,H   1,H   4)      1.4662         0.001508   
    824. D(O  27,H  28,H   1,O   3)     -1.9724         0.001508   
    825. D(O  27,H  28,H   1,O   0)   -161.1800         0.001508   
    826. D(H  19,H  28,O   0,H   2)     -9.9243         0.001835   
    827. D(H  19,H  28,O   0,H   1)    104.0477         0.001835   
    828. D(H  32,H  28,O   0,H   2)    -98.6775         0.001835   
    829. D(H  32,H  28,O   0,H   1)     15.2944         0.001835   
    830. D(H  32,H  28,H   1,O   0)   -166.4724         0.001508   
    831. D(H   2,H  28,O   0,H   1)    113.9719         0.001835   
    832. D(H   1,H  28,O   0,H   2)   -113.9719         0.001835   
    833. D(O  27,H  28,O   0,H   2)    -47.2148         0.001835   
    834. D(H  19,H  28,H   1,O   3)     72.3159         0.001508   
    835. D(O  27,H  28,O   0,H   1)     66.7571         0.001835   
    836. D(H  19,H  28,O  27,H  32)    -96.4193         0.513255   
    837. D(H  19,H  28,O  27,H  29)    127.4248         0.513255   
    838. D(H  32,H  28,O  27,H  29)   -136.1559         0.513255   
    839. D(H   2,H  28,O  27,H  19)      5.4568         0.513255   
    840. D(H   2,H  28,O  27,H  32)    -90.9625         0.513255   
    841. D(H   2,H  28,O  27,H  29)    132.8816         0.513255   
    842. D(H   1,H  28,O  27,H  19)     90.0868         0.513255   
    843. D(H   1,H  28,O  27,H  32)     -6.3325         0.513255   
    844. D(H   1,H  28,O  27,H  29)   -142.4884         0.513255   
    845. D(O   0,H  28,O  27,H  32)    -56.0419         0.513255   
    846. D(O   0,H  28,O  27,H  29)    167.8022         0.513255   
    847. D(H  32,H  28,H  19,O  27)    -57.6626         0.001506   
    848. D(H  32,H  28,H  19,O  18)    106.7797         0.001506   
    849. D(H   2,H  28,H  19,O  27)   -177.2339         0.001506   
    850. D(H   2,H  28,H  19,H  10)     -1.2481         0.001506   
    851. D(H   2,H  28,H  19,O  18)    -12.7915         0.001506   
    852. D(H   1,H  28,H  19,O  27)   -148.2463         0.001506   
    853. D(H   1,H  28,H  19,H  10)     27.7394         0.001506   
    854. D(H   1,H  28,H  19,O  18)     16.1961         0.001506   
    855. D(O   0,H  28,H  19,O  27)   -173.3221         0.001506   
    856. D(O   0,H  28,H  19,H  10)      2.6636         0.001506   
    857. D(O   0,H  28,H  19,O  18)     -8.8797         0.001506   
    858. D(O  27,H  28,H  19,H  10)    175.9857         0.001506   
    859. D(O  27,H  28,H  19,O  18)    164.4424         0.001506   
    860. D(H  19,H  28,H   2,H  10)      1.2107         0.001509   
    861. D(H  19,H  28,H   2,O   9)      2.9570         0.001509   
    862. D(H  32,H  28,H  19,H  10)    118.3231         0.001506   
    863. D(H  19,H  28,H   2,O   0)    170.9233         0.001509   
    864. D(H  32,H  28,H   2,H  10)    -75.4931         0.001509   
    865. D(H  32,H  28,H   2,O   9)    -73.7468         0.001509   
    866. D(O   0,H  28,O  27,H  19)     40.3774         0.513255   
    867. D(H  32,H  28,H   2,O   0)     94.2195         0.001509   
    868. D(H   1,H  28,H   2,H  10)   -134.8560         0.001509   
    869. D(H   1,H  28,H   2,O   9)   -133.1096         0.001509   
    870. D(H   1,H  28,H   2,O   0)     34.8566         0.001509   
    871. D(O   0,H  28,H   2,H  10)   -169.7126         0.001509   
    872. D(O   0,H  28,H   2,O   9)   -167.9663         0.001509   
    873. D(O  27,H  28,H   2,H  10)     -3.4587         0.001509   
    874. D(H  32,H  28,O  27,H  19)     96.4193         0.513255   
    875. D(O  27,H  28,H   2,O   9)     -1.7124         0.001509   
    876. D(O  27,H  28,H   2,O   0)    166.2539         0.001509   
    877. D(H  19,H  28,H   1,H   4)     75.7546         0.001508   
    878. D(H  35,O  30,H   4,H  32)    153.0405         0.001691   
    879. D(H  35,O  30,H   4,H  31)    -97.5031         0.001691   
    880. D(H  35,O  30,H   4,H  13)   -101.5606         0.001691   
    881. D(H  35,O  30,H   4,H   1)    173.3520         0.001691   
    882. D(H  35,O  30,H   4,O   3)   -112.6448         0.001691   
    883. D(H  32,O  30,H   4,H  31)    109.4565         0.001691   
    884. D(H  32,O  30,H   4,H  13)    105.3989         0.001691   
    885. D(H  32,O  30,H   4,H   1)     20.3115         0.001691   
    886. D(H  32,O  30,H   4,O   3)     94.3147         0.001691   
    887. D(H  31,O  30,H   4,H  32)   -109.4565         0.001691   
    888. D(H  31,O  30,H   4,H  13)     -4.0575         0.001691   
    889. D(H  31,O  30,H   4,H   1)    -89.1450         0.001691   
    890. D(H  31,O  30,H   4,O   3)    -15.1418         0.001691   
    891. D(H  35,H  31,O  30,H   4)    -92.4506         0.540787   
    892. D(H  35,H  31,O  30,H  32)    159.4294         0.540787   
    893. D(H   4,H  31,O  30,H  35)     92.4506         0.540787   
    894. D(H  23,H  31,O  30,H  35)     10.3796         0.540787   
    895. D(H  23,H  31,O  30,H   4)    -82.0710         0.540787   
    896. D(H  23,H  31,O  30,H  32)    169.8090         0.540787   
    897. D(H  22,H  31,O  30,H   4)     -1.4892         0.540787   
    898. D(H  22,H  31,O  30,H  32)   -109.6091         0.540787   
    899. D(O  21,H  31,O  30,H  35)     80.5208         0.540787   
    900. D(O  21,H  31,O  30,H   4)    -11.9298         0.540787   
    901. D(O  21,H  31,O  30,H  32)   -120.0498         0.540787   
    902. D(H  35,H  31,H  23,H  25)      3.8711         0.001507   
    903. D(H  35,H  31,H  23,O  24)      6.7135         0.001507   
    904. D(H   4,H  31,H  23,H  25)    -72.3585         0.001507   
    905. D(H   4,H  31,H  23,O  24)    -69.5160         0.001507   
    906. D(H   4,H  31,H  23,O  21)     85.7655         0.001507   
    907. D(H  22,H  31,H  23,O  24)   -116.7404         0.001507   
    908. D(H  22,H  31,H  23,O  21)     38.5411         0.001507   
    909. D(O  21,H  31,H  23,H  25)   -158.1240         0.001507   
    910. D(O  30,H  31,H  23,H  25)     -5.0935         0.001507   
    911. D(O  30,H  31,H  23,O  24)     -2.2511         0.001507   
    912. D(O  30,H  31,H  23,O  21)    153.0305         0.001507   
    913. D(H  35,H  31,H  22,H  20)   -166.0824         0.001511   
    914. D(H  35,H  31,H  22,H  14)    104.7879         0.001511   
    915. D(H  35,H  31,H  22,H  13)     77.6912         0.001511   
    916. D(H  35,H  31,H  22,O  12)     79.3015         0.001511   
    917. D(H   4,H  31,H  22,H  20)    120.7839         0.001511   
    918. D(H   4,H  31,H  22,H  14)     31.6542         0.001511   
    919. D(H   4,H  31,H  22,H  13)      4.5575         0.001511   
    920. D(H   4,H  31,H  22,O  21)   -176.4083         0.001511   
    921. D(H  23,H  31,H  22,H  20)    -99.5726         0.001511   
    922. D(H  23,H  31,H  22,H  14)    171.2978         0.001511   
    923. D(H  23,H  31,H  22,O  12)    145.8113         0.001511   
    924. D(H  23,H  31,H  22,O  21)    -36.7647         0.001511   
    925. D(O  21,H  31,H  22,H  20)    -62.8078         0.001511   
    926. D(O  21,H  31,H  22,H  14)   -151.9375         0.001511   
    927. D(O  21,H  31,H  22,H  13)   -179.0342         0.001511   
    928. D(O  21,H  31,H  22,O  12)   -177.4239         0.001511   
    929. D(O  30,H  31,H  22,H  20)    122.0072         0.001511   
    930. D(O  30,H  31,H  22,H  14)     32.8775         0.001511   
    931. D(O  30,H  31,H  22,H  13)      5.7808         0.001511   
    932. D(O  30,H  31,H  22,O  12)      7.3911         0.001511   
    933. D(O  30,H  31,H  22,O  21)   -175.1850         0.001511   
    934. D(H  35,H  31,O  21,H  20)   -173.4368         0.001692   
    935. D(H  35,H  31,O  21,H  23)    -20.4297         0.001692   
    936. D(H  35,H  31,O  21,H  22)     89.0870         0.001692   
    937. D(H   4,H  31,O  21,H  20)    101.4092         0.001692   
    938. D(H  23,H  31,H  22,H  13)    144.2011         0.001511   
    939. D(H   4,H  31,O  21,H  23)   -105.5837         0.001692   
    940. D(H   4,H  31,O  21,H  22)      3.9330         0.001692   
    941. D(H  23,H  31,O  21,H  20)   -153.0071         0.001692   
    942. D(H   4,H  31,H  22,O  12)      6.1678         0.001511   
    943. D(H  23,H  31,O  21,H  22)    109.5166         0.001692   
    944. D(H  22,H  31,O  21,H  20)     97.4763         0.001692   
    945. D(H  22,H  31,O  21,H  23)   -109.5166         0.001692   
    946. D(H  35,H  31,H  22,O  21)   -103.2746         0.001511   
    947. D(O  30,H  31,O  21,H  20)    112.1243         0.001692   
    948. D(O  30,H  31,O  21,H  23)    -94.8686         0.001692   
    949. D(O  30,H  31,O  21,H  22)     14.6480         0.001692   
    950. D(H  35,H  31,H   4,H  32)     99.6726         0.001511   
    951. D(H  35,H  31,H   4,O  30)     62.8203         0.001511   
    952. D(H  35,H  31,H   4,H  13)   -120.8846         0.001511   
    953. D(H  35,H  31,H   4,H   1)    166.0311         0.001511   
    954. D(O  21,H  31,H  23,O  24)   -155.2815         0.001507   
    955. D(H  35,H  31,H   4,O   3)   -122.1376         0.001511   
    956. D(H  23,H  31,H   4,H  32)   -171.0855         0.001511   
    957. D(H  23,H  31,H   4,O  30)    152.0621         0.001511   
    958. D(H  22,H  31,H  23,H  25)   -119.5828         0.001507   
    959. D(H  23,H  31,H   4,H  13)    -31.6428         0.001511   
    960. D(H  23,H  31,H   4,H   1)   -104.7271         0.001511   
    961. D(H  23,H  31,H   4,O   3)    -32.8957         0.001511   
    962. D(H  35,H  31,H  23,O  21)    161.9951         0.001507   
    963. D(H  22,H  31,H   4,H  32)   -143.9997         0.001511   
    964. D(H  22,H  31,H   4,O  30)    179.1479         0.001511   
    965. D(H  22,H  31,H   4,H  13)     -4.5569         0.001511   
    966. D(H  22,H  31,H   4,H   1)    -77.6412         0.001511   
    967. D(H  22,H  31,H   4,O   3)     -5.8099         0.001511   
    968. D(O  21,H  31,H   4,H  32)   -145.6114         0.001511   
    969. D(O  21,H  31,H   4,O  30)    177.5362         0.001511   
    970. D(H  22,H  31,O  30,H  35)     90.9615         0.540787   
    971. D(O  21,H  31,H   4,H  13)     -6.1687         0.001511   
    972. D(O  21,H  31,H   4,H   1)    -79.2530         0.001511   
    973. D(O  21,H  31,H   4,O   3)     -7.4216         0.001511   
    974. D(H   4,H  31,O  30,H  32)   -108.1200         0.540787   
    975. D(O  30,H  31,H   4,H  32)     36.8524         0.001511   
    976. D(O  30,H  31,H   4,H  13)    176.2951         0.001511   
    977. D(O  30,H  31,H   4,H   1)    103.2108         0.001511   
    978. D(O  30,H  31,H   4,O   3)    175.0422         0.001511   
    979. D(H   4,H  32,O  30,H  35)   -117.4764         0.496746   
    980. D(H   4,H  32,O  30,H  31)    105.5497         0.496746   
    981. D(H  28,H  32,O  30,H  35)   -146.7636         0.496746   
    982. D(H  28,H  32,O  30,H  31)     76.2625         0.496746   
    983. D(O  27,H  32,O  30,H  35)   -169.6196         0.496746   
    984. D(O  27,H  32,O  30,H   4)    -52.1432         0.496746   
    985. D(O  27,H  32,O  30,H  31)     53.4065         0.496746   
    986. D(H   4,H  32,H  28,H  19)   -112.7341         0.001504   
    987. D(H   4,H  32,H  28,H   2)    -28.6118         0.001504   
    988. D(H   4,H  32,H  28,H   1)      3.8878         0.001504   
    989. D(H   4,H  32,H  28,O  27)   -173.1375         0.001504   
    990. D(O  27,H  32,H  28,H  19)     60.4034         0.001504   
    991. D(O  27,H  32,H  28,H   2)    144.5257         0.001504   
    992. D(O  27,H  32,H  28,O   0)    171.1117         0.001504   
    993. D(O  30,H  32,H  28,H  19)    -89.6811         0.001504   
    994. D(O  30,H  32,H  28,H   2)     -5.5588         0.001504   
    995. D(O  30,H  32,H  28,H   1)     26.9408         0.001504   
    996. D(O  30,H  32,H  28,O   0)     21.0273         0.001504   
    997. D(O  30,H  32,H  28,O  27)   -150.0845         0.001504   
    998. D(H   4,H  32,O  27,H  19)    -91.3989         0.001570   
    999. D(H   4,H  32,O  27,H  29)    129.2225         0.001570   
   1000. D(H   4,H  32,O  27,H  28)      7.0937         0.001570   
   1001. D(H  28,H  32,O  27,H  19)    -98.4925         0.001570   
   1002. D(H  28,H  32,O  27,H  29)    122.1289         0.001570   
   1003. D(O  30,H  32,O  27,H  19)    -50.6157         0.001570   
   1004. D(O  30,H  32,O  27,H  29)    170.0057         0.001570   
   1005. D(O  30,H  32,O  27,H  28)     47.8769         0.001570   
   1006. D(O  27,H  32,H  28,H   1)    177.0253         0.001504   
   1007. D(H  28,H  32,H   4,H  31)    119.7724         0.001507   
   1008. D(H  28,H  32,H   4,O  30)    158.2927         0.001507   
   1009. D(H  28,H  32,H   4,H  13)     72.3226         0.001507   
   1010. D(H   4,H  32,H  28,O   0)     -2.0258         0.001504   
   1011. D(H  28,H  32,H   4,H   1)     -3.8063         0.001507   
   1012. D(H  28,H  32,H   4,O   3)      4.9922         0.001507   
   1013. D(O  27,H  32,H   4,H  31)    116.9697         0.001507   
   1014. D(O  27,H  32,H   4,O  30)    155.4901         0.001507   
   1015. D(O  27,H  32,H   4,H  13)     69.5199         0.001507   
   1016. D(O  27,H  32,H   4,H   1)     -6.6089         0.001507   
   1017. D(O  27,H  32,H   4,O   3)      2.1896         0.001507   
   1018. D(H  28,H  32,O  30,H   4)    -29.2872         0.496746   
   1019. D(O  30,H  32,H   4,H  31)    -38.5204         0.001507   
   1020. D(O  30,H  32,H   4,H  13)    -85.9701         0.001507   
   1021. D(O  30,H  32,H   4,H   1)   -162.0990         0.001507   
   1022. D(O  30,H  32,H   4,O   3)   -153.3005         0.001507   
   1023. D(H  35,O  33,H  25,H  34)   -113.9556         0.001832   
   1024. D(H  35,O  33,H  25,H  23)    -15.3801         0.001832   
[...]
      dz2     :     0.019194  d :     0.056510
      dxz     :     0.006365
      dyz     :     0.008849
      dx2y2   :     0.013298
      dxy     :     0.008804
      f0      :     0.001031  f :     0.004693
      f+1     :     0.000626
      f-1     :     0.000734
      f+2     :     0.000475
      f-2     :     0.000418
      f+3     :     0.000585
      f-3     :     0.000825
  4 H s       :     0.663425  s :     0.663425
      pz      :     0.113388  p :     0.193613
      px      :     0.031100
      py      :     0.049125
  5 H s       :     0.668751  s :     0.668751
      pz      :     0.032515  p :     0.178766
      px      :     0.097725
      py      :     0.048526
  6 O s       :     3.450849  s :     3.450849
      pz      :     1.730448  p :     4.803323
      px      :     1.646275
      py      :     1.426599
      dz2     :     0.007618  d :     0.056738
      dxz     :     0.010902
      dyz     :     0.013813
      dx2y2   :     0.013020
      dxy     :     0.011386
      f0      :     0.000765  f :     0.004767
      f+1     :     0.000380
      f-1     :     0.000403
      f+2     :     0.000856
      f-2     :     0.000938
      f+3     :     0.000444
      f-3     :     0.000980
  7 H s       :     0.649345  s :     0.649345
      pz      :     0.049815  p :     0.201782
      px      :     0.033242
      py      :     0.118726
  8 H s       :     0.671051  s :     0.671051
      pz      :     0.053444  p :     0.167808
      px      :     0.068851
      py      :     0.045513
  9 O s       :     3.450896  s :     3.450896
      pz      :     1.426764  p :     4.803365
      px      :     1.645033
      py      :     1.731568
      dz2     :     0.012033  d :     0.056742
      dxz     :     0.011397
      dyz     :     0.013748
      dx2y2   :     0.008677
      dxy     :     0.010887
      f0      :     0.000804  f :     0.004767
      f+1     :     0.000435
      f-1     :     0.000921
      f+2     :     0.000584
      f-2     :     0.000934
      f+3     :     0.000388
      f-3     :     0.000701
 10 H s       :     0.649414  s :     0.649414
      pz      :     0.118741  p :     0.201723
      px      :     0.033203
      py      :     0.049778
 11 H s       :     0.671066  s :     0.671066
      pz      :     0.045437  p :     0.167803
      px      :     0.068982
      py      :     0.053384
 12 O s       :     3.443628  s :     3.443628
      pz      :     1.767315  p :     4.800139
      px      :     1.540353
      py      :     1.492471
      dz2     :     0.009999  d :     0.056517
      dxz     :     0.008830
      dyz     :     0.008846
      dx2y2   :     0.022536
      dxy     :     0.006306
      f0      :     0.000725  f :     0.004694
      f+1     :     0.000476
      f-1     :     0.000565
      f+2     :     0.000838
      f-2     :     0.000416
      f+3     :     0.000736
      f-3     :     0.000937
 13 H s       :     0.663421  s :     0.663421
      pz      :     0.049099  p :     0.193639
      px      :     0.031105
      py      :     0.113436
 14 H s       :     0.668763  s :     0.668763
      pz      :     0.048570  p :     0.178729
      px      :     0.097725
      py      :     0.032434
 15 O s       :     3.439899  s :     3.439899
      pz      :     1.568739  p :     4.788992
      px      :     1.533106
      py      :     1.687148
      dz2     :     0.012391  d :     0.057029
      dxz     :     0.007299
      dyz     :     0.014391
      dx2y2   :     0.015435
      dxy     :     0.007514
      f0      :     0.000547  f :     0.004806
      f+1     :     0.000518
      f-1     :     0.001124
      f+2     :     0.000827
      f-2     :     0.000453
      f+3     :     0.000703
      f-3     :     0.000634
 16 H s       :     0.667354  s :     0.667354
      pz      :     0.039245  p :     0.176386
      px      :     0.095247
      py      :     0.041894
 17 H s       :     0.669977  s :     0.669977
      pz      :     0.086662  p :     0.180289
      px      :     0.032625
      py      :     0.061003
 18 O s       :     3.439889  s :     3.439889
      pz      :     1.686992  p :     4.789006
      px      :     1.535568
      py      :     1.566446
      dz2     :     0.009886  d :     0.057027
      dxz     :     0.007499
      dyz     :     0.014417
      dx2y2   :     0.017841
      dxy     :     0.007384
      f0      :     0.000662  f :     0.004806
      f+1     :     0.000593
      f-1     :     0.000510
      f+2     :     0.001098
      f-2     :     0.000451
      f+3     :     0.000614
      f-3     :     0.000878
 19 H s       :     0.669997  s :     0.669997
      pz      :     0.061032  p :     0.180238
      px      :     0.032623
      py      :     0.086583
 20 H s       :     0.667345  s :     0.667345
      pz      :     0.041883  p :     0.176345
      px      :     0.095061
      py      :     0.039400
 21 O s       :     3.443648  s :     3.443648
      pz      :     1.493010  p :     4.800194
      px      :     1.541246
      py      :     1.765938
      dz2     :     0.019252  d :     0.056517
      dxz     :     0.006289
      dyz     :     0.008850
      dx2y2   :     0.013213
      dxy     :     0.008913
      f0      :     0.001028  f :     0.004694
      f+1     :     0.000630
      f-1     :     0.000735
      f+2     :     0.000469
      f-2     :     0.000417
      f+3     :     0.000575
      f-3     :     0.000840
 22 H s       :     0.663400  s :     0.663400
      pz      :     0.113460  p :     0.193668
      px      :     0.031129
      py      :     0.049078
 23 H s       :     0.668809  s :     0.668809
      pz      :     0.032414  p :     0.178643
      px      :     0.097503
      py      :     0.048726
 24 O s       :     3.450905  s :     3.450905
      pz      :     1.732097  p :     4.803313
      px      :     1.644990
      py      :     1.426226
      dz2     :     0.007654  d :     0.056744
      dxz     :     0.010829
      dyz     :     0.013750
      dx2y2   :     0.013034
      dxy     :     0.011477
      f0      :     0.000765  f :     0.004767
      f+1     :     0.000380
      f-1     :     0.000404
      f+2     :     0.000855
      f-2     :     0.000933
      f+3     :     0.000445
      f-3     :     0.000985
 25 H s       :     0.649439  s :     0.649439
      pz      :     0.049884  p :     0.201681
      px      :     0.033189
      py      :     0.118607
 26 H s       :     0.671059  s :     0.671059
      pz      :     0.053256  p :     0.167801
      px      :     0.069009
      py      :     0.045537
 27 O s       :     3.450858  s :     3.450858
      pz      :     1.424855  p :     4.803284
      px      :     1.647464
      py      :     1.730966
      dz2     :     0.011962  d :     0.056740
      dxz     :     0.011474
      dyz     :     0.013809
      dx2y2   :     0.008629
      dxy     :     0.010867
      f0      :     0.000800  f :     0.004767
      f+1     :     0.000440
      f-1     :     0.000920
      f+2     :     0.000580
      f-2     :     0.000943
      f+3     :     0.000389
      f-3     :     0.000694
 28 H s       :     0.649373  s :     0.649373
      pz      :     0.118680  p :     0.201741
      px      :     0.033293
      py      :     0.049769
 29 H s       :     0.671045  s :     0.671045
      pz      :     0.045634  p :     0.167806
      px      :     0.068740
      py      :     0.053432
 30 O s       :     3.443658  s :     3.443658
      pz      :     1.767086  p :     4.800346
      px      :     1.541564
      py      :     1.491696
      dz2     :     0.009991  d :     0.056512
      dxz     :     0.008857
      dyz     :     0.008831
      dx2y2   :     0.022477
      dxy     :     0.006355
      f0      :     0.000726  f :     0.004693
      f+1     :     0.000474
      f-1     :     0.000566
      f+2     :     0.000838
      f-2     :     0.000418
      f+3     :     0.000732
      f-3     :     0.000940
 31 H s       :     0.663440  s :     0.663440
      pz      :     0.049080  p :     0.193626
      px      :     0.031127
      py      :     0.113420
 32 H s       :     0.668778  s :     0.668778
      pz      :     0.048636  p :     0.178782
      px      :     0.097653
      py      :     0.032493
 33 O s       :     3.439937  s :     3.439937
      pz      :     1.565739  p :     4.788988
      px      :     1.536428
      py      :     1.686820
      dz2     :     0.012324  d :     0.057030
      dxz     :     0.007401
      dyz     :     0.014421
      dx2y2   :     0.015320
      dxy     :     0.007564
      f0      :     0.000552  f :     0.004806
      f+1     :     0.000508
      f-1     :     0.001126
      f+2     :     0.000836
      f-2     :     0.000454
      f+3     :     0.000690
      f-3     :     0.000640
 34 H s       :     0.669984  s :     0.669984
      pz      :     0.086629  p :     0.180268
      px      :     0.032686
      py      :     0.060953
 35 H s       :     0.667352  s :     0.667352
      pz      :     0.039430  p :     0.176317
      px      :     0.094885
      py      :     0.042001


                      *****************************
                      * MAYER POPULATION ANALYSIS *
                      *****************************

  NA   - Mulliken gross atomic population
  ZA   - Total nuclear charge
  QA   - Mulliken gross atomic charge
  VA   - Mayer's total valence
  BVA  - Mayer's bonded valence
  FA   - Mayer's free valence

  ATOM       NA         ZA         QA         VA         BVA        FA
  0 O      8.7339     8.0000    -0.7339     2.0730     1.6862     0.3868
  1 H      0.6120     1.0000     0.3880     0.8867     0.8436     0.0431
  2 H      0.6253     1.0000     0.3747     0.9084     0.8644     0.0440
  3 O      8.7685     8.0000    -0.7685     2.0356     1.6424     0.3932
  4 H      0.6267     1.0000     0.3733     0.9171     0.8717     0.0454
  5 H      0.6154     1.0000     0.3846     0.9018     0.8587     0.0431
  6 O      8.7630     8.0000    -0.7630     2.0349     1.6432     0.3917
  7 H      0.6073     1.0000     0.3927     0.8979     0.8542     0.0437
  8 H      0.6479     1.0000     0.3521     0.8985     0.8523     0.0462
  9 O      8.7630     8.0000    -0.7630     2.0350     1.6433     0.3917
 10 H      0.6073     1.0000     0.3927     0.8979     0.8542     0.0437
 11 H      0.6479     1.0000     0.3521     0.8985     0.8523     0.0462
 12 O      8.7684     8.0000    -0.7684     2.0357     1.6426     0.3932
 13 H      0.6267     1.0000     0.3733     0.9171     0.8717     0.0454
 14 H      0.6155     1.0000     0.3845     0.9018     0.8587     0.0431
 15 O      8.7339     8.0000    -0.7339     2.0729     1.6861     0.3868
 16 H      0.6121     1.0000     0.3879     0.8869     0.8437     0.0431
 17 H      0.6253     1.0000     0.3747     0.9085     0.8644     0.0440
 18 O      8.7339     8.0000    -0.7339     2.0729     1.6861     0.3868
 19 H      0.6253     1.0000     0.3747     0.9084     0.8644     0.0440
 20 H      0.6121     1.0000     0.3879     0.8869     0.8437     0.0431
 21 O      8.7684     8.0000    -0.7684     2.0359     1.6427     0.3931
 22 H      0.6266     1.0000     0.3734     0.9170     0.8716     0.0454
 23 H      0.6156     1.0000     0.3844     0.9018     0.8587     0.0431
 24 O      8.7629     8.0000    -0.7629     2.0349     1.6432     0.3917
 25 H      0.6074     1.0000     0.3926     0.8980     0.8543     0.0437
 26 H      0.6479     1.0000     0.3521     0.8985     0.8523     0.0462
 27 O      8.7630     8.0000    -0.7630     2.0350     1.6433     0.3917
 28 H      0.6073     1.0000     0.3927     0.8979     0.8542     0.0437
 29 H      0.6479     1.0000     0.3521     0.8985     0.8523     0.0462
 30 O      8.7685     8.0000    -0.7685     2.0358     1.6427     0.3932
 31 H      0.6265     1.0000     0.3735     0.9169     0.8715     0.0454
 32 H      0.6155     1.0000     0.3845     0.9018     0.8587     0.0431
 33 O      8.7338     8.0000    -0.7338     2.0730     1.6862     0.3868
 34 H      0.6253     1.0000     0.3747     0.9084     0.8644     0.0440
 35 H      0.6121     1.0000     0.3879     0.8868     0.8436     0.0431

  Mayer bond orders larger than 0.100000
B(  0-O ,  1-H ) :   0.7968 B(  0-O ,  2-H ) :   0.7937 B(  0-O , 28-H ) :   0.1168 
B(  3-O ,  4-H ) :   0.7547 B(  3-O ,  5-H ) :   0.7901 B(  3-O , 13-H ) :   0.1002 
B(  4-H , 30-O ) :   0.1003 B(  6-O ,  7-H ) :   0.7252 B(  6-O ,  8-H ) :   0.8394 
B(  7-H , 15-O ) :   0.1170 B(  9-O , 10-H ) :   0.7253 B(  9-O , 11-H ) :   0.8395 
B( 10-H , 18-O ) :   0.1168 B( 12-O , 13-H ) :   0.7548 B( 12-O , 14-H ) :   0.7902 
B( 12-O , 22-H ) :   0.1002 B( 15-O , 16-H ) :   0.7968 B( 15-O , 17-H ) :   0.7936 
B( 18-O , 19-H ) :   0.7936 B( 18-O , 20-H ) :   0.7969 B( 21-O , 22-H ) :   0.7547 
B( 21-O , 23-H ) :   0.7904 B( 21-O , 31-H ) :   0.1001 B( 24-O , 25-H ) :   0.7253 
B( 24-O , 26-H ) :   0.8395 B( 25-H , 33-O ) :   0.1169 B( 27-O , 28-H ) :   0.7253 
B( 27-O , 29-H ) :   0.8394 B( 30-O , 31-H ) :   0.7548 B( 30-O , 32-H ) :   0.7902 
B( 33-O , 34-H ) :   0.7936 B( 33-O , 35-H ) :   0.7970 


----------------------------------
MP2 DERIVATIVE INTEGRAL GENERATION
----------------------------------


Input Wavefunction Amplitudes       ... input.mp2tsaa.tmp
Input Correlated Electron Density   ... input.pmp2re
Input Energy Weighted Density       ... input.wmp2.tmp
Input SCF Electron Density          ... input.scfp

One-Electron Terms    ...
                        ... One-Electron Terms done
Prescreening matrices              ... done

Batch handling in the gradient evaluation:
Memory available                      ... 2000.0 MB
Memory per occupied orbital in Q2     ...   97.5 MB
Memory per occupied orbital in Q3     ...    0.2 MB
Total memory requirement per |i>      ...   97.7 MB
Max. Number of orbitals possible      ...     20
Number of orbitals treated per batch  ...     20
Number of batches to be done          ...      3
Batch   0: i=   12 ...    31
Batch   1: i=   32 ...    51
Batch   2: i=   52 ...    59

---------------------------------------
MP2 TOTAL ENERGY:     -915.966533064 Eh
---------------------------------------

-----------------------------------
NORM OF THE MP2 GRADIENT:  0.003484
-----------------------------------

-------------------------   --------------------
FINAL SINGLE POINT ENERGY      -915.966533063941
-------------------------   --------------------

                                *** OPTIMIZATION RUN DONE ***

                            ***************************************
                            *     ORCA property calculations      *
                            ***************************************

                                    ---------------------
                                    Active property flags
                                    ---------------------
   (+) Dipole Moment


------------------------------------------------------------------------------
                       ORCA ELECTRIC PROPERTIES CALCULATION
------------------------------------------------------------------------------

Dipole Moment Calculation                       ... on
Quadrupole Moment Calculation                   ... off
Polarizability Calculation                      ... off
GBWName                                         ... input.gbw
Electron density file                           ... input.scfp
The origin for moment calculation is the CENTER OF MASS  = ( 0.000011,  0.000027 -0.000005)

-------------
DIPOLE MOMENT
-------------
                                X             Y             Z
Electronic contribution:     -0.00017      -0.00026      -0.00027
Nuclear contribution   :     -0.00113       0.00202      -0.00133
                        -----------------------------------------
Total Dipole Moment    :     -0.00131       0.00176      -0.00160
                        -----------------------------------------
Magnitude (a.u.)       :      0.00271
Magnitude (Debye)      :      0.00689



--------------------
Rotational spectrum 
--------------------
 
Rotational constants in cm-1:     0.020379     0.010750     0.010749 
Rotational constants in MHz :   610.944042   322.276351   322.248141 

 Dipole components along the rotational axes: 
x,y,z [a.u.] :     0.001299    -0.002365     0.000264 
x,y,z [Debye]:     0.003302    -0.006011     0.000672 

 

                         *** MP2 UNRELAXED DENSITY ***

------------------------------------------------------------------------------
                       ORCA ELECTRIC PROPERTIES CALCULATION
------------------------------------------------------------------------------

Dipole Moment Calculation                       ... on
Quadrupole Moment Calculation                   ... off
Polarizability Calculation                      ... off
GBWName                                         ... input.gbw
Electron density file                           ... input.pmp2ur
The origin for moment calculation is the CENTER OF MASS  = ( 0.000011,  0.000027 -0.000005)

-------------
DIPOLE MOMENT
-------------
                                X             Y             Z
Electronic contribution:     -0.00016      -0.00028      -0.00025
Nuclear contribution   :     -0.00113       0.00202      -0.00133
                        -----------------------------------------
Total Dipole Moment    :     -0.00129       0.00173      -0.00158
                        -----------------------------------------
Magnitude (a.u.)       :      0.00268
Magnitude (Debye)      :      0.00680



--------------------
Rotational spectrum 
--------------------
 
Rotational constants in cm-1:     0.020379     0.010750     0.010749 
Rotational constants in MHz :   610.944042   322.276351   322.248141 

 Dipole components along the rotational axes: 
x,y,z [a.u.] :     0.001282    -0.002334     0.000257 
x,y,z [Debye]:     0.003260    -0.005932     0.000654 

 

                           *** MP2 RELAXED DENSITY ***

------------------------------------------------------------------------------
                       ORCA ELECTRIC PROPERTIES CALCULATION
------------------------------------------------------------------------------

Dipole Moment Calculation                       ... on
Quadrupole Moment Calculation                   ... off
Polarizability Calculation                      ... off
GBWName                                         ... input.gbw
Electron density file                           ... input.pmp2re
The origin for moment calculation is the CENTER OF MASS  = ( 0.000011,  0.000027 -0.000005)

-------------
DIPOLE MOMENT
-------------
                                X             Y             Z
Electronic contribution:     -0.00010      -0.00034      -0.00017
Nuclear contribution   :     -0.00113       0.00202      -0.00133
                        -----------------------------------------
Total Dipole Moment    :     -0.00123       0.00167      -0.00149
                        -----------------------------------------
Magnitude (a.u.)       :      0.00256
Magnitude (Debye)      :      0.00651



--------------------
Rotational spectrum 
--------------------
 
Rotational constants in cm-1:     0.020379     0.010750     0.010749 
Rotational constants in MHz :   610.944042   322.276351   322.248141 

 Dipole components along the rotational axes: 
x,y,z [a.u.] :     0.001227    -0.002232     0.000268 
x,y,z [Debye]:     0.003118    -0.005674     0.000680 

 

Timings for individual modules:

Sum of individual times         ...     4278.448 sec (=  71.307 min)
GTO integral calculation        ...       11.501 sec (=   0.192 min)   0.3 %
SCF iterations                  ...      154.732 sec (=   2.579 min)   3.6 %
MP2 module                      ...     4098.801 sec (=  68.313 min)  95.8 %
Geometry relaxation             ...       13.415 sec (=   0.224 min)   0.3 %
                             ****ORCA TERMINATED NORMALLY****
TOTAL RUN TIME: 0 days 1 hours 11 minutes 27 seconds 190 msec
