8
Energy:   -103.56582515
O    1.17409194  -0.60427757   1.55635510
H    0.47938114  -1.21797473   1.31764073
H    1.06046421   0.13230124   0.95571191
S   -0.75691043   0.45569966  -1.05572299
O   -1.92552889   1.33394220  -1.34403004
O   -1.21492472  -0.75313351  -0.31474710
O   -0.11926436   0.04095159  -2.33693006
O    0.23207625   1.20103836  -0.22718478
