8
Energy:   -106.12714648
O   -1.96761040   0.18517198   0.32219789
H   -1.26662593   0.46539646   0.91069331
H   -1.51325342  -0.13219276  -0.45823225
S    1.31344050  -0.13975865  -0.21445738
O    0.26172710  -0.14467857  -1.26990739
O    0.76472312   0.46748021   1.03064109
O    1.74470322  -1.53863759   0.06348183
O    2.48260857   0.65680134  -0.68204503
