8
Energy:   -103.49703790
O   -1.42742617  -1.50740666  -0.39152081
H   -1.66978793  -0.58536471  -0.47714364
H   -0.50860321  -1.49016371  -0.12375432
S    0.98932965   0.99402038   0.27212460
O   -0.44058684   1.26894559  -0.04387376
O    1.20179964  -0.47733584   0.37246088
O    1.85225821   1.54786963  -0.80894216
O    1.34384762   1.63660217   1.56885344
