8
Energy:   -104.41444911
O   -0.09130068   0.47603494   1.95094117
H    0.12405743  -0.42927174   1.72672578
H   -0.14915628   0.92490937   1.10749804
S    0.03750760  -0.27785574  -1.31988660
O    0.03435810   1.09095644  -0.73129225
O    0.57189481  -1.24647446  -0.32173426
O   -1.35359938  -0.66259662  -1.68988101
O    0.89737685  -0.29330831  -2.53663887
