
                                 *****************
                                 * O   R   C   A *
                                 *****************

           --- An Ab Initio, DFT and Semiempirical electronic structure package ---

                  #######################################################
                  #                        -***-                        #
                  #          Department of theory and spectroscopy      #
                  #               Directorship: Frank Neese             #
                  #        Max Planck Institute fuer Kohlenforschung    #
                  #                Kaiser Wilhelm Platz 1               #
                  #                 D-45470 Muelheim/Ruhr               #
                  #                      Germany                        #
                  #                                                     #
                  #                  All rights reserved                #
                  #                        -***-                        #
                  #######################################################


                         Program Version 4.2.0 -  RELEASE  -


 With contributions from (in alphabetic order):
   Daniel Aravena         : Magnetic Suceptibility
   Michael Atanasov       : Ab Initio Ligand Field Theory (pilot matlab implementation)
   Alexander A. Auer      : GIAO ZORA, VPT2
   Ute Becker             : Parallelization
   Giovanni Bistoni       : ED, misc. LED, open-shell LED, HFLED
   Martin Brehm           : Molecular dynamics
   Dmytro Bykov           : SCF Hessian
   Vijay G. Chilkuri      : MRCI spin determinant printing, contributions to CSF-ICE
   Dipayan Datta          : RHF DLPNO-CCSD density
   Achintya Kumar Dutta   : EOM-CC, STEOM-CC
   Dmitry Ganyushin       : Spin-Orbit,Spin-Spin,Magnetic field MRCI
   Miquel Garcia          : C-PCM Hessian, Gaussian charge scheme
   Yang Guo               : DLPNO-NEVPT2, CIM, IAO-localization
   Andreas Hansen         : Spin unrestricted coupled pair/coupled cluster methods
   Benjamin Helmich-Paris : CASSCF linear response (MC-RPA)
   Lee Huntington         : MR-EOM, pCC
   Robert Izsak           : Overlap fitted RIJCOSX, COSX-SCS-MP3, EOM
   Christian Kollmar      : KDIIS, OOCD, Brueckner-CCSD(T), CCSD density
   Simone Kossmann        : Meta GGA functionals, TD-DFT gradient, OOMP2, MP2 Hessian
   Martin Krupicka        : AUTO-CI
   Lucas Lang             : DCDCAS
   Dagmar Lenk            : GEPOL surface, SMD
   Dimitrios Liakos       : Extrapolation schemes; Compound Job, initial MDCI parallelization
   Dimitrios Manganas     : Further ROCIS development; embedding schemes
   Dimitrios Pantazis     : SARC Basis sets
   Taras Petrenko         : DFT Hessian,TD-DFT gradient, ASA, ECA, R-Raman, ABS, FL, XAS/XES, NRVS
   Peter Pinski           : DLPNO-MP2, DLPNO-MP2 Gradient
   Christoph Reimann      : Effective Core Potentials
   Marius Retegan         : Local ZFS, SOC
   Christoph Riplinger    : Optimizer, TS searches, QM/MM, DLPNO-CCSD(T), (RO)-DLPNO pert. Triples
   Tobias Risthaus        : Range-separated hybrids, TD-DFT gradient, RPA, STAB
   Michael Roemelt        : Original ROCIS implementation
   Masaaki Saitow         : Open-shell DLPNO-CCSD energy and density
   Barbara Sandhoefer     : DKH picture change effects
   Avijit Sen             : IP-ROCIS
   Kantharuban Sivalingam : CASSCF convergence, NEVPT2, FIC-MRCI
   Bernardo de Souza      : ESD, SOC TD-DFT
   Georgi Stoychev        : AutoAux, RI-MP2 NMR
   Willem Van den Heuvel  : Paramagnetic NMR
   Boris Wezisla          : Elementary symmetry handling
   Frank Wennmohs         : Technical directorship


 We gratefully acknowledge several colleagues who have allowed us to
 interface, adapt or use parts of their codes:
   Stefan Grimme, W. Hujo, H. Kruse,             : VdW corrections, initial TS optimization,
                  C. Bannwarth                     DFT functionals, gCP, sTDA/sTD-DF
   Ed Valeev, F. Pavosevic, A. Kumar             : LibInt (2-el integral package), F12 methods
   Garnet Chan, S. Sharma, J. Yang, R. Olivares  : DMRG
   Ulf Ekstrom                                   : XCFun DFT Library
   Mihaly Kallay                                 : mrcc  (arbitrary order and MRCC methods)
   Andreas Klamt, Michael Diedenhofen            : otool_cosmo (COSMO solvation model)
   Jiri Pittner, Ondrej Demel                    : Mk-CCSD
   Frank Weinhold                                : gennbo (NPA and NBO analysis)
   Christopher J. Cramer and Donald G. Truhlar   : smd solvation model
   Lars Goerigk                                  : TD-DFT with DH, B97 family of functionals
   V. Asgeirsson, H. Jonsson                     : NEB implementation
   FAccTs GmbH                                   : IRC, NEB, NEB-TS, Multilevel, MM, QM/MM, CI optimization
   S Lehtola, MJT Oliveira, MAL Marques          : LibXC Library


 Your calculation uses the libint2 library for the computation of 2-el integrals
 For citations please refer to: http://libint.valeyev.net

 Your ORCA version has been built with support for libXC version: 4.2.3
 For citations please refer to: https://tddft.org/programs/libxc/

 This ORCA versions uses:
   CBLAS   interface :  Fast vector & matrix operations
   LAPACKE interface :  Fast linear algebra routines
   SCALAPACK package :  Parallel linear algebra routines


----- Orbital basis set information -----
Your calculation utilizes the basis: def2-TZVP
   F. Weigend and R. Ahlrichs, Phys. Chem. Chem. Phys. 7, 3297 (2005).

================================================================================
                                        WARNINGS
                       Please study these warnings very carefully!
================================================================================


WARNING: The frozen-core approximation for MP2-gradient calculations is turned on by default.

INFO   : the flag for use of LIBINT has been found!

================================================================================
                                       INPUT FILE
================================================================================
NAME = 5mecn.malloum.etal.8-orca.engrad-mp2.def2tzvp.inp
|  1> ! MP2 def2-TZVP EnGrad TightSCF FrozenCore
|  2> 
|  3> %pal
|  4>     nprocs 12
|  5> end
|  6> 
|  7> %maxcore 8000
|  8> 
|  9> %scf
| 10>     ConvForced true
| 11> end
| 12> 
| 13> *xyz 0 1
| 14> C    -2.903447    -1.120042    -1.995790
| 15> H    -3.872618    -1.279912    -2.474951
| 16> H    -2.143509    -1.741235    -2.475983
| 17> H    -2.610770    -0.070345    -2.093078
| 18> C    -2.984212    -1.453649    -0.576677
| 19> N    -3.041573    -1.709300     0.555798
| 20> C     0.318112    -1.653628     1.364591
| 21> H    -0.705207    -1.859408     1.692503
| 22> H     0.753182    -0.836271     1.948524
| 23> H     0.943273    -2.539752     1.498780
| 24> C     0.306185    -1.272065    -0.044220
| 25> N     0.298915    -0.964016    -1.165986
| 26> C    -1.968852     1.148167     2.129677
| 27> H    -0.917594     1.179135     2.433071
| 28> H    -2.366600     0.137578     2.262554
| 29> H    -2.541287     1.846831     2.745299
| 30> C    -2.072736     1.522912     0.722454
| 31> N    -2.150240     1.823649    -0.397667
| 32> C     0.858237     2.395559    -1.356733
| 33> H     0.457605     1.523402    -1.883056
| 34> H     1.782814     2.729963    -1.836360
| 35> H     0.113326     3.193847    -1.392843
| 36> C     1.119792     2.022232     0.030827
| 37> N     1.336913     1.705747     1.128301
| 38> C     3.721255    -0.024364    -1.012420
| 39> H     2.798803    -0.047460    -1.601863
| 40> H     4.568459    -0.274943    -1.655933
| 41> H     3.863709     0.978999    -0.601578
| 42> C     3.615668    -0.991141     0.077546
| 43> N     3.529758    -1.768126     0.936610
| 44> *
| 45> 
| 46>                          ****END OF INPUT****
================================================================================

                     *******************************
                     * Energy+Gradient Calculation *
                     *******************************

---------------------------------
CARTESIAN COORDINATES (ANGSTROEM)
---------------------------------
  C     -2.903447   -1.120042   -1.995790
  H     -3.872618   -1.279912   -2.474951
  H     -2.143509   -1.741235   -2.475983
  H     -2.610770   -0.070345   -2.093078
  C     -2.984212   -1.453649   -0.576677
  N     -3.041573   -1.709300    0.555798
  C      0.318112   -1.653628    1.364591
  H     -0.705207   -1.859408    1.692503
  H      0.753182   -0.836271    1.948524
  H      0.943273   -2.539752    1.498780
  C      0.306185   -1.272065   -0.044220
  N      0.298915   -0.964016   -1.165986
  C     -1.968852    1.148167    2.129677
  H     -0.917594    1.179135    2.433071
  H     -2.366600    0.137578    2.262554
  H     -2.541287    1.846831    2.745299
  C     -2.072736    1.522912    0.722454
  N     -2.150240    1.823649   -0.397667
  C      0.858237    2.395559   -1.356733
  H      0.457605    1.523402   -1.883056
  H      1.782814    2.729963   -1.836360
  H      0.113326    3.193847   -1.392843
  C      1.119792    2.022232    0.030827
  N      1.336913    1.705747    1.128301
  C      3.721255   -0.024364   -1.012420
  H      2.798803   -0.047460   -1.601863
  H      4.568459   -0.274943   -1.655933
  H      3.863709    0.978999   -0.601578
  C      3.615668   -0.991141    0.077546
  N      3.529758   -1.768126    0.936610

----------------------------
CARTESIAN COORDINATES (A.U.)
----------------------------
  NO LB      ZA    FRAG     MASS         X           Y           Z
   0 C     6.0000    0    12.011   -5.486720   -2.116573   -3.771497
   1 H     1.0000    0     1.008   -7.318187   -2.418683   -4.676980
   2 H     1.0000    0     1.008   -4.050645   -3.290457   -4.678930
   3 H     1.0000    0     1.008   -4.933640   -0.132933   -3.955344
   4 C     6.0000    0    12.011   -5.639343   -2.746999   -1.089762
   5 N     7.0000    0    14.007   -5.747740   -3.230109    1.050306
   6 C     6.0000    0    12.011    0.601145   -3.124904    2.578703
   7 H     1.0000    0     1.008   -1.332648   -3.513772    3.198367
   8 H     1.0000    0     1.008    1.423308   -1.580323    3.682177
   9 H     1.0000    0     1.008    1.782528   -4.799436    2.832284
  10 C     6.0000    0    12.011    0.578606   -2.403854   -0.083564
  11 N     7.0000    0    14.007    0.564867   -1.821726   -2.203394
  12 C     6.0000    0    12.011   -3.720591    2.169721    4.024506
  13 H     1.0000    0     1.008   -1.734001    2.228242    4.597838
  14 H     1.0000    0     1.008   -4.472226    0.259985    4.275607
  15 H     1.0000    0     1.008   -4.802336    3.490005    5.187863
  16 C     6.0000    0    12.011   -3.916903    2.877887    1.365240
  17 N     7.0000    0    14.007   -4.063365    3.446197   -0.751482
  18 C     6.0000    0    12.011    1.621833    4.526950   -2.563854
  19 H     1.0000    0     1.008    0.864748    2.878813   -3.558460
  20 H     1.0000    0     1.008    3.369030    5.158882   -3.470217
  21 H     1.0000    0     1.008    0.214155    6.035496   -2.632092
  22 C     6.0000    0    12.011    2.116100    3.821465    0.058255
  23 N     7.0000    0    14.007    2.526399    3.223395    2.132180
  24 C     6.0000    0    12.011    7.032153   -0.046041   -1.913197
  25 H     1.0000    0     1.008    5.288971   -0.089686   -3.027082
  26 H     1.0000    0     1.008    8.633136   -0.519567   -3.129260
  27 H     1.0000    0     1.008    7.301352    1.850040   -1.136818
  28 C     6.0000    0    12.011    6.832622   -1.872985    0.146541
  29 N     7.0000    0    14.007    6.670276   -3.341274    1.769936

--------------------------------
INTERNAL COORDINATES (ANGSTROEM)
--------------------------------
 C      0   0   0     0.000000000000     0.00000000     0.00000000
 H      1   0   0     1.092907181815     0.00000000     0.00000000
 H      1   2   0     1.092690177654   109.93192871     0.00000000
 H      1   2   3     1.094069729534   109.79072767   119.51167640
 C      1   2   3     1.460033671681   110.10013054   239.13802310
 N      5   1   2     1.162388637138   179.38794655   221.00567167
 C      6   5   1     3.456114695385   100.16492260   307.95884130
 H      7   6   5     1.094099384839    32.63711217   185.79975073
 H      7   6   5     1.094685397198   121.54767866   106.87729308
 H      7   6   5     1.092725357543   124.87754287   257.93057883
 C      7   6   5     1.459616733947    76.72619379     2.72566976
 N     11   7   6     1.163316808981   179.77075605   123.23039993
 C      8   7   6     3.291417198248   103.12230276   285.03206767
 H     13   8   7     1.094600529337    72.17849739   324.10043810
 H     13   8   7     1.094143452914    46.50525872   181.00476083
 H     13   8   7     1.093070748399   149.30741941   226.34331092
 C     13   8   7     1.459966531195    97.69149562    71.82810623
 N     17  13   8     1.162377162468   179.71764008   267.87034309
 C     18  17  13     3.209022047289   105.75952948    18.73571145
 H     19  18  17     1.094613965013    70.03618378   114.44560200
 H     19  18  17     1.093942742228   167.92469507   206.83980423
 H     19  18  17     1.092455976671    60.05642620   241.18525965
 C     19  18  17     1.460515943273    80.70025308     0.67561287
 N     23  19  18     1.162649329997   178.89570682   108.45502140
 C     21  19  22     3.467383430919    97.20901749   173.22837369
 H     25  21  19     1.094940257626    54.39822904    59.50036545
 H     25  21  19     1.093002028372   118.39428691   153.86180685
 H     25  21  19     1.093536282365    55.47627021   248.69504002
 C     25  21  19     1.460764273746   131.50033370   335.05246374
 N     29  25  21     1.161497815074   179.43753631   115.73975137

---------------------------
INTERNAL COORDINATES (A.U.)
---------------------------
 C      0   0   0     0.000000000000     0.00000000     0.00000000
 H      1   0   0     2.065295263425     0.00000000     0.00000000
 H      1   2   0     2.064885184992   109.93192871     0.00000000
 H      1   2   3     2.067492160232   109.79072767   119.51167640
 C      1   2   3     2.759063785781   110.10013054   239.13802310
 N      5   1   2     2.196596185372   179.38794655   221.00567167
 C      6   5   1     6.531110261699   100.16492260   307.95884130
 H      7   6   5     2.067548200637    32.63711217   185.79975073
 H      7   6   5     2.068655603507   121.54767866   106.87729308
 H      7   6   5     2.064951665348   124.87754287   257.93057883
 C      7   6   5     2.758275887649    76.72619379     2.72566976
 N     11   7   6     2.198350175961   179.77075605   123.23039993
 C      8   7   6     6.219877097168   103.12230276   285.03206767
 H     13   8   7     2.068495226491    72.17849739   324.10043810
 H     13   8   7     2.067631477230    46.50525872   181.00476083
 H     13   8   7     2.065604359474   149.30741941   226.34331092
 C     13   8   7     2.758936908650    97.69149562    71.82810623
 N     17  13   8     2.196574501388   179.71764008   267.87034309
 C     18  17  13     6.064172827091   105.75952948    18.73571145
 H     19  18  17     2.068520616241    70.03618378   114.44560200
 H     19  18  17     2.067252189002   167.92469507   206.83980423
 H     19  18  17     2.064442609274    60.05642620   241.18525965
 C     19  18  17     2.759975147011    80.70025308     0.67561287
 N     23  19  18     2.197088823481   178.89570682   108.45502140
 C     21  19  22     6.552405085733    97.20901749   173.22837369
 H     25  21  19     2.069137219917    54.39822904    59.50036545
 H     25  21  19     2.065474497444   118.39428691   153.86180685
 H     25  21  19     2.066484091177    55.47627021   248.69504002
 C     25  21  19     2.760444423597   131.50033370   335.05246374
 N     29  25  21     2.194912775637   179.43753631   115.73975137

---------------------
BASIS SET INFORMATION
---------------------
There are 3 groups of distinct atoms

 Group   1 Type C   : 11s6p2d1f contracted to 5s3p2d1f pattern {62111/411/11/1}
 Group   2 Type H   : 5s1p contracted to 3s1p pattern {311/1}
 Group   3 Type N   : 11s6p2d1f contracted to 5s3p2d1f pattern {62111/411/11/1}

Atom   0C    basis set group =>   1
Atom   1H    basis set group =>   2
Atom   2H    basis set group =>   2
Atom   3H    basis set group =>   2
Atom   4C    basis set group =>   1
Atom   5N    basis set group =>   3
Atom   6C    basis set group =>   1
Atom   7H    basis set group =>   2
Atom   8H    basis set group =>   2
Atom   9H    basis set group =>   2
Atom  10C    basis set group =>   1
Atom  11N    basis set group =>   3
Atom  12C    basis set group =>   1
Atom  13H    basis set group =>   2
Atom  14H    basis set group =>   2
Atom  15H    basis set group =>   2
Atom  16C    basis set group =>   1
Atom  17N    basis set group =>   3
Atom  18C    basis set group =>   1
Atom  19H    basis set group =>   2
Atom  20H    basis set group =>   2
Atom  21H    basis set group =>   2
Atom  22C    basis set group =>   1
Atom  23N    basis set group =>   3
Atom  24C    basis set group =>   1
Atom  25H    basis set group =>   2
Atom  26H    basis set group =>   2
Atom  27H    basis set group =>   2
Atom  28C    basis set group =>   1
Atom  29N    basis set group =>   3


           ************************************************************
           *        Program running with 12 parallel MPI-processes    *
           *              working on a common directory               *
           ************************************************************
------------------------------------------------------------------------------
                           ORCA GTO INTEGRAL CALCULATION
------------------------------------------------------------------------------

                         BASIS SET STATISTICS AND STARTUP INFO

 # of primitive gaussian shells          ...  390
 # of primitive gaussian functions       ...  810
 # of contracted shells                  ...  225
 # of contracted basis functions         ...  555
 Highest angular momentum                ...    3
 Maximum contraction depth               ...    6
 Integral package used                   ... LIBINT
 Integral threshhold            Thresh   ...  2.500e-11
 Primitive cut-off              TCut     ...  2.500e-12


------------------------------ INTEGRAL EVALUATION ----------------------------


 * One electron integrals 
 Pre-screening matrix                    ... done
 Shell pair data                         ... done (   0.005 sec)



           ************************************************************
           *        Program running with 12 parallel MPI-processes    *
           *              working on a common directory               *
           ************************************************************
-------------------------------------------------------------------------------
                                 ORCA SCF
-------------------------------------------------------------------------------

------------
SCF SETTINGS
------------
Hamiltonian:
 Ab initio Hamiltonian  Method          .... Hartree-Fock(GTOs)


General Settings:
 Integral files         IntName         .... 5mecn.malloum.etal.8-orca.engrad-mp2.def2tzvp
 Hartree-Fock type      HFTyp           .... RHF
 Total Charge           Charge          ....    0
 Multiplicity           Mult            ....    1
 Number of Electrons    NEL             ....  110
 Basis Dimension        Dim             ....  555
 Nuclear Repulsion      ENuc            ....    884.3399605730 Eh

Convergence Acceleration:
 DIIS                   CNVDIIS         .... on
   Start iteration      DIISMaxIt       ....    12
   Startup error        DIISStart       ....  0.200000
   # of expansion vecs  DIISMaxEq       ....     5
   Bias factor          DIISBfac        ....   1.050
   Max. coefficient     DIISMaxC        ....  10.000
 Newton-Raphson         CNVNR           .... off
 SOSCF                  CNVSOSCF        .... on
   Start iteration      SOSCFMaxIt      ....   150
   Startup grad/error   SOSCFStart      ....  0.003300
 Level Shifting         CNVShift        .... on
   Level shift para.    LevelShift      ....    0.2500
   Turn off err/grad.   ShiftErr        ....    0.0010
 Zerner damping         CNVZerner       .... off
 Static damping         CNVDamp         .... on
   Fraction old density DampFac         ....    0.7000
   Max. Damping (<1)    DampMax         ....    0.9800
   Min. Damping (>=0)   DampMin         ....    0.0000
   Turn off err/grad.   DampErr         ....    0.1000
 Fernandez-Rico         CNVRico         .... off

SCF Procedure:
 Maximum # iterations   MaxIter         ....   125
 SCF integral mode      SCFMode         .... Direct
   Integral package                     .... LIBINT
 Reset frequency        DirectResetFreq ....    20
 Integral Threshold     Thresh          ....  2.500e-11 Eh
 Primitive CutOff       TCut            ....  2.500e-12 Eh

Convergence Tolerance:
 Convergence Check Mode ConvCheckMode   .... Total+1el-Energy
 Convergence forced     ConvForced      .... 1
 Energy Change          TolE            ....  1.000e-08 Eh
 1-El. energy change                    ....  1.000e-05 Eh
 Orbital Gradient       TolG            ....  1.000e-05
 Orbital Rotation angle TolX            ....  1.000e-05
 DIIS Error             TolErr          ....  5.000e-07


Diagonalization of the overlap matrix:
Smallest eigenvalue                        ... 1.216e-04
Time for diagonalization                   ...    0.103 sec
Threshold for overlap eigenvalues          ... 1.000e-08
Number of eigenvalues below threshold      ... 0
Time for construction of square roots      ...    0.195 sec
Total time needed                          ...    0.298 sec

-------------------
DFT GRID GENERATION
-------------------

General Integration Accuracy     IntAcc      ...  4.340
Radial Grid Type                 RadialGrid  ... Gauss-Chebyshev
Angular Grid (max. acc.)         AngularGrid ... Lebedev-110
Angular grid pruning method      GridPruning ... 3 (G Style)
Weight generation scheme         WeightScheme... Becke
Basis function cutoff            BFCut       ...    1.0000e-11
Integration weight cutoff        WCut        ...    1.0000e-14
Grids for H and He will be reduced by one unit

# of grid points (after initial pruning)     ...  36980 (   0.0 sec)
# of grid points (after weights+screening)   ...  33558 (   0.1 sec)
nearest neighbour list constructed           ...    0.0 sec
Grid point re-assignment to atoms done       ...    0.0 sec
Grid point division into batches done        ...    0.0 sec
Reduced shell lists constructed in    0.1 sec

Total number of grid points                  ...    33558
Total number of batches                      ...      540
Average number of points per batch           ...       62
Average number of grid points per atom       ...     1119
Average number of shells per batch           ...    88.72 (39.43%)
Average number of basis functions per batch  ...   201.80 (36.36%)
Average number of large shells per batch     ...    56.78 (64.00%)
Average number of large basis fcns per batch ...   128.57 (63.71%)
Maximum spatial batch extension              ...  16.74, 25.60, 16.14 au
Average spatial batch extension              ...   0.35,  0.40,  0.36 au

Time for grid setup =    0.217 sec

------------------------------
INITIAL GUESS: MODEL POTENTIAL
------------------------------
Loading Hartree-Fock densities                     ... done
Calculating cut-offs                               ... done
Setting up the integral package                    ... done
Initializing the effective Hamiltonian             ... done
Starting the Coulomb interaction                   ... done (   0.1 sec)
Reading the grid                                   ... done
Mapping shells                                     ... done
Starting the XC term evaluation                    ... done (   0.2 sec)
Transforming the Hamiltonian                       ... done (   0.2 sec)
Diagonalizing the Hamiltonian                      ... done (   0.2 sec)
Back transforming the eigenvectors                 ... done (   0.1 sec)
Now organizing SCF variables                       ... done
                      ------------------
                      INITIAL GUESS DONE (   1.0 sec)
                      ------------------
--------------
SCF ITERATIONS
--------------
ITER       Energy         Delta-E        Max-DP      RMS-DP      [F,P]     Damp
               ***  Starting incremental Fock matrix formation  ***
  0   -659.1244871123   0.000000000000 0.03687606  0.00065948  0.2721197 0.7000
  1   -659.3961786416  -0.271691529308 0.02633771  0.00052099  0.1876237 0.7000
                               ***Turning on DIIS***
  2   -659.5569686519  -0.160790010291 0.01570560  0.00035828  0.1417709 0.7000
  3   -661.1507418853  -1.593773233394 0.01049350  0.00024886  0.1053034 0.7000
  4   -661.0497667068   0.100975178418 0.02798656  0.00061192  0.0742224 0.0000
  5   -659.9357494723   1.114017234517 0.00501770  0.00008171  0.0054561 0.0000
                      *** Initiating the SOSCF procedure ***
                           *** Shutting down DIIS ***
                      *** Re-Reading the Fockian *** 
                      *** Removing any level shift *** 
ITER      Energy       Delta-E        Grad      Rot      Max-DP    RMS-DP
  6   -659.90278501   0.0329644640  0.001212  0.001212  0.003602  0.000048
               *** Restarting incremental Fock matrix formation ***
  7   -659.89008844   0.0126965659  0.000395  0.000517  0.002039  0.000033
  8   -659.89011954  -0.0000310940  0.000233  0.000510  0.002012  0.000027
  9   -659.89012748  -0.0000079452  0.000090  0.000123  0.000573  0.000007
 10   -659.89012828  -0.0000008021  0.000020  0.000033  0.000063  0.000001
 11   -659.89012832  -0.0000000371  0.000007  0.000031  0.000037  0.000001
 12   -659.89012833  -0.0000000142  0.000004  0.000009  0.000032  0.000000
                  ***Gradient check signals convergence***
              ***Rediagonalizing the Fockian in SOSCF/NRSCF***

               *****************************************************
               *                     SUCCESS                       *
               *           SCF CONVERGED AFTER  13 CYCLES          *
               *****************************************************


----------------
TOTAL SCF ENERGY
----------------

Total Energy       :         -659.89012834 Eh          -17956.52328 eV

Components:
Nuclear Repulsion  :          884.33996057 Eh           24064.11372 eV
Electronic Energy  :        -1544.23008891 Eh          -42020.63701 eV
One Electron Energy:        -2650.73286142 Eh          -72130.10818 eV
Two Electron Energy:         1106.50277251 Eh           30109.47118 eV

Virial components:
Potential Energy   :        -1318.52824925 Eh          -35878.97771 eV
Kinetic Energy     :          658.63812092 Eh           17922.45443 eV
Virial Ratio       :            2.00190090


---------------
SCF CONVERGENCE
---------------

  Last Energy change         ...   -2.1146e-09  Tolerance :   1.0000e-08
  Last MAX-Density change    ...    1.1688e-05  Tolerance :   1.0000e-07
  Last RMS-Density change    ...    1.7920e-07  Tolerance :   5.0000e-09
  Last Orbital Gradient      ...    1.7628e-06  Tolerance :   1.0000e-05
  Last Orbital Rotation      ...    4.3850e-06  Tolerance :   1.0000e-05

             **** THE GBW FILE WAS UPDATED (5mecn.malloum.etal.8-orca.engrad-mp2.def2tzvp.gbw) ****
             **** DENSITY FILE WAS UPDATED (5mecn.malloum.etal.8-orca.engrad-mp2.def2tzvp.scfp) ****
             **** ENERGY FILE WAS UPDATED (5mecn.malloum.etal.8-orca.engrad-mp2.def2tzvp.en.tmp) ****
             **** THE GBW FILE WAS UPDATED (5mecn.malloum.etal.8-orca.engrad-mp2.def2tzvp.gbw) ****
             **** DENSITY FILE WAS UPDATED (5mecn.malloum.etal.8-orca.engrad-mp2.def2tzvp.scfp) ****
----------------
ORBITAL ENERGIES
----------------

  NO   OCC          E(Eh)            E(eV) 
   0   2.0000     -15.573854      -423.7861 
   1   2.0000     -15.570254      -423.6882 
   2   2.0000     -15.567498      -423.6132 
   3   2.0000     -15.566736      -423.5924 
   4   2.0000     -15.566343      -423.5817 
   5   2.0000     -11.287831      -307.1575 
   6   2.0000     -11.284795      -307.0749 
   7   2.0000     -11.283496      -307.0395 
   8   2.0000     -11.282419      -307.0102 
   9   2.0000     -11.277706      -306.8820 
  10   2.0000     -11.276507      -306.8494 
  11   2.0000     -11.274427      -306.7928 
  12   2.0000     -11.270614      -306.6890 
  13   2.0000     -11.267148      -306.5947 
  14   2.0000     -11.259638      -306.3903 
  15   2.0000      -1.224929       -33.3320 
  16   2.0000      -1.219933       -33.1961 
  17   2.0000      -1.218059       -33.1451 
  18   2.0000      -1.215231       -33.0681 
  19   2.0000      -1.213041       -33.0085 
  20   2.0000      -1.035118       -28.1670 
  21   2.0000      -1.031714       -28.0744 
  22   2.0000      -1.030345       -28.0371 
  23   2.0000      -1.026143       -27.9228 
  24   2.0000      -1.021050       -27.7842 
  25   2.0000      -0.694217       -18.8906 
  26   2.0000      -0.691929       -18.8283 
  27   2.0000      -0.689564       -18.7640 
  28   2.0000      -0.685432       -18.6515 
  29   2.0000      -0.680052       -18.5052 
  30   2.0000      -0.634392       -17.2627 
  31   2.0000      -0.632285       -17.2053 
  32   2.0000      -0.629729       -17.1358 
  33   2.0000      -0.622973       -16.9520 
  34   2.0000      -0.618918       -16.8416 
  35   2.0000      -0.616593       -16.7783 
  36   2.0000      -0.614629       -16.7249 
  37   2.0000      -0.610148       -16.6030 
  38   2.0000      -0.605053       -16.4643 
  39   2.0000      -0.602184       -16.3863 
  40   2.0000      -0.563454       -15.3324 
  41   2.0000      -0.558883       -15.2080 
  42   2.0000      -0.558259       -15.1910 
  43   2.0000      -0.555285       -15.1101 
  44   2.0000      -0.552775       -15.0418 
  45   2.0000      -0.471305       -12.8249 
  46   2.0000      -0.467527       -12.7221 
  47   2.0000      -0.466271       -12.6879 
  48   2.0000      -0.461560       -12.5597 
  49   2.0000      -0.459586       -12.5060 
  50   2.0000      -0.457678       -12.4540 
  51   2.0000      -0.456235       -12.4148 
  52   2.0000      -0.455935       -12.4066 
  53   2.0000      -0.453921       -12.3518 
  54   2.0000      -0.451988       -12.2992 
  55   0.0000       0.119570         3.2537 
  56   0.0000       0.139374         3.7926 
  57   0.0000       0.149770         4.0754 
  58   0.0000       0.156551         4.2600 
  59   0.0000       0.160921         4.3789 
  60   0.0000       0.164201         4.4681 
  61   0.0000       0.169917         4.6237 
  62   0.0000       0.173308         4.7159 
  63   0.0000       0.178879         4.8675 
  64   0.0000       0.179213         4.8766 
  65   0.0000       0.179980         4.8975 
  66   0.0000       0.191125         5.2008 
  67   0.0000       0.192643         5.2421 
  68   0.0000       0.195365         5.3162 
  69   0.0000       0.200700         5.4613 
  70   0.0000       0.203379         5.5342 
  71   0.0000       0.214122         5.8266 
  72   0.0000       0.221295         6.0218 
  73   0.0000       0.225534         6.1371 
  74   0.0000       0.231213         6.2916 
  75   0.0000       0.239936         6.5290 
  76   0.0000       0.246989         6.7209 
  77   0.0000       0.255231         6.9452 
  78   0.0000       0.255804         6.9608 
  79   0.0000       0.260768         7.0959 
  80   0.0000       0.263846         7.1796 
  81   0.0000       0.265689         7.2298 
  82   0.0000       0.274681         7.4745 
  83   0.0000       0.286495         7.7959 
  84   0.0000       0.290036         7.8923 
  85   0.0000       0.310034         8.4365 
  86   0.0000       0.314179         8.5492 
  87   0.0000       0.320448         8.7198 
  88   0.0000       0.322696         8.7810 
  89   0.0000       0.327409         8.9092 
  90   0.0000       0.328689         8.9441 
  91   0.0000       0.338803         9.2193 
  92   0.0000       0.341736         9.2991 
  93   0.0000       0.346115         9.4183 
  94   0.0000       0.354226         9.6390 
  95   0.0000       0.376222        10.2375 
  96   0.0000       0.391709        10.6589 
  97   0.0000       0.394876        10.7451 
  98   0.0000       0.405316        11.0292 
  99   0.0000       0.416498        11.3335 
 100   0.0000       0.425558        11.5800 
 101   0.0000       0.429354        11.6833 
 102   0.0000       0.441316        12.0088 
 103   0.0000       0.449737        12.2380 
 104   0.0000       0.468228        12.7411 
 105   0.0000       0.478759        13.0277 
 106   0.0000       0.480657        13.0793 
 107   0.0000       0.487473        13.2648 
 108   0.0000       0.490278        13.3412 
 109   0.0000       0.504581        13.7304 
 110   0.0000       0.515037        14.0149 
 111   0.0000       0.519178        14.1275 
 112   0.0000       0.527935        14.3658 
 113   0.0000       0.531955        14.4752 
 114   0.0000       0.533666        14.5218 
 115   0.0000       0.541398        14.7322 
 116   0.0000       0.543871        14.7995 
 117   0.0000       0.557103        15.1596 
 118   0.0000       0.563315        15.3286 
 119   0.0000       0.564775        15.3683 
 120   0.0000       0.568440        15.4680 
 121   0.0000       0.573665        15.6102 
 122   0.0000       0.587307        15.9814 
 123   0.0000       0.601951        16.3799 
 124   0.0000       0.607069        16.5192 
 125   0.0000       0.611240        16.6327 
 126   0.0000       0.613093        16.6831 
 127   0.0000       0.618518        16.8307 
 128   0.0000       0.625770        17.0281 
 129   0.0000       0.630231        17.1495 
 130   0.0000       0.633730        17.2447 
 131   0.0000       0.637880        17.3576 
 132   0.0000       0.642462        17.4823 
 133   0.0000       0.654474        17.8091 
 134   0.0000       0.656764        17.8714 
 135   0.0000       0.661926        18.0119 
 136   0.0000       0.667636        18.1673 
 137   0.0000       0.675226        18.3738 
 138   0.0000       0.693895        18.8818 
 139   0.0000       0.699340        19.0300 
 140   0.0000       0.707736        19.2585 
 141   0.0000       0.712986        19.4013 
 142   0.0000       0.719314        19.5735 
 143   0.0000       0.728183        19.8149 
 144   0.0000       0.739119        20.1125 
 145   0.0000       0.741696        20.1826 
 146   0.0000       0.753142        20.4940 
 147   0.0000       0.762209        20.7408 
 148   0.0000       0.764120        20.7928 
 149   0.0000       0.773023        21.0350 
 150   0.0000       0.782523        21.2935 
 151   0.0000       0.787146        21.4193 
 152   0.0000       0.808395        21.9976 
 153   0.0000       0.818680        22.2774 
 154   0.0000       0.833729        22.6869 
 155   0.0000       0.839371        22.8405 
 156   0.0000       0.845284        23.0014 
 157   0.0000       0.868252        23.6263 
 158   0.0000       0.877363        23.8742 
 159   0.0000       0.883093        24.0302 
 160   0.0000       0.891442        24.2574 
 161   0.0000       0.906124        24.6569 
 162   0.0000       0.914526        24.8855 
 163   0.0000       0.921572        25.0772 
 164   0.0000       0.927022        25.2255 
 165   0.0000       0.932618        25.3778 
 166   0.0000       0.940801        25.6005 
 167   0.0000       0.956488        26.0274 
 168   0.0000       0.962322        26.1861 
 169   0.0000       0.971850        26.4454 
 170   0.0000       0.974965        26.5301 
 171   0.0000       0.989463        26.9247 
 172   0.0000       0.999165        27.1886 
 173   0.0000       1.009393        27.4670 
 174   0.0000       1.025694        27.9105 
 175   0.0000       1.045371        28.4460 
 176   0.0000       1.049563        28.5601 
 177   0.0000       1.052106        28.6292 
 178   0.0000       1.073142        29.2017 
 179   0.0000       1.080433        29.4001 
 180   0.0000       1.107058        30.1246 
 181   0.0000       1.124786        30.6070 
 182   0.0000       1.128011        30.6947 
 183   0.0000       1.138358        30.9763 
 184   0.0000       1.147367        31.2214 
 185   0.0000       1.157137        31.4873 
 186   0.0000       1.164101        31.6768 
 187   0.0000       1.181069        32.1385 
 188   0.0000       1.191831        32.4314 
 189   0.0000       1.195630        32.5348 
 190   0.0000       1.214022        33.0352 
 191   0.0000       1.224486        33.3200 
 192   0.0000       1.228410        33.4267 
 193   0.0000       1.254853        34.1463 
 194   0.0000       1.271709        34.6050 
 195   0.0000       1.329270        36.1713 
 196   0.0000       1.339665        36.4541 
 197   0.0000       1.349194        36.7134 
 198   0.0000       1.349458        36.7206 
 199   0.0000       1.358251        36.9599 
 200   0.0000       1.394478        37.9457 
 201   0.0000       1.401885        38.1472 
 202   0.0000       1.409457        38.3533 
 203   0.0000       1.428576        38.8735 
 204   0.0000       1.432293        38.9747 
 205   0.0000       1.439789        39.1787 
 206   0.0000       1.442645        39.2564 
 207   0.0000       1.450798        39.4782 
 208   0.0000       1.453388        39.5487 
 209   0.0000       1.461370        39.7659 
 210   0.0000       1.462648        39.8007 
 211   0.0000       1.472207        40.0608 
 212   0.0000       1.482377        40.3375 
 213   0.0000       1.489391        40.5284 
 214   0.0000       1.494929        40.6791 
 215   0.0000       1.502466        40.8842 
 216   0.0000       1.506276        40.9878 
 217   0.0000       1.512445        41.1557 
 218   0.0000       1.518760        41.3276 
 219   0.0000       1.528893        41.6033 
 220   0.0000       1.533856        41.7383 
 221   0.0000       1.542460        41.9725 
 222   0.0000       1.553461        42.2718 
 223   0.0000       1.558647        42.4129 
 224   0.0000       1.569525        42.7089 
 225   0.0000       1.595671        43.4204 
 226   0.0000       1.601458        43.5779 
 227   0.0000       1.625389        44.2291 
 228   0.0000       1.636323        44.5266 
 229   0.0000       1.679952        45.7138 
 230   0.0000       1.722285        46.8658 
 231   0.0000       1.731902        47.1274 
 232   0.0000       1.743953        47.4554 
 233   0.0000       1.751242        47.6537 
 234   0.0000       1.759366        47.8748 
 235   0.0000       1.761573        47.9348 
 236   0.0000       1.768057        48.1113 
 237   0.0000       1.777432        48.3664 
 238   0.0000       1.782778        48.5119 
 239   0.0000       1.784883        48.5691 
 240   0.0000       1.794842        48.8401 
 241   0.0000       1.797773        48.9199 
 242   0.0000       1.808185        49.2032 
 243   0.0000       1.813006        49.3344 
 244   0.0000       1.820712        49.5441 
 245   0.0000       1.833768        49.8994 
 246   0.0000       1.844904        50.2024 
 247   0.0000       1.856892        50.5286 
 248   0.0000       1.863213        50.7006 
 249   0.0000       1.870642        50.9028 
 250   0.0000       1.872570        50.9552 
 251   0.0000       1.880901        51.1819 
 252   0.0000       1.886350        51.3302 
 253   0.0000       1.894545        51.5532 
 254   0.0000       1.900186        51.7067 
 255   0.0000       1.924168        52.3593 
 256   0.0000       1.939970        52.7893 
 257   0.0000       1.948071        53.0097 
 258   0.0000       1.953741        53.1640 
 259   0.0000       1.966285        53.5053 
 260   0.0000       1.974049        53.7166 
 261   0.0000       1.982408        53.9441 
 262   0.0000       1.986358        54.0515 
 263   0.0000       1.997237        54.3476 
 264   0.0000       2.002222        54.4832 
 265   0.0000       2.013219        54.7825 
 266   0.0000       2.024398        55.0867 
 267   0.0000       2.025171        55.1077 
 268   0.0000       2.032205        55.2991 
 269   0.0000       2.036114        55.4055 
 270   0.0000       2.060779        56.0766 
 271   0.0000       2.065448        56.2037 
 272   0.0000       2.091520        56.9131 
 273   0.0000       2.097393        57.0730 
 274   0.0000       2.101721        57.1907 
 275   0.0000       2.220437        60.4212 
 276   0.0000       2.228817        60.6492 
 277   0.0000       2.242549        61.0229 
 278   0.0000       2.255586        61.3776 
 279   0.0000       2.259633        61.4877 
 280   0.0000       2.265582        61.6496 
 281   0.0000       2.273140        61.8553 
 282   0.0000       2.278362        61.9974 
 283   0.0000       2.293196        62.4010 
 284   0.0000       2.296120        62.4806 
 285   0.0000       2.309802        62.8529 
 286   0.0000       2.325242        63.2730 
 287   0.0000       2.332722        63.4766 
 288   0.0000       2.354008        64.0558 
 289   0.0000       2.369982        64.4905 
 290   0.0000       2.418789        65.8186 
 291   0.0000       2.430476        66.1366 
 292   0.0000       2.451744        66.7153 
 293   0.0000       2.458346        66.8950 
 294   0.0000       2.507504        68.2326 
 295   0.0000       2.552582        69.4593 
 296   0.0000       2.562860        69.7390 
 297   0.0000       2.567704        69.8708 
 298   0.0000       2.580513        70.2193 
 299   0.0000       2.590928        70.5027 
 300   0.0000       2.593247        70.5658 
 301   0.0000       2.601833        70.7995 
 302   0.0000       2.603423        70.8427 
 303   0.0000       2.606068        70.9147 
 304   0.0000       2.621224        71.3271 
 305   0.0000       2.626534        71.4716 
 306   0.0000       2.635020        71.7025 
 307   0.0000       2.644274        71.9544 
 308   0.0000       2.647349        72.0380 
 309   0.0000       2.654406        72.2301 
 310   0.0000       2.664505        72.5049 
 311   0.0000       2.666598        72.5618 
 312   0.0000       2.671817        72.7038 
 313   0.0000       2.674992        72.7902 
 314   0.0000       2.689074        73.1734 
 315   0.0000       2.694444        73.3195 
 316   0.0000       2.701922        73.5230 
 317   0.0000       2.706454        73.6464 
 318   0.0000       2.721055        74.0437 
 319   0.0000       2.728921        74.2577 
 320   0.0000       2.747977        74.7763 
 321   0.0000       2.752329        74.8947 
 322   0.0000       2.762555        75.1730 
 323   0.0000       2.763016        75.1855 
 324   0.0000       2.768818        75.3434 
 325   0.0000       2.777064        75.5677 
 326   0.0000       2.787769        75.8591 
 327   0.0000       2.791830        75.9696 
 328   0.0000       2.806705        76.3743 
 329   0.0000       2.829704        77.0002 
 330   0.0000       2.831409        77.0466 
 331   0.0000       2.850788        77.5739 
 332   0.0000       2.860828        77.8471 
 333   0.0000       2.879839        78.3644 
 334   0.0000       2.889847        78.6367 
 335   0.0000       2.917366        79.3856 
 336   0.0000       2.918332        79.4118 
 337   0.0000       2.919886        79.4541 
 338   0.0000       2.923387        79.5494 
 339   0.0000       2.927587        79.6637 
 340   0.0000       2.929328        79.7111 
 341   0.0000       2.932336        79.7929 
 342   0.0000       2.938759        79.9677 
 343   0.0000       2.942098        80.0586 
 344   0.0000       2.947281        80.1996 
 345   0.0000       2.957878        80.4880 
 346   0.0000       2.958598        80.5075 
 347   0.0000       2.963659        80.6453 
 348   0.0000       2.969557        80.8058 
 349   0.0000       2.975050        80.9552 
 350   0.0000       2.990466        81.3747 
 351   0.0000       2.998598        81.5960 
 352   0.0000       3.012376        81.9709 
 353   0.0000       3.033670        82.5503 
 354   0.0000       3.034109        82.5623 
 355   0.0000       3.044997        82.8586 
 356   0.0000       3.051330        83.0309 
 357   0.0000       3.058475        83.2253 
 358   0.0000       3.071303        83.5744 
 359   0.0000       3.082270        83.8728 
 360   0.0000       3.091109        84.1134 
 361   0.0000       3.103289        84.4448 
 362   0.0000       3.107809        84.5678 
 363   0.0000       3.112247        84.6885 
 364   0.0000       3.119634        84.8896 
 365   0.0000       3.131174        85.2036 
 366   0.0000       3.134060        85.2821 
 367   0.0000       3.138157        85.3936 
 368   0.0000       3.148973        85.6879 
 369   0.0000       3.166798        86.1729 
 370   0.0000       3.210172        87.3532 
 371   0.0000       3.255463        88.5857 
 372   0.0000       3.262473        88.7764 
 373   0.0000       3.275407        89.1283 
 374   0.0000       3.279340        89.2354 
 375   0.0000       3.290308        89.5338 
 376   0.0000       3.292053        89.5813 
 377   0.0000       3.303200        89.8846 
 378   0.0000       3.310915        90.0946 
 379   0.0000       3.316478        90.2460 
 380   0.0000       3.322878        90.4201 
 381   0.0000       3.326807        90.5270 
 382   0.0000       3.333416        90.7069 
 383   0.0000       3.345448        91.0343 
 384   0.0000       3.351907        91.2100 
 385   0.0000       3.360174        91.4350 
 386   0.0000       3.364029        91.5399 
 387   0.0000       3.375509        91.8523 
 388   0.0000       3.389685        92.2380 
 389   0.0000       3.410045        92.7920 
 390   0.0000       3.419269        93.0430 
 391   0.0000       3.425563        93.2143 
 392   0.0000       3.441391        93.6450 
 393   0.0000       3.443060        93.6904 
 394   0.0000       3.462373        94.2160 
 395   0.0000       3.470801        94.4453 
 396   0.0000       3.474272        94.5397 
 397   0.0000       3.485927        94.8569 
 398   0.0000       3.496806        95.1529 
 399   0.0000       3.505112        95.3790 
 400   0.0000       3.512498        95.5799 
 401   0.0000       3.526745        95.9676 
 402   0.0000       3.536691        96.2383 
 403   0.0000       3.550481        96.6135 
 404   0.0000       3.568028        97.0910 
 405   0.0000       3.586846        97.6030 
 406   0.0000       3.598558        97.9217 
 407   0.0000       3.614586        98.3579 
 408   0.0000       3.637597        98.9840 
 409   0.0000       3.646367        99.2227 
 410   0.0000       3.649760        99.3150 
 411   0.0000       3.665706        99.7489 
 412   0.0000       3.669903        99.8631 
 413   0.0000       3.670661        99.8838 
 414   0.0000       3.673986        99.9742 
 415   0.0000       3.676730       100.0489 
 416   0.0000       3.681528       100.1795 
 417   0.0000       3.689754       100.4033 
 418   0.0000       3.695126       100.5495 
 419   0.0000       3.721603       101.2700 
 420   0.0000       3.792265       103.1928 
 421   0.0000       3.798102       103.3516 
 422   0.0000       3.805233       103.5457 
 423   0.0000       3.806897       103.5909 
 424   0.0000       3.812682       103.7484 
 425   0.0000       3.820039       103.9485 
 426   0.0000       3.827140       104.1418 
 427   0.0000       3.832586       104.2900 
 428   0.0000       3.846081       104.6572 
 429   0.0000       3.854091       104.8751 
 430   0.0000       3.934721       107.0692 
 431   0.0000       3.941831       107.2627 
 432   0.0000       3.944872       107.3454 
 433   0.0000       3.950399       107.4958 
 434   0.0000       3.960925       107.7822 
 435   0.0000       3.963122       107.8420 
 436   0.0000       3.965458       107.9056 
 437   0.0000       3.967983       107.9743 
 438   0.0000       3.973173       108.1155 
 439   0.0000       3.980079       108.3034 
 440   0.0000       3.987333       108.5009 
 441   0.0000       4.000527       108.8599 
 442   0.0000       4.008631       109.0804 
 443   0.0000       4.027764       109.6010 
 444   0.0000       4.069716       110.7426 
 445   0.0000       4.244315       115.4937 
 446   0.0000       4.250328       115.6573 
 447   0.0000       4.256431       115.8234 
 448   0.0000       4.260555       115.9356 
 449   0.0000       4.270332       116.2016 
 450   0.0000       4.279532       116.4520 
 451   0.0000       4.298701       116.9736 
 452   0.0000       4.301692       117.0550 
 453   0.0000       4.304579       117.1335 
 454   0.0000       4.313718       117.3822 
 455   0.0000       4.343545       118.1939 
 456   0.0000       4.345109       118.2364 
 457   0.0000       4.346377       118.2709 
 458   0.0000       4.347352       118.2975 
 459   0.0000       4.349050       118.3437 
 460   0.0000       4.350865       118.3931 
 461   0.0000       4.352470       118.4367 
 462   0.0000       4.358106       118.5901 
 463   0.0000       4.364258       118.7575 
 464   0.0000       4.372734       118.9881 
 465   0.0000       4.576265       124.5265 
 466   0.0000       4.579572       124.6165 
 467   0.0000       4.587093       124.8211 
 468   0.0000       4.594018       125.0096 
 469   0.0000       4.608468       125.4028 
 470   0.0000       4.742538       129.0510 
 471   0.0000       4.747704       129.1916 
 472   0.0000       4.754803       129.3848 
 473   0.0000       4.763768       129.6287 
 474   0.0000       4.768243       129.7505 
 475   0.0000       4.768778       129.7651 
 476   0.0000       4.779262       130.0503 
 477   0.0000       4.793675       130.4425 
 478   0.0000       4.814578       131.0113 
 479   0.0000       4.827701       131.3684 
 480   0.0000       4.868098       132.4677 
 481   0.0000       4.870526       132.5337 
 482   0.0000       4.883866       132.8968 
 483   0.0000       4.887532       132.9965 
 484   0.0000       4.921754       133.9277 
 485   0.0000       4.970544       135.2554 
 486   0.0000       4.977492       135.4444 
 487   0.0000       4.980850       135.5358 
 488   0.0000       4.987021       135.7037 
 489   0.0000       4.991797       135.8337 
 490   0.0000       4.995984       135.9476 
 491   0.0000       5.010038       136.3301 
 492   0.0000       5.012635       136.4007 
 493   0.0000       5.022500       136.6692 
 494   0.0000       5.025408       136.7483 
 495   0.0000       5.067431       137.8918 
 496   0.0000       5.074603       138.0870 
 497   0.0000       5.078289       138.1873 
 498   0.0000       5.081888       138.2852 
 499   0.0000       5.086271       138.4045 
 500   0.0000       5.096953       138.6951 
 501   0.0000       5.112803       139.1265 
 502   0.0000       5.125706       139.4775 
 503   0.0000       5.138069       139.8140 
 504   0.0000       5.158727       140.3761 
 505   0.0000       5.252113       142.9173 
 506   0.0000       5.258546       143.0923 
 507   0.0000       5.263657       143.2314 
 508   0.0000       5.280564       143.6914 
 509   0.0000       5.338131       145.2579 
 510   0.0000       5.563620       151.3938 
 511   0.0000       5.569896       151.5646 
 512   0.0000       5.574821       151.6986 
 513   0.0000       5.581365       151.8767 
 514   0.0000       5.588718       152.0768 
 515   0.0000       5.592181       152.1710 
 516   0.0000       5.604337       152.5018 
 517   0.0000       5.611580       152.6989 
 518   0.0000       5.626284       153.0990 
 519   0.0000       5.642223       153.5327 
 520   0.0000       6.027393       164.0137 
 521   0.0000       6.031632       164.1290 
 522   0.0000       6.040011       164.3570 
 523   0.0000       6.043811       164.4605 
 524   0.0000       6.060978       164.9276 
 525   0.0000       6.094620       165.8430 
 526   0.0000       6.101963       166.0429 
 527   0.0000       6.114524       166.3847 
 528   0.0000       6.121987       166.5877 
 529   0.0000       6.127806       166.7461 
 530   0.0000       6.148095       167.2982 
 531   0.0000       6.165323       167.7670 
 532   0.0000       6.171762       167.9422 
 533   0.0000       6.193488       168.5334 
 534   0.0000       6.217644       169.1907 
 535   0.0000       6.486463       176.5056 
 536   0.0000       6.491311       176.6376 
 537   0.0000       6.497996       176.8195 
 538   0.0000       6.513810       177.2498 
 539   0.0000       6.521156       177.4497 
 540   0.0000      23.493615       639.2938 
 541   0.0000      23.499278       639.4479 
 542   0.0000      23.504888       639.6005 
 543   0.0000      23.531931       640.3364 
 544   0.0000      23.597870       642.1307 
 545   0.0000      24.366013       663.0329 
 546   0.0000      24.388324       663.6400 
 547   0.0000      24.396061       663.8506 
 548   0.0000      24.416594       664.4093 
 549   0.0000      24.434156       664.8872 
 550   0.0000      33.475982       910.9278 
 551   0.0000      33.509769       911.8472 
 552   0.0000      33.566781       913.3985 
 553   0.0000      33.574193       913.6003 
 554   0.0000      33.636323       915.2909 

                    ********************************
                    * MULLIKEN POPULATION ANALYSIS *
                    ********************************

-----------------------
MULLIKEN ATOMIC CHARGES
-----------------------
   0 C :   -0.162235
   1 H :    0.152802
   2 H :    0.161798
   3 H :    0.182330
   4 C :   -0.045156
   5 N :   -0.289333
   6 C :   -0.189290
   7 H :    0.184660
   8 H :    0.172914
   9 H :    0.181685
  10 C :   -0.014511
  11 N :   -0.336377
  12 C :   -0.196908
  13 H :    0.179093
  14 H :    0.184356
  15 H :    0.159025
  16 C :   -0.032350
  17 N :   -0.290776
  18 C :   -0.171587
  19 H :    0.187123
  20 H :    0.148526
  21 H :    0.170914
  22 C :   -0.063786
  23 N :   -0.273356
  24 C :   -0.194671
  25 H :    0.177406
  26 H :    0.161670
  27 H :    0.155259
  28 C :   -0.068991
  29 N :   -0.230234
Sum of atomic charges:   -0.0000000

--------------------------------
MULLIKEN REDUCED ORBITAL CHARGES
--------------------------------
  0 C s       :     3.141880  s :     3.141880
      pz      :     0.782999  p :     2.955582
      px      :     1.071755
      py      :     1.100827
      dz2     :     0.015690  d :     0.061272
      dxz     :     0.013466
      dyz     :     0.009255
      dx2y2   :     0.013414
      dxy     :     0.009447
      f0      :     0.001285  f :     0.003500
      f+1     :     0.000176
      f-1     :     0.000587
      f+2     :     0.000210
      f-2     :     0.000128
      f+3     :     0.000571
      f-3     :     0.000544
  1 H s       :     0.824994  s :     0.824994
      pz      :     0.005820  p :     0.022204
      px      :     0.012467
      py      :     0.003917
  2 H s       :     0.815606  s :     0.815606
      pz      :     0.005723  p :     0.022596
      px      :     0.009752
      py      :     0.007121
  3 H s       :     0.794589  s :     0.794589
      pz      :     0.003373  p :     0.023082
      px      :     0.004604
      py      :     0.015105
  4 C s       :     3.266927  s :     3.266927
      pz      :     0.944987  p :     2.645829
      px      :     0.848012
      py      :     0.852831
      dz2     :     0.025674  d :     0.115149
      dxz     :     0.043872
      dyz     :     0.039893
      dx2y2   :     0.003596
      dxy     :     0.002113
      f0      :     0.004566  f :     0.017251
      f+1     :     0.005801
      f-1     :     0.005207
      f+2     :     0.000850
      f-2     :     0.000784
      f+3     :     0.000023
      f-3     :     0.000020
  5 N s       :     3.743125  s :     3.743125
      pz      :     1.260276  p :     3.490631
      px      :     1.109844
      py      :     1.120512
      dz2     :     0.011784  d :     0.052619
      dxz     :     0.019697
      dyz     :     0.018507
      dx2y2   :     0.001321
      dxy     :     0.001310
      f0      :     0.000745  f :     0.002958
      f+1     :     0.001024
      f-1     :     0.000910
      f+2     :     0.000134
      f-2     :     0.000139
      f+3     :     0.000004
      f-3     :     0.000003
  6 C s       :     3.150318  s :     3.150318
      pz      :     0.777166  p :     2.973829
      px      :     1.097643
      py      :     1.099020
      dz2     :     0.016252  d :     0.061663
      dxz     :     0.009041
      dyz     :     0.012275
      dx2y2   :     0.010942
      dxy     :     0.013153
      f0      :     0.001211  f :     0.003480
      f+1     :     0.000171
      f-1     :     0.000695
      f+2     :     0.000074
      f-2     :     0.000204
      f+3     :     0.000984
      f-3     :     0.000140
  7 H s       :     0.792658  s :     0.792658
      pz      :     0.004362  p :     0.022682
      px      :     0.014283
      py      :     0.004037
  8 H s       :     0.804319  s :     0.804319
      pz      :     0.006807  p :     0.022767
      px      :     0.005753
      py      :     0.010206
  9 H s       :     0.795503  s :     0.795503
      pz      :     0.003528  p :     0.022812
      px      :     0.008014
      py      :     0.011269
 10 C s       :     3.286392  s :     3.286392
      pz      :     0.935949  p :     2.594976
      px      :     0.827539
      py      :     0.831488
      dz2     :     0.028572  d :     0.115897
      dxz     :     0.042558
      dyz     :     0.037355
      dx2y2   :     0.003246
      dxy     :     0.004166
      f0      :     0.004878  f :     0.017245
      f+1     :     0.005502
      f-1     :     0.004709
      f+2     :     0.000965
      f-2     :     0.001117
      f+3     :     0.000045
      f-3     :     0.000029
 11 N s       :     3.766661  s :     3.766661
      pz      :     1.257437  p :     3.514544
      px      :     1.127655
      py      :     1.129452
      dz2     :     0.012656  d :     0.052221
      dxz     :     0.019571
      dyz     :     0.017291
      dx2y2   :     0.001363
      dxy     :     0.001340
      f0      :     0.000804  f :     0.002951
      f+1     :     0.000966
      f-1     :     0.000796
      f+2     :     0.000178
      f-2     :     0.000195
      f+3     :     0.000005
      f-3     :     0.000006
 12 C s       :     3.160065  s :     3.160065
      pz      :     0.786640  p :     2.971605
      px      :     1.100383
      py      :     1.084582
      dz2     :     0.016963  d :     0.061740
      dxz     :     0.010836
      dyz     :     0.011335
      dx2y2   :     0.013173
      dxy     :     0.009432
      f0      :     0.001149  f :     0.003498
      f+1     :     0.000248
      f-1     :     0.000720
      f+2     :     0.000082
      f-2     :     0.000167
      f+3     :     0.001017
      f-3     :     0.000114
 13 H s       :     0.798130  s :     0.798130
      pz      :     0.004240  p :     0.022777
      px      :     0.014892
      py      :     0.003644
 14 H s       :     0.792770  s :     0.792770
      pz      :     0.003440  p :     0.022874
      px      :     0.005254
      py      :     0.014180
 15 H s       :     0.818607  s :     0.818607
      pz      :     0.007368  p :     0.022367
      px      :     0.006835
      py      :     0.008165
 16 C s       :     3.268733  s :     3.268733
      pz      :     0.929255  p :     2.630476
      px      :     0.845285
      py      :     0.855936
      dz2     :     0.027202  d :     0.115886
      dxz     :     0.042309
      dyz     :     0.038971
      dx2y2   :     0.004478
      dxy     :     0.002926
      f0      :     0.004807  f :     0.017255
      f+1     :     0.005448
      f-1     :     0.004769
      f+2     :     0.001112
      f-2     :     0.001044
      f+3     :     0.000034
      f-3     :     0.000041
 17 N s       :     3.748462  s :     3.748462
      pz      :     1.258059  p :     3.486427
      px      :     1.107411
      py      :     1.120957
      dz2     :     0.012443  d :     0.052923
      dxz     :     0.019369
      dyz     :     0.017803
      dx2y2   :     0.001665
      dxy     :     0.001643
      f0      :     0.000791  f :     0.002964
      f+1     :     0.000965
      f-1     :     0.000822
      f+2     :     0.000182
      f-2     :     0.000191
      f+3     :     0.000006
      f-3     :     0.000006
 18 C s       :     3.143825  s :     3.143825
      pz      :     0.796732  p :     2.962562
      px      :     1.065556
      py      :     1.100275
      dz2     :     0.014899  d :     0.061712
      dxz     :     0.011300
      dyz     :     0.012277
      dx2y2   :     0.007897
      dxy     :     0.015339
      f0      :     0.001059  f :     0.003488
      f+1     :     0.000341
      f-1     :     0.000555
      f+2     :     0.000097
      f-2     :     0.000404
      f+3     :     0.000624
      f-3     :     0.000410
 19 H s       :     0.789835  s :     0.789835
      pz      :     0.006055  p :     0.023042
      px      :     0.005433
      py      :     0.011554
 20 H s       :     0.829407  s :     0.829407
      pz      :     0.005895  p :     0.022067
      px      :     0.011378
      py      :     0.004795
 21 H s       :     0.806325  s :     0.806325
      pz      :     0.003305  p :     0.022761
      px      :     0.009741
      py      :     0.009715
 22 C s       :     3.273226  s :     3.273226
      pz      :     0.955828  p :     2.658696
      px      :     0.857297
      py      :     0.845571
      dz2     :     0.029304  d :     0.114629
      dxz     :     0.038754
      dyz     :     0.035927
      dx2y2   :     0.004241
      dxy     :     0.006403
      f0      :     0.005115  f :     0.017235
      f+1     :     0.004708
      f-1     :     0.004307
      f+2     :     0.001451
      f-2     :     0.001496
      f+3     :     0.000085
      f-3     :     0.000073
 23 N s       :     3.747633  s :     3.747633
      pz      :     1.249208  p :     3.469660
      px      :     1.108656
      py      :     1.111795
      dz2     :     0.013657  d :     0.053124
      dxz     :     0.018224
      dyz     :     0.016769
      dx2y2   :     0.002363
      dxy     :     0.002110
      f0      :     0.000860  f :     0.002939
      f+1     :     0.000805
      f-1     :     0.000722
      f+2     :     0.000280
      f-2     :     0.000248
      f+3     :     0.000012
      f-3     :     0.000012
 24 C s       :     3.151637  s :     3.151637
      pz      :     0.921171  p :     2.975747
      px      :     1.100554
      py      :     0.954022
      dz2     :     0.007239  d :     0.063758
      dxz     :     0.020019
      dyz     :     0.015100
      dx2y2   :     0.016757
      dxy     :     0.004643
      f0      :     0.000196  f :     0.003529
      f+1     :     0.000071
      f-1     :     0.000636
      f+2     :     0.001933
      f-2     :     0.000253
      f+3     :     0.000154
      f-3     :     0.000286
 25 H s       :     0.799904  s :     0.799904
      pz      :     0.006912  p :     0.022691
      px      :     0.012333
      py      :     0.003446
 26 H s       :     0.816091  s :     0.816091
      pz      :     0.007738  p :     0.022238
      px      :     0.010504
      py      :     0.003997
 27 H s       :     0.822357  s :     0.822357
      pz      :     0.004938  p :     0.022384
      px      :     0.003871
      py      :     0.013575
 28 C s       :     3.247316  s :     3.247316
      pz      :     0.916308  p :     2.688861
      px      :     0.860305
      py      :     0.912248
      dz2     :     0.033364  d :     0.115520
      dxz     :     0.026530
      dyz     :     0.020156
      dx2y2   :     0.017527
      dxy     :     0.017943
      f0      :     0.003294  f :     0.017294
      f+1     :     0.001393
      f-1     :     0.003878
      f+2     :     0.002559
      f-2     :     0.004011
      f+3     :     0.001168
      f-3     :     0.000991
 29 N s       :     3.726529  s :     3.726529
      pz      :     1.192046  p :     3.446723
      px      :     1.083777
      py      :     1.170900
      dz2     :     0.017206  d :     0.054006
      dxz     :     0.011695
      dyz     :     0.008463
      dx2y2   :     0.007109
      dxy     :     0.009533
      f0      :     0.000613  f :     0.002976
      f+1     :     0.000220
      f-1     :     0.000632
      f+2     :     0.000417
      f-2     :     0.000720
      f+3     :     0.000213
      f-3     :     0.000161


                     *******************************
                     * LOEWDIN POPULATION ANALYSIS *
                     *******************************

----------------------
LOEWDIN ATOMIC CHARGES
----------------------
   0 C :   -0.244017
   1 H :    0.138638
   2 H :    0.145030
   3 H :    0.149137
   4 C :   -0.173098
   5 N :   -0.019498
   6 C :   -0.245740
   7 H :    0.142721
   8 H :    0.147163
   9 H :    0.148315
  10 C :   -0.167393
  11 N :   -0.024903
  12 C :   -0.243313
  13 H :    0.145757
  14 H :    0.146648
  15 H :    0.141415
  16 C :   -0.172298
  17 N :   -0.009763
  18 C :   -0.250041
  19 H :    0.149942
  20 H :    0.135970
  21 H :    0.146774
  22 C :   -0.184120
  23 N :   -0.009576
  24 C :   -0.245668
  25 H :    0.145439
  26 H :    0.140001
  27 H :    0.142651
  28 C :   -0.181567
  29 N :    0.005396

-------------------------------
LOEWDIN REDUCED ORBITAL CHARGES
-------------------------------
  0 C s       :     2.817171  s :     2.817171
      pz      :     1.013988  p :     3.150135
      px      :     1.062517
      py      :     1.073630
      dz2     :     0.074038  d :     0.252379
      dxz     :     0.066862
      dyz     :     0.048215
      dx2y2   :     0.038340
      dxy     :     0.024924
      f0      :     0.006874  f :     0.024332
      f+1     :     0.003413
      f-1     :     0.005743
      f+2     :     0.002091
      f-2     :     0.002865
      f+3     :     0.001724
      f-3     :     0.001623
  1 H s       :     0.800710  s :     0.800710
      pz      :     0.014685  p :     0.060652
      px      :     0.032780
      py      :     0.013187
  2 H s       :     0.793249  s :     0.793249
      pz      :     0.014608  p :     0.061721
      px      :     0.025981
      py      :     0.021131
  3 H s       :     0.787452  s :     0.787452
      pz      :     0.010041  p :     0.063411
      px      :     0.014161
      py      :     0.039209
  4 C s       :     2.845519  s :     2.845519
      pz      :     1.174716  p :     2.812850
      px      :     0.810303
      py      :     0.827832
      dz2     :     0.153735  d :     0.454881
      dxz     :     0.142146
      dyz     :     0.141653
      dx2y2   :     0.010233
      dxy     :     0.007113
      f0      :     0.021324  f :     0.059848
      f+1     :     0.016414
      f-1     :     0.017451
      f+2     :     0.002391
      f-2     :     0.002156
      f+3     :     0.000061
      f-3     :     0.000052
  5 N s       :     3.301305  s :     3.301305
      pz      :     1.476285  p :     3.596497
      px      :     1.048834
      py      :     1.071377
      dz2     :     0.043223  d :     0.107381
      dxz     :     0.029347
      dyz     :     0.031365
      dx2y2   :     0.001731
      dxy     :     0.001715
      f0      :     0.005686  f :     0.014315
      f+1     :     0.003506
      f-1     :     0.004143
      f+2     :     0.000482
      f-2     :     0.000477
      f+3     :     0.000011
      f-3     :     0.000009
  6 C s       :     2.816459  s :     2.816459
      pz      :     1.013389  p :     3.154446
      px      :     1.071153
      py      :     1.069904
      dz2     :     0.075798  d :     0.250548
      dxz     :     0.048686
      dyz     :     0.060772
      dx2y2   :     0.028477
      dxy     :     0.036814
      f0      :     0.006489  f :     0.024287
      f+1     :     0.004435
      f-1     :     0.005042
      f+2     :     0.002647
      f-2     :     0.002267
      f+3     :     0.002831
      f-3     :     0.000577
  7 H s       :     0.794464  s :     0.794464
      pz      :     0.012034  p :     0.062816
      px      :     0.037588
      py      :     0.013193
  8 H s       :     0.790457  s :     0.790457
      pz      :     0.017112  p :     0.062380
      px      :     0.017031
      py      :     0.028237
  9 H s       :     0.789600  s :     0.789600
      pz      :     0.010349  p :     0.062084
      px      :     0.021966
      py      :     0.029769
 10 C s       :     2.846344  s :     2.846344
      pz      :     1.172046  p :     2.799355
      px      :     0.798323
      py      :     0.828986
      dz2     :     0.153806  d :     0.461455
      dxz     :     0.140789
      dyz     :     0.144153
      dx2y2   :     0.010727
      dxy     :     0.011981
      f0      :     0.020870  f :     0.060238
      f+1     :     0.015656
      f-1     :     0.017365
      f+2     :     0.002960
      f-2     :     0.003174
      f+3     :     0.000126
      f-3     :     0.000087
 11 N s       :     3.296929  s :     3.296929
      pz      :     1.466835  p :     3.608159
      px      :     1.054089
      py      :     1.087236
      dz2     :     0.042467  d :     0.105679
      dxz     :     0.027839
      dyz     :     0.031007
      dx2y2   :     0.002300
      dxy     :     0.002066
      f0      :     0.005407  f :     0.014135
      f+1     :     0.003210
      f-1     :     0.004192
      f+2     :     0.000659
      f-2     :     0.000628
      f+3     :     0.000020
      f-3     :     0.000020
 12 C s       :     2.815908  s :     2.815908
      pz      :     1.015043  p :     3.151629
      px      :     1.069354
      py      :     1.067232
      dz2     :     0.075186  d :     0.251424
      dxz     :     0.054909
      dyz     :     0.057976
      dx2y2   :     0.039028
      dxy     :     0.024326
      f0      :     0.006352  f :     0.024351
      f+1     :     0.004310
      f-1     :     0.005306
      f+2     :     0.001756
      f-2     :     0.003309
      f+3     :     0.002843
      f-3     :     0.000475
 13 H s       :     0.791428  s :     0.791428
      pz      :     0.011701  p :     0.062816
      px      :     0.038898
      py      :     0.012217
 14 H s       :     0.790099  s :     0.790099
      pz      :     0.010204  p :     0.063253
      px      :     0.016212
      py      :     0.036838
 15 H s       :     0.797779  s :     0.797779
      pz      :     0.017928  p :     0.060806
      px      :     0.019751
      py      :     0.023127
 16 C s       :     2.844235  s :     2.844235
      pz      :     1.166290  p :     2.813011
      px      :     0.810871
      py      :     0.835850
      dz2     :     0.153289  d :     0.455187
      dxz     :     0.138942
      dyz     :     0.139876
      dx2y2   :     0.013373
      dxy     :     0.009707
      f0      :     0.020819  f :     0.059865
      f+1     :     0.015514
      f-1     :     0.017196
      f+2     :     0.003213
      f-2     :     0.002922
      f+3     :     0.000094
      f-3     :     0.000108
 17 N s       :     3.299042  s :     3.299042
      pz      :     1.466233  p :     3.588623
      px      :     1.045691
      py      :     1.076700
      dz2     :     0.042316  d :     0.107745
      dxz     :     0.029003
      dyz     :     0.031864
      dx2y2   :     0.002182
      dxy     :     0.002380
      f0      :     0.005428  f :     0.014353
      f+1     :     0.003353
      f-1     :     0.004197
      f+2     :     0.000673
      f-2     :     0.000663
      f+3     :     0.000021
      f-3     :     0.000019
 18 C s       :     2.817592  s :     2.817592
      pz      :     1.017861  p :     3.154148
      px      :     1.062054
      py      :     1.074233
      dz2     :     0.070651  d :     0.253928
      dxz     :     0.057925
      dyz     :     0.058640
      dx2y2   :     0.018896
      dxy     :     0.047817
      f0      :     0.006418  f :     0.024374
      f+1     :     0.004255
      f-1     :     0.004748
      f+2     :     0.003515
      f-2     :     0.001947
      f+3     :     0.001978
      f-3     :     0.001512
 19 H s       :     0.786618  s :     0.786618
      pz      :     0.015743  p :     0.063440
      px      :     0.015949
      py      :     0.031748
 20 H s       :     0.803745  s :     0.803745
      pz      :     0.014852  p :     0.060285
      px      :     0.030525
      py      :     0.014908
 21 H s       :     0.791349  s :     0.791349
      pz      :     0.010105  p :     0.061878
      px      :     0.025509
      py      :     0.026263
 22 C s       :     2.846209  s :     2.846209
      pz      :     1.158294  p :     2.822863
      px      :     0.826260
      py      :     0.838309
      dz2     :     0.151446  d :     0.455356
      dxz     :     0.133441
      dyz     :     0.138020
      dx2y2   :     0.014041
      dxy     :     0.018408
      f0      :     0.019692  f :     0.059692
      f+1     :     0.014889
      f-1     :     0.015986
      f+2     :     0.004157
      f-2     :     0.004539
      f+3     :     0.000234
      f-3     :     0.000195
 23 N s       :     3.300831  s :     3.300831
      pz      :     1.449322  p :     3.585918
      px      :     1.058062
      py      :     1.078534
      dz2     :     0.041206  d :     0.108486
      dxz     :     0.029492
      dyz     :     0.030839
      dx2y2   :     0.003487
      dxy     :     0.003462
      f0      :     0.004958  f :     0.014342
      f+1     :     0.003413
      f-1     :     0.003908
      f+2     :     0.000972
      f-2     :     0.001003
      f+3     :     0.000045
      f-3     :     0.000044
 24 C s       :     2.816378  s :     2.816378
      pz      :     1.039547  p :     3.148492
      px      :     1.066614
      py      :     1.042331
      dz2     :     0.037696  d :     0.256300
      dxz     :     0.074328
      dyz     :     0.062888
      dx2y2   :     0.063172
      dxy     :     0.018216
      f0      :     0.005043  f :     0.024498
      f+1     :     0.001282
      f-1     :     0.004941
      f+2     :     0.004877
      f-2     :     0.003364
      f+3     :     0.002543
      f-3     :     0.002448
 25 H s       :     0.792081  s :     0.792081
      pz      :     0.018266  p :     0.062480
      px      :     0.033004
      py      :     0.011210
 26 H s       :     0.799263  s :     0.799263
      pz      :     0.019759  p :     0.060736
      px      :     0.028084
      py      :     0.012893
 27 H s       :     0.796165  s :     0.796165
      pz      :     0.015354  p :     0.061184
      px      :     0.012751
      py      :     0.033078
 28 C s       :     2.841968  s :     2.841968
      pz      :     1.026111  p :     2.833831
      px      :     0.820410
      py      :     0.987311
      dz2     :     0.120623  d :     0.446440
      dxz     :     0.085830
      dyz     :     0.115471
      dx2y2   :     0.063213
      dxy     :     0.061304
      f0      :     0.009196  f :     0.059327
      f+1     :     0.003908
      f-1     :     0.016550
      f+2     :     0.011792
      f-2     :     0.011218
      f+3     :     0.003327
      f-3     :     0.003336
 29 N s       :     3.305244  s :     3.305244
      pz      :     1.288854  p :     3.564367
      px      :     1.033640
      py      :     1.241874
      dz2     :     0.028682  d :     0.110384
      dxz     :     0.017879
      dyz     :     0.034293
      dx2y2   :     0.014963
      dxy     :     0.014567
      f0      :     0.002164  f :     0.014609
      f+1     :     0.000807
      f-1     :     0.004333
      f+2     :     0.003158
      f-2     :     0.002560
      f+3     :     0.000792
      f-3     :     0.000795


                      *****************************
                      * MAYER POPULATION ANALYSIS *
                      *****************************

  NA   - Mulliken gross atomic population
  ZA   - Total nuclear charge
  QA   - Mulliken gross atomic charge
  VA   - Mayer's total valence
  BVA  - Mayer's bonded valence
  FA   - Mayer's free valence

  ATOM       NA         ZA         QA         VA         BVA        FA
  0 C      6.1622     6.0000    -0.1622     3.7773     3.7773     0.0000
  1 H      0.8472     1.0000     0.1528     0.9582     0.9582     0.0000
  2 H      0.8382     1.0000     0.1618     0.9673     0.9673     0.0000
  3 H      0.8177     1.0000     0.1823     0.9683     0.9683    -0.0000
  4 C      6.0452     6.0000    -0.0452     3.8716     3.8716    -0.0000
  5 N      7.2893     7.0000    -0.2893     2.9616     2.9616    -0.0000
  6 C      6.1893     6.0000    -0.1893     3.7671     3.7671    -0.0000
  7 H      0.8153     1.0000     0.1847     0.9531     0.9531    -0.0000
  8 H      0.8271     1.0000     0.1729     0.9693     0.9693    -0.0000
  9 H      0.8183     1.0000     0.1817     0.9617     0.9617     0.0000
 10 C      6.0145     6.0000    -0.0145     3.7976     3.7976    -0.0000
 11 N      7.3364     7.0000    -0.3364     2.9055     2.9055     0.0000
 12 C      6.1969     6.0000    -0.1969     3.7808     3.7808    -0.0000
 13 H      0.8209     1.0000     0.1791     0.9625     0.9625     0.0000
 14 H      0.8156     1.0000     0.1844     0.9625     0.9625    -0.0000
 15 H      0.8410     1.0000     0.1590     0.9598     0.9598     0.0000
 16 C      6.0324     6.0000    -0.0324     3.8243     3.8243    -0.0000
 17 N      7.2908     7.0000    -0.2908     2.9545     2.9545    -0.0000
 18 C      6.1716     6.0000    -0.1716     3.7726     3.7726    -0.0000
 19 H      0.8129     1.0000     0.1871     0.9683     0.9683    -0.0000
 20 H      0.8515     1.0000     0.1485     0.9556     0.9556    -0.0000
 21 H      0.8291     1.0000     0.1709     0.9686     0.9686    -0.0000
 22 C      6.0638     6.0000    -0.0638     3.8571     3.8571    -0.0000
 23 N      7.2734     7.0000    -0.2734     2.9571     2.9571    -0.0000
 24 C      6.1947     6.0000    -0.1947     3.8126     3.8126    -0.0000
 25 H      0.8226     1.0000     0.1774     0.9603     0.9603    -0.0000
 26 H      0.8383     1.0000     0.1617     0.9580     0.9580    -0.0000
 27 H      0.8447     1.0000     0.1553     0.9627     0.9627    -0.0000
 28 C      6.0690     6.0000    -0.0690     3.8881     3.8881    -0.0000
 29 N      7.2302     7.0000    -0.2302     3.0075     3.0075    -0.0000

  Mayer bond orders larger than 0.100000
B(  0-C ,  1-H ) :   0.9582 B(  0-C ,  2-H ) :   0.9599 B(  0-C ,  3-H ) :   0.9552 
B(  0-C ,  4-C ) :   0.9305 B(  4-C ,  5-N ) :   2.9257 B(  6-C ,  7-H ) :   0.9506 
B(  6-C ,  8-H ) :   0.9648 B(  6-C ,  9-H ) :   0.9449 B(  6-C , 10-C ) :   0.9213 
B( 10-C , 11-N ) :   2.8672 B( 12-C , 13-H ) :   0.9597 B( 12-C , 14-H ) :   0.9589 
B( 12-C , 15-H ) :   0.9537 B( 12-C , 16-C ) :   0.9168 B( 16-C , 17-N ) :   2.9186 
B( 18-C , 19-H ) :   0.9588 B( 18-C , 20-H ) :   0.9601 B( 18-C , 21-H ) :   0.9550 
B( 18-C , 22-C ) :   0.9222 B( 22-C , 23-N ) :   2.9211 B( 24-C , 25-H ) :   0.9588 
B( 24-C , 26-H ) :   0.9562 B( 24-C , 27-H ) :   0.9639 B( 24-C , 28-C ) :   0.9316 
B( 28-C , 29-N ) :   2.9765 

-------
TIMINGS
-------

Total SCF time: 0 days 0 hours 3 min 50 sec 

Total time                  ....     230.027 sec
Sum of individual times     ....     228.553 sec  ( 99.4%)

Fock matrix formation       ....     220.241 sec  ( 95.7%)
Diagonalization             ....       2.171 sec  (  0.9%)
Density matrix formation    ....       0.395 sec  (  0.2%)
Population analysis         ....       0.413 sec  (  0.2%)
Initial guess               ....       0.785 sec  (  0.3%)
Orbital Transformation      ....       0.000 sec  (  0.0%)
Orbital Orthonormalization  ....       0.000 sec  (  0.0%)
DIIS solution               ....       1.048 sec  (  0.5%)
SOSCF solution              ....       3.282 sec  (  1.4%)


           ************************************************************
           *        Program running with 12 parallel MPI-processes    *
[...]
      px      :     1.070469
      py      :     1.069919
      dz2     :     0.074675  d :     0.268928
      dxz     :     0.056861
      dyz     :     0.065986
      dx2y2   :     0.031677
      dxy     :     0.039729
      f0      :     0.007304  f :     0.030410
      f+1     :     0.005819
      f-1     :     0.006042
      f+2     :     0.003408
      f-2     :     0.003066
      f+3     :     0.003534
      f-3     :     0.001236
  7 H s       :     0.782163  s :     0.782163
      pz      :     0.014014  p :     0.067871
      px      :     0.038957
      py      :     0.014900
  8 H s       :     0.778044  s :     0.778044
      pz      :     0.018952  p :     0.067416
      px      :     0.018618
      py      :     0.029846
  9 H s       :     0.776695  s :     0.776695
      pz      :     0.012338  p :     0.067093
      px      :     0.023479
      py      :     0.031276
 10 C s       :     2.845847  s :     2.845847
      pz      :     1.148761  p :     2.823679
      px      :     0.825756
      py      :     0.849162
      dz2     :     0.160059  d :     0.461566
      dxz     :     0.132178
      dyz     :     0.139257
      dx2y2   :     0.014626
      dxy     :     0.015446
      f0      :     0.023051  f :     0.067011
      f+1     :     0.016605
      f-1     :     0.019003
      f+2     :     0.003705
      f-2     :     0.003832
      f+3     :     0.000424
      f-3     :     0.000390
 11 N s       :     3.290681  s :     3.290681
      pz      :     1.439653  p :     3.533571
      px      :     1.029182
      py      :     1.064737
      dz2     :     0.049675  d :     0.134995
      dxz     :     0.033509
      dyz     :     0.036884
      dx2y2   :     0.007582
      dxy     :     0.007345
      f0      :     0.006558  f :     0.019178
      f+1     :     0.004308
      f-1     :     0.005260
      f+2     :     0.001206
      f-2     :     0.001184
      f+3     :     0.000331
      f-3     :     0.000331
 12 C s       :     2.819538  s :     2.819538
      pz      :     1.025334  p :     3.161928
      px      :     1.068905
      py      :     1.067689
      dz2     :     0.074202  d :     0.269540
      dxz     :     0.062193
      dyz     :     0.063498
      dx2y2   :     0.041771
      dxy     :     0.027876
      f0      :     0.007186  f :     0.030470
      f+1     :     0.005640
      f-1     :     0.006362
      f+2     :     0.002512
      f-2     :     0.004086
      f+3     :     0.003566
      f-3     :     0.001118
 13 H s       :     0.779414  s :     0.779414
      pz      :     0.013674  p :     0.067732
      px      :     0.040101
      py      :     0.013957
 14 H s       :     0.778339  s :     0.778339
      pz      :     0.012236  p :     0.068139
      px      :     0.017847
      py      :     0.038056
 15 H s       :     0.783528  s :     0.783528
      pz      :     0.019760  p :     0.066068
      px      :     0.021431
      py      :     0.024877
 16 C s       :     2.844469  s :     2.844469
      pz      :     1.144377  p :     2.831783
      px      :     0.832932
      py      :     0.854475
      dz2     :     0.159019  d :     0.456486
      dxz     :     0.131526
      dyz     :     0.135951
      dx2y2   :     0.016603
      dxy     :     0.013388
      f0      :     0.022998  f :     0.066904
      f+1     :     0.016667
      f-1     :     0.018838
      f+2     :     0.003913
      f-2     :     0.003687
      f+3     :     0.000397
      f-3     :     0.000403
 17 N s       :     3.292319  s :     3.292319
      pz      :     1.437577  p :     3.519411
      px      :     1.025492
      py      :     1.056342
      dz2     :     0.049502  d :     0.135936
      dxz     :     0.034186
      dyz     :     0.037447
      dx2y2   :     0.007343
      dxy     :     0.007459
      f0      :     0.006576  f :     0.019334
      f+1     :     0.004412
      f-1     :     0.005260
      f+2     :     0.001222
      f-2     :     0.001209
      f+3     :     0.000329
      f-3     :     0.000326
 18 C s       :     2.821462  s :     2.821462
      pz      :     1.027590  p :     3.165493
      px      :     1.063872
      py      :     1.074032
      dz2     :     0.070679  d :     0.271902
      dxz     :     0.064066
      dyz     :     0.064137
      dx2y2   :     0.022968
      dxy     :     0.050052
      f0      :     0.007362  f :     0.030470
      f+1     :     0.005396
      f-1     :     0.005758
      f+2     :     0.004362
      f-2     :     0.002753
      f+3     :     0.002653
      f-3     :     0.002185
 19 H s       :     0.775485  s :     0.775485
      pz      :     0.017608  p :     0.068239
      px      :     0.017516
      py      :     0.033115
 20 H s       :     0.788995  s :     0.788995
      pz      :     0.016754  p :     0.065756
      px      :     0.032391
      py      :     0.016611
 21 H s       :     0.778545  s :     0.778545
      pz      :     0.012108  p :     0.066832
      px      :     0.026865
      py      :     0.027859
 22 C s       :     2.846556  s :     2.846556
      pz      :     1.137619  p :     2.841401
      px      :     0.846338
      py      :     0.857444
      dz2     :     0.156128  d :     0.456947
      dxz     :     0.128177
      dyz     :     0.133663
      dx2y2   :     0.017467
      dxy     :     0.021513
      f0      :     0.021704  f :     0.066788
      f+1     :     0.016223
      f-1     :     0.017533
      f+2     :     0.004947
      f-2     :     0.005299
      f+3     :     0.000556
      f-3     :     0.000526
 23 N s       :     3.294225  s :     3.294225
      pz      :     1.422227  p :     3.517456
      px      :     1.038238
      py      :     1.056991
      dz2     :     0.048042  d :     0.136451
      dxz     :     0.034777
      dyz     :     0.036466
      dx2y2   :     0.008611
      dxy     :     0.008555
      f0      :     0.006091  f :     0.019316
      f+1     :     0.004414
      f-1     :     0.004921
      f+2     :     0.001576
      f-2     :     0.001588
      f+3     :     0.000364
      f-3     :     0.000363
 24 C s       :     2.819888  s :     2.819888
      pz      :     1.045640  p :     3.159318
      px      :     1.066572
      py      :     1.047106
      dz2     :     0.044434  d :     0.273679
      dxz     :     0.077771
      dyz     :     0.061849
      dx2y2   :     0.065081
      dxy     :     0.024545
      f0      :     0.006135  f :     0.030591
      f+1     :     0.002068
      f-1     :     0.005653
      f+2     :     0.005744
      f-2     :     0.004498
      f+3     :     0.003345
      f-3     :     0.003147
 25 H s       :     0.779918  s :     0.779918
      pz      :     0.020017  p :     0.067375
      px      :     0.034273
      py      :     0.013085
 26 H s       :     0.785156  s :     0.785156
      pz      :     0.021485  p :     0.065975
      px      :     0.029729
      py      :     0.014760
 27 H s       :     0.782464  s :     0.782464
      pz      :     0.017228  p :     0.066314
      px      :     0.014485
      py      :     0.034601
 28 C s       :     2.843233  s :     2.843233
      pz      :     1.020481  p :     2.846264
      px      :     0.839628
      py      :     0.986156
      dz2     :     0.117088  d :     0.449339
      dxz     :     0.082965
      dyz     :     0.123514
      dx2y2   :     0.065129
      dxy     :     0.060644
      f0      :     0.010355  f :     0.066706
      f+1     :     0.004591
      f-1     :     0.018370
      f+2     :     0.013196
      f-2     :     0.012218
      f+3     :     0.003982
      f-3     :     0.003995
 29 N s       :     3.297993  s :     3.297993
      pz      :     1.265658  p :     3.501960
      px      :     1.015739
      py      :     1.220563
      dz2     :     0.033592  d :     0.137090
      dxz     :     0.022721
      dyz     :     0.041124
      dx2y2   :     0.020227
      dxy     :     0.019426
      f0      :     0.002953  f :     0.019505
      f+1     :     0.001356
      f-1     :     0.005307
      f+2     :     0.003921
      f-2     :     0.003384
      f+3     :     0.001299
      f-3     :     0.001284


                      *****************************
                      * MAYER POPULATION ANALYSIS *
                      *****************************

  NA   - Mulliken gross atomic population
  ZA   - Total nuclear charge
  QA   - Mulliken gross atomic charge
  VA   - Mayer's total valence
  BVA  - Mayer's bonded valence
  FA   - Mayer's free valence

  ATOM       NA         ZA         QA         VA         BVA        FA
  0 C      6.2744     6.0000    -0.2744     3.9105     3.6253     0.2852
  1 H      0.8308     1.0000     0.1692     0.9606     0.9134     0.0472
  2 H      0.8226     1.0000     0.1774     0.9695     0.9224     0.0471
  3 H      0.8066     1.0000     0.1934     0.9757     0.9287     0.0470
  4 C      6.0951     6.0000    -0.0951     4.0754     3.6521     0.4232
  5 N      7.1702     7.0000    -0.1702     3.2794     2.7995     0.4799
  6 C      6.2921     6.0000    -0.2921     3.8964     3.6064     0.2899
  7 H      0.8068     1.0000     0.1932     0.9631     0.9158     0.0473
  8 H      0.8131     1.0000     0.1869     0.9729     0.9258     0.0472
  9 H      0.8051     1.0000     0.1949     0.9659     0.9200     0.0460
 10 C      6.0714     6.0000    -0.0714     4.0023     3.5763     0.4260
 11 N      7.2125     7.0000    -0.2125     3.2252     2.7398     0.4854
 12 C      6.2973     6.0000    -0.2973     3.9050     3.6181     0.2870
 13 H      0.8105     1.0000     0.1895     0.9700     0.9224     0.0476
 14 H      0.8051     1.0000     0.1949     0.9697     0.9227     0.0469
 15 H      0.8252     1.0000     0.1748     0.9613     0.9146     0.0468
 16 C      6.0856     6.0000    -0.0856     4.0373     3.6116     0.4257
 17 N      7.1730     7.0000    -0.1730     3.2706     2.7893     0.4813
 18 C      6.2832     6.0000    -0.2832     3.9065     3.6183     0.2882
 19 H      0.8015     1.0000     0.1985     0.9751     0.9284     0.0467
 20 H      0.8341     1.0000     0.1659     0.9580     0.9103     0.0477
 21 H      0.8140     1.0000     0.1860     0.9699     0.9236     0.0464
 22 C      6.1171     6.0000    -0.1171     4.0680     3.6392     0.4289
 23 N      7.1543     7.0000    -0.1543     3.2721     2.7921     0.4800
 24 C      6.3038     6.0000    -0.3038     3.9368     3.6472     0.2896
 25 H      0.8114     1.0000     0.1886     0.9670     0.9196     0.0473
 26 H      0.8231     1.0000     0.1769     0.9594     0.9129     0.0465
 27 H      0.8280     1.0000     0.1720     0.9642     0.9168     0.0474
 28 C      6.1136     6.0000    -0.1136     4.1109     3.6866     0.4243
 29 N      7.1185     7.0000    -0.1185     3.3185     2.8434     0.4751

  Mayer bond orders larger than 0.100000
B(  0-C ,  1-H ) :   0.9110 B(  0-C ,  2-H ) :   0.9126 B(  0-C ,  3-H ) :   0.9057 
B(  0-C ,  4-C ) :   0.9064 B(  4-C ,  5-N ) :   2.7409 B(  6-C ,  7-H ) :   0.9010 
B(  6-C ,  8-H ) :   0.9139 B(  6-C ,  9-H ) :   0.8990 B(  6-C , 10-C ) :   0.8988 
B( 10-C , 11-N ) :   2.6741 B( 12-C , 13-H ) :   0.9099 B( 12-C , 14-H ) :   0.9089 
B( 12-C , 15-H ) :   0.9075 B( 12-C , 16-C ) :   0.8945 B( 16-C , 17-N ) :   2.7299 
B( 18-C , 19-H ) :   0.9083 B( 18-C , 20-H ) :   0.9115 B( 18-C , 21-H ) :   0.9084 
B( 18-C , 22-C ) :   0.8972 B( 22-C , 23-N ) :   2.7360 B( 24-C , 25-H ) :   0.9092 
B( 24-C , 26-H ) :   0.9095 B( 24-C , 27-H ) :   0.9157 B( 24-C , 28-C ) :   0.9063 
B( 28-C , 29-N ) :   2.7973 


----------------------------------
MP2 DERIVATIVE INTEGRAL GENERATION
----------------------------------


Input Wavefunction Amplitudes       ... 5mecn.malloum.etal.8-orca.engrad-mp2.def2tzvp.mp2tsaa.tmp
Input Correlated Electron Density   ... 5mecn.malloum.etal.8-orca.engrad-mp2.def2tzvp.pmp2re
Input Energy Weighted Density       ... 5mecn.malloum.etal.8-orca.engrad-mp2.def2tzvp.wmp2.tmp
Input SCF Electron Density          ... 5mecn.malloum.etal.8-orca.engrad-mp2.def2tzvp.scfp

One-Electron Terms    ...
                        ... One-Electron Terms done
Prescreening matrices              ... done

Batch handling in the gradient evaluation:
Memory available                      ... 8000.0 MB
Memory per occupied orbital in Q2     ...   94.0 MB
Memory per occupied orbital in Q3     ...    0.2 MB
Total memory requirement per |i>      ...   94.2 MB
Max. Number of orbitals possible      ...     84
Number of orbitals treated per batch  ...     40
Number of batches to be done          ...      1
Batch   0: i=   15 ...    54

---------------------------------------
MP2 TOTAL ENERGY:     -662.459367925 Eh
---------------------------------------

The final MP2 gradient
  0:  -0.00082661  -0.00054040  -0.00085548
  1:  -0.00207874  -0.00021894  -0.00123564
  2:   0.00187336  -0.00122567  -0.00125416
  3:   0.00107796   0.00240826  -0.00040294
  4:  -0.00099050  -0.00402230   0.01795786
  5:   0.00023214   0.00293877  -0.01468581
  6:  -0.00049238  -0.00079171   0.00073101
  7:  -0.00243111  -0.00046311   0.00106008
  8:   0.00134016   0.00211123   0.00161862
  9:   0.00137192  -0.00188418   0.00059695
 10:  -0.00029056   0.00516772  -0.01809234
 11:  -0.00016907  -0.00429295   0.01436688
 12:  -0.00032326   0.00028024   0.00073722
 13:   0.00262326  -0.00009282   0.00095288
 14:  -0.00078948  -0.00251917   0.00053550
 15:  -0.00113944   0.00133869   0.00156582
 16:  -0.00120219   0.00473368  -0.01852833
 17:   0.00093443  -0.00383916   0.01501481
 18:   0.00071390   0.00095519  -0.00062210
 19:  -0.00132899  -0.00212068  -0.00134947
 20:   0.00227752   0.00072169  -0.00134193
 21:  -0.00183113   0.00168100  -0.00038591
 22:   0.00325578  -0.00510768   0.01852865
 23:  -0.00222696   0.00430938  -0.01482057
 24:   0.00108282   0.00014815  -0.00052695
 25:  -0.00248898   0.00020817  -0.00164982
 26:   0.00175917  -0.00037492  -0.00157294
 27:   0.00031210   0.00269942   0.00081873
 28:  -0.00161748  -0.01285276   0.01450333
 29:   0.00137237   0.01064486  -0.01166393

-----------------------------------
NORM OF THE MP2 GRADIENT:  0.055836
-----------------------------------

-------------------------   --------------------
FINAL SINGLE POINT ENERGY      -662.459367925339
-------------------------   --------------------


                            ***************************************
                            *     ORCA property calculations      *
                            ***************************************

                                    ---------------------
                                    Active property flags
                                    ---------------------
   (+) Dipole Moment


------------------------------------------------------------------------------
                       ORCA ELECTRIC PROPERTIES CALCULATION
------------------------------------------------------------------------------

Dipole Moment Calculation                       ... on
Quadrupole Moment Calculation                   ... off
Polarizability Calculation                      ... off
GBWName                                         ... 5mecn.malloum.etal.8-orca.engrad-mp2.def2tzvp.gbw
Electron density file                           ... 5mecn.malloum.etal.8-orca.engrad-mp2.def2tzvp.scfp
The origin for moment calculation is the CENTER OF MASS  = (-0.001129, -0.026855  0.031371)

-------------
DIPOLE MOMENT
-------------
                                X             Y             Z
Electronic contribution:     -0.15472      -1.93663       2.28088
Nuclear contribution   :      0.12423       2.95399      -3.45081
                        -----------------------------------------
Total Dipole Moment    :     -0.03050       1.01736      -1.16993
                        -----------------------------------------
Magnitude (a.u.)       :      1.55071
Magnitude (Debye)      :      3.94159



--------------------
Rotational spectrum 
--------------------
 
Rotational constants in cm-1:     0.021704     0.011835     0.010322 
Rotational constants in MHz :   650.673173   354.811269   309.453560 

 Dipole components along the rotational axes: 
x,y,z [a.u.] :    -0.060063    -0.986969    -1.194563 
x,y,z [Debye]:    -0.152668    -2.508675    -3.036338 

 

                         *** MP2 UNRELAXED DENSITY ***

------------------------------------------------------------------------------
                       ORCA ELECTRIC PROPERTIES CALCULATION
------------------------------------------------------------------------------

Dipole Moment Calculation                       ... on
Quadrupole Moment Calculation                   ... off
Polarizability Calculation                      ... off
GBWName                                         ... 5mecn.malloum.etal.8-orca.engrad-mp2.def2tzvp.gbw
Electron density file                           ... 5mecn.malloum.etal.8-orca.engrad-mp2.def2tzvp.pmp2ur
The origin for moment calculation is the CENTER OF MASS  = (-0.001129, -0.026855  0.031371)

-------------
DIPOLE MOMENT
-------------
                                X             Y             Z
Electronic contribution:     -0.15508      -1.95981       2.30653
Nuclear contribution   :      0.12423       2.95399      -3.45081
                        -----------------------------------------
Total Dipole Moment    :     -0.03085       0.99419      -1.14428
                        -----------------------------------------
Magnitude (a.u.)       :      1.51616
Magnitude (Debye)      :      3.85377



--------------------
Rotational spectrum 
--------------------
 
Rotational constants in cm-1:     0.021704     0.011835     0.010322 
Rotational constants in MHz :   650.673173   354.811269   309.453560 

 Dipole components along the rotational axes: 
x,y,z [a.u.] :    -0.059754    -0.964444    -1.168339 
x,y,z [Debye]:    -0.151884    -2.451421    -2.969681 

 

                           *** MP2 RELAXED DENSITY ***

------------------------------------------------------------------------------
                       ORCA ELECTRIC PROPERTIES CALCULATION
------------------------------------------------------------------------------

Dipole Moment Calculation                       ... on
Quadrupole Moment Calculation                   ... off
Polarizability Calculation                      ... off
GBWName                                         ... 5mecn.malloum.etal.8-orca.engrad-mp2.def2tzvp.gbw
Electron density file                           ... 5mecn.malloum.etal.8-orca.engrad-mp2.def2tzvp.pmp2re
The origin for moment calculation is the CENTER OF MASS  = (-0.001129, -0.026855  0.031371)

-------------
DIPOLE MOMENT
-------------
                                X             Y             Z
Electronic contribution:     -0.15085      -2.02638       2.37837
Nuclear contribution   :      0.12423       2.95399      -3.45081
                        -----------------------------------------
Total Dipole Moment    :     -0.02663       0.92761      -1.07244
                        -----------------------------------------
Magnitude (a.u.)       :      1.41821
Magnitude (Debye)      :      3.60480



--------------------
Rotational spectrum 
--------------------
 
Rotational constants in cm-1:     0.021704     0.011835     0.010322 
Rotational constants in MHz :   650.673173   354.811269   309.453560 

 Dipole components along the rotational axes: 
x,y,z [a.u.] :    -0.053659    -0.899771    -1.094917 
x,y,z [Debye]:    -0.136390    -2.287036    -2.783058 

 

Timings for individual modules:

Sum of individual times         ...     1894.128 sec (=  31.569 min)
GTO integral calculation        ...        4.152 sec (=   0.069 min)   0.2 %
SCF iterations                  ...      232.448 sec (=   3.874 min)  12.3 %
MP2 module                      ...     1657.528 sec (=  27.625 min)  87.5 %
                             ****ORCA TERMINATED NORMALLY****
TOTAL RUN TIME: 0 days 0 hours 31 minutes 37 seconds 990 msec
