60
Energy:   -252.52107655
C    3.01596860  -2.00971753  -1.54976840
H    4.07149580  -1.87024753  -1.44341697
H    2.53116555  -1.05623706  -1.57697313
H    2.81574981  -2.53770447  -2.45863655
C    2.48271687  -2.82284413  -0.35558762
N    2.08568672  -3.42825384   0.53353425
C    3.30728052   1.62779652  -2.89560409
H    3.93249728   1.55335861  -2.03046642
H    3.80763834   2.19938580  -3.64914695
H    3.09932843   0.64754599  -3.27078925
C    1.98658774   2.32309944  -2.51623035
N    1.00327194   2.84078407  -2.23376935
C   -0.71692686  -3.21410930  -1.80143124
H   -1.29313236  -3.09189694  -2.69471257
H    0.05458106  -3.93594778  -1.97061707
H   -0.27595801  -2.27759800  -1.53052138
C   -1.63268347  -3.69897300  -0.66217840
N   -2.31450589  -4.05997606   0.18604712
C    2.87630474  -0.60753303   2.44002475
H    2.96266627  -0.02675386   3.33452876
H    3.29722641  -1.57772498   2.60266427
H    1.84380831  -0.70619872   2.17712689
C    3.63222053   0.09493637   1.29690268
N    4.19503420   0.61795676   0.44579634
C   -2.00320003   2.47789567   4.02544001
H   -1.99830610   3.45081547   3.58012742
H   -2.13018896   2.57070438   5.08381586
H   -2.80902197   1.90345269   3.61854278
C   -0.66769093   1.77081053   3.72871450
N    0.32665631   1.24435349   3.50778887
C   -5.01164845  -1.74330418   0.08854664
H   -4.56973805  -2.55692777   0.62486001
H   -5.92356675  -2.06941702  -0.36637592
H   -5.21777815  -0.94030483   0.76500925
C   -4.03851401  -1.25865367  -1.00219771
N   -3.31397119  -0.89780933  -1.81430646
C   -1.59340395   1.73110490  -0.07953660
H   -1.28219683   2.63387187  -0.56230166
H   -1.85152551   1.94116320   0.93739401
H   -2.44506632   1.32997966  -0.58813156
C   -0.44404826   0.70678705  -0.11633920
N    0.41169930  -0.05586416  -0.14374041
C   -0.71300925  -2.20610751   2.52385629
H   -1.08123147  -3.19846391   2.68051306
H   -0.11702583  -1.91038814   3.36186160
H   -0.11632356  -2.18310333   1.63597336
C   -1.89959860  -1.23657802   2.37017383
N   -2.78306830  -0.51471924   2.25575026
C    2.06832855   3.34020687   1.06859881
H    2.59014263   3.13341536   1.97955848
H    2.64565774   4.01544441   0.47223954
H    1.91679700   2.42845081   0.52949014
C    0.70447363   3.97824308   1.39172347
N   -0.31097835   4.45329004   1.63230447
C   -1.26603571   0.77047909  -3.94023207
H   -2.16188524   0.19939480  -4.06757618
H   -1.15965073   1.45390389  -4.75663386
H   -1.31909738   1.31722460  -3.02199850
C   -0.05342559  -0.17811379  -3.90351333
N    0.84941776  -0.88438430  -3.87617456
