60
Energy:   -251.61201018
C    2.54684649   0.97058474  -3.47346587
H    3.12888091   1.74326318  -3.93074495
H    1.50637621   1.18007888  -3.60923366
H    2.78343602   0.03045385  -3.92632169
C    2.86613996   0.91007604  -1.96814518
N    3.10386845   0.86502455  -0.84736550
C    0.20630632  -0.73886147   4.71790012
H    1.06819195  -1.33881376   4.51269146
H   -0.66655826  -1.22625218   4.33651213
H    0.10755055  -0.60621237   5.77504279
C    0.36424258   0.63518655   4.04066442
N    0.48183330   1.65822775   3.53643166
C    3.96403524   1.59856321   2.36868014
H    4.41641977   1.70596975   1.40498297
H    4.68301884   1.82656489   3.12761157
H    3.13453660   2.26953603   2.45008398
C    3.47199783   0.15012424   2.54622940
N    3.10565362  -0.92830442   2.67842289
C    2.84866539  -2.75563275  -0.34307629
H    1.94956142  -3.18734059   0.04440346
H    2.97981686  -1.77627403   0.06747808
H    3.68323556  -3.36935272  -0.07523394
C    2.75278559  -2.66054246  -1.87714438
N    2.68139872  -2.58974342  -3.01932780
C   -3.50790023  -1.84301657   0.05165003
H   -3.30082234  -0.87677386   0.46200834
H   -2.72667052  -2.52131877   0.32457009
H   -4.44077668  -2.20071621   0.43465342
C   -3.58767981  -1.74261542  -1.48300134
N   -3.64707933  -1.66786220  -2.62561904
C   -0.73537520  -3.35975796  -3.56040206
H    0.21147149  -3.56892204  -4.01276463
H   -0.98927248  -2.33309847  -3.72289991
H   -1.48524933  -3.98599527  -3.99676741
C   -0.65344603  -3.63502715  -2.04742007
N   -0.59244604  -3.83997758  -0.92093621
C   -2.65685151   1.67039410  -3.12888730
H   -3.62835191   1.84109236  -3.54355493
H   -2.29746037   0.71326566  -3.44454891
H   -1.98595422   2.43243385  -3.46666143
C   -2.74146245   1.70549818  -1.59161417
N   -2.80445914   1.73163476  -0.44704444
C   -3.00446386   2.58825899   2.84310896
H   -3.52393926   2.98416178   3.69063859
H   -3.53267242   2.84558417   1.94886147
H   -2.01755987   2.99996033   2.80540467
C   -2.91698600   1.05555414   2.96461395
N   -2.85185476  -0.08561429   3.05507994
C   -0.03303951  -0.68013351   0.75611811
H   -0.16771670  -1.71546199   0.99033420
H   -0.79825319  -0.10407800   1.23309523
H    0.92579711  -0.35742898   1.10453340
C   -0.11787749  -0.48357670  -0.76892875
N   -0.18104323  -0.33723122  -1.90439546
C    0.46121940   2.97680675   0.42828417
H   -0.46168279   2.54825614   0.75918612
H    0.63160673   3.89866303   0.94408282
H    1.26327867   2.29923489   0.63443068
C    0.38991235   3.24201280  -1.08703133
N    0.33682101   3.43947076  -2.21525259
