60
Energy:   -251.59519111
C    2.84136059   1.69966628  -3.50925846
H    3.21505843   0.78036448  -3.90942632
H    3.34336947   2.52170673  -3.97523664
H    1.79054789   1.76995023  -3.69834027
C    3.09338275   1.73849361  -1.99051645
N    3.28102471   1.76740233  -0.85974400
C    0.03104652  -3.76740937   2.62531468
H    0.96606064  -3.52295759   2.16608477
H   -0.52860797  -4.40777272   1.97599141
H    0.20985010  -4.26885857   3.55347257
C   -0.76653567  -2.47587833   2.88494952
N   -1.36037186  -1.51427477   3.07825946
C    1.40692251   0.60201443   4.60188152
H    1.58367346   1.53979696   4.11791540
H    1.85235699   0.61315023   5.57469353
H    0.35309112   0.44120124   4.69395539
C    2.02817115  -0.53226984   3.76578983
N    2.49071900  -1.37679604   3.14328157
C    3.52936098  -1.79879372  -0.05529006
H    3.54294829  -0.79403400   0.31236938
H    4.44886657  -2.28377257   0.19809515
H    2.71243919  -2.32951774   0.38728187
C    3.36216110  -1.78304375  -1.58610558
N    3.23767320  -1.77131718  -2.72586731
C   -2.98811664  -1.51551819   0.02309644
H   -2.55572837  -0.59661663   0.36008380
H   -2.36667089  -2.33326731   0.32308085
H   -3.96118102  -1.63060933   0.45297878
C   -3.10436474  -1.49545685  -1.51237871
N   -3.19091674  -1.48052028  -2.65560975
C   -0.03243128  -2.93943530  -3.34064380
H    0.95276309  -2.98266372  -3.75588294
H   -0.47840076  -1.99617957  -3.57787564
H   -0.62735574  -3.72849723  -3.75094278
C    0.04773462  -3.09914278  -1.81104681
N    0.10742178  -3.21805225  -0.67219233
C   -2.63136653   1.99351748  -3.19448776
H   -3.62332951   2.03984171  -3.59293938
H   -2.15558656   1.09417750  -3.52572800
H   -2.07082279   2.83940339  -3.53385015
C   -2.69521296   2.00377915  -1.65584604
N   -2.74274953   2.01141943  -0.51025735
C   -3.35809358   1.46510864   2.84539500
H   -3.85549285   1.88751622   1.99741741
H   -3.90260324   1.70546753   3.73457210
H   -3.30609776   0.40204860   2.73540016
C   -1.93335616   2.04123320   2.94440900
N   -0.87257439   2.47018412   3.01812943
C    0.47803670   0.15126777   0.62754255
H    0.72409948  -0.85040728   0.91214819
H   -0.41003824   0.45934917   1.13872534
H    1.28443865   0.80443944   0.88827566
C    0.24143785   0.20944534  -0.89306140
N    0.06527926   0.25276118  -2.02522015
C    0.40466648   3.83680144   0.06442904
H    1.31722760   3.36183133   0.35859870
H   -0.42623982   3.26798375   0.42628569
H    0.36751498   4.82379529   0.47596519
C    0.34061488   3.91854242  -1.47206561
N    0.29292554   3.97940229  -2.61605571
