13
Energy:   -179.28522428
C   -2.51554035   1.52893237   3.08047340
H   -2.11587501   2.36139040   3.62101148
H   -2.91410566   0.81421706   3.76984037
H   -3.29324653   1.86742500   2.42817368
C   -1.39780605   0.87229334   2.24915203
N   -0.56560206   0.38339573   1.63019548
C    1.93791282  -1.16992280  -3.55308977
H    2.20018569  -2.16589676  -3.84317423
H    2.70834855  -0.49421379  -3.86089688
H    1.01478438  -0.89424255  -4.01863608
C    1.78019905  -1.10575404  -2.02253147
N    1.66277398  -1.05797747  -0.88296123
Na   1.49797119  -0.93964650   1.40244323
