13
Energy:   -174.22356817
C    3.28784414   1.71092767  -3.57991623
H    3.08865767   2.67125008  -4.00770799
H    3.41855051   0.99231387  -4.36184279
H    4.17865462   1.76138731  -2.98931517
C    2.10430102   1.29042303  -2.68884860
N    1.22309936   0.97733821  -2.02540825
C   -3.04848119  -1.88285419   3.71005375
H   -3.99115854  -1.44531995   3.96465815
H   -2.42439162  -1.91587372   4.57857031
H   -3.20355582  -2.87637290   3.34430585
C   -2.36676020  -1.03512722   2.62000078
N   -1.85918794  -0.40395597   1.80840679
Na  -0.40757200   0.15586379  -0.37295660
