13
Energy:   -183.16393230
C   -1.89414485  -1.05238541  -4.53476386
H   -2.00987616  -0.10717501  -5.02270211
H   -2.82358165  -1.58200786  -4.55813887
H   -1.14451774  -1.62504571  -5.03975741
C   -1.46878596  -0.82631827  -3.07203919
N   -1.15208693  -0.65800100  -1.98297419
C    2.06555822   1.06752782   4.43420693
H    2.20059692   2.12670682   4.50352196
H    3.01971394   0.59131175   4.34643336
H    1.56948890   0.71292262   5.31345063
C    1.21189992   0.73886280   3.19531758
N    0.57631252   0.49415676   2.27290815
Na  -0.15057711   0.11944470   0.14453704
