13
Energy:   -174.92890817
C    3.31814158   3.23123530  -0.53513360
H    3.68438244   3.06563815   0.45650414
H    2.90809189   4.21715081  -0.60390104
H    4.12212565   3.12979732  -1.23386033
C    2.22405555   2.19658311  -0.85773336
N    1.40945877   1.42623752  -1.09792354
C   -3.07517981  -3.38666418   1.08807315
H   -2.40575371  -4.13409022   1.45972244
H   -3.73262454  -3.82396065   0.36596698
H   -3.64954354  -2.98778757   1.89795144
C   -2.26576819  -2.25563152   0.42684856
N   -1.66312444  -1.41352630  -0.06546320
Na  -0.87426164   0.73501824  -1.30105165
