13
Energy:   -177.66379681
C   -4.33996615   1.25110815  -0.78290200
H   -4.35472685   1.73692290   0.17033791
H   -5.16883019   0.57808716  -0.85308919
H   -4.40980620   1.98503729  -1.55838216
C   -3.02525736   0.46423446  -0.93772637
N   -2.04639690  -0.12162878  -1.05300015
C    4.26530469  -0.64773470   1.33835365
H    4.11456618   0.33451812   1.73503675
H    5.16277593  -0.66332999   0.75594378
H    4.34994935  -1.34815373   2.14280847
C    3.06874060  -1.03091982   0.44784618
N    2.17784425  -1.31621855  -0.21517711
Na   0.20580264  -1.22192252  -1.19004975
