72
Energy:   -416.13160491
O    4.20436995  -0.20196474  -1.46385347
H    3.47278613   0.35417997  -1.77030322
C    3.67314355  -1.14540938  -0.54720495
H    4.51041247  -1.76355199  -0.21199504
H    2.92211240  -1.80753299  -1.00581358
H    3.22313580  -0.67066911   0.33873637
O   -2.38334366   1.64474114  -0.80194546
H   -2.61990588   1.52073958   0.12922864
C   -1.30962024   2.57047115  -0.85367313
H   -1.05584151   2.69855636  -1.90945518
H   -0.41158965   2.20990817  -0.32801855
H   -1.57874002   3.55710322  -0.44512812
O   -2.44277318  -0.10247762  -2.98164378
H   -2.47594089   0.52715169  -2.24619147
C   -3.59133486   0.11396862  -3.78569033
H   -3.53806599  -0.60333960  -4.60916865
H   -3.62390408   1.12681990  -4.21679225
H   -4.53164587  -0.06185538  -3.24009116
O    1.92512399  -1.76176021   2.58956608
H    1.82700314  -0.80862909   2.73217265
C    3.11545496  -2.17427996   3.24184931
H    3.21057405  -3.25006171   3.07117072
H    3.08594520  -2.00244185   4.32922145
H    4.01428849  -1.68357462   2.83677663
O   -2.25357115  -3.25094400   0.29746299
H   -1.34122987  -2.95153637   0.16935470
C   -3.04230576  -2.68211675  -0.73542958
H   -4.06668624  -3.02956156  -0.57601839
H   -2.72482993  -3.00449808  -1.73944985
H   -3.04728866  -1.58117465  -0.70937223
O   -3.00034938   1.04110947   1.86722774
H   -2.92800535   0.12617568   2.17720481
C   -4.25999899   1.53981739   2.28806864
H   -4.32492858   2.57108797   1.93064684
H   -4.36842225   1.55085665   3.38392440
H   -5.10454633   0.97668430   1.86098758
O    2.27501711   2.39566629   0.34688706
H    2.18391425   2.13394181  -0.58134989
C    3.64135170   2.70098196   0.57589782
H    3.72611207   2.99377099   1.62593375
H    3.99915036   3.53926166  -0.04219974
H    4.30398883   1.83762226   0.40767356
O    1.55088738   1.00488905   2.67674996
H    1.81592419   1.55316619   1.92337692
C    0.35882051   1.55673389   3.21245288
H    0.07434648   0.92715932   4.05991709
H   -0.47293091   1.55386191   2.49067822
H    0.49486191   2.58526589   3.58176576
O    0.34265467  -2.10218369   0.26167380
H    0.91153848  -2.13188919   1.04519921
C   -0.02633458  -0.74902739   0.04872139
H   -0.66675182  -0.73374746  -0.83734716
H    0.84008118  -0.09743549  -0.14500281
H   -0.59758268  -0.32656443   0.89013567
O    2.01063932   1.45054092  -2.29613022
H    1.39695471   0.85573026  -2.75221656
C    2.63508125   2.26088913  -3.27895362
H    3.32285036   2.92471322  -2.74810861
H    1.91751590   2.88558806  -3.83359634
H    3.21914354   1.67431968  -4.00530399
O    0.28999903  -0.31917052  -3.56704579
H   -0.67416293  -0.33682610  -3.47483258
C    0.75346087  -1.65825446  -3.49928814
H    1.84106435  -1.61999131  -3.60483340
H    0.35380314  -2.28807532  -4.30945893
H    0.52061548  -2.14065853  -2.53707887
O   -2.74488420  -1.64678851   2.57742625
H   -2.69419447  -2.30107915   1.86485515
C   -1.72024807  -1.94731803   3.51141586
H   -1.79170974  -1.20088490   4.30716458
H   -0.71235669  -1.88281547   3.07235811
H   -1.83810278  -2.94338415   3.96610244
