72
Energy:   -417.56163121
O    3.08370789  -1.94962298  -2.64207633
H    3.11354915  -1.07408463  -2.22859674
C    3.81385610  -1.87734572  -3.85623998
H    3.77005803  -2.87169319  -4.30883255
H    4.87313016  -1.61940397  -3.70073478
H    3.38223047  -1.15814635  -4.56984275
O    2.86169930   0.57018959  -1.41621227
H    2.94324791   0.88710182  -0.50443393
C    1.56319334   0.91000786  -1.87549388
H    1.48834948   0.54582074  -2.90372116
H    1.38627176   1.99692714  -1.88457954
H    0.76506008   0.43295953  -1.28542141
O   -1.47350951   2.32051036  -2.05864190
H   -1.46726622   1.50949319  -2.58839227
C   -1.80759540   3.39576101  -2.92163462
H   -1.81013032   4.30128084  -2.30884378
H   -2.80664776   3.28525927  -3.37159138
H   -1.07486436   3.53403543  -3.73204361
O    2.18192232  -1.48563556   1.91127052
H    1.30366620  -1.89030140   1.96902021
C    2.94476320  -2.24297767   0.98550570
H    3.93082408  -1.77354297   0.93258864
H    2.51046393  -2.23992112  -0.02649832
H    3.08116300  -3.28894246   1.30193909
O   -1.31025327   1.70063335   3.06142076
H   -1.21625187   2.25757780   2.27440113
C   -0.09659323   0.98575781   3.23028770
H   -0.21976875   0.36359589   4.12092092
H    0.76792342   1.64814568   3.39347655
H    0.12873158   0.32351144   2.37973740
O    0.27996983  -2.25443517  -2.81719840
H    1.24844970  -2.27601336  -2.81510423
C   -0.16733292  -2.89206176  -1.63149761
H   -1.26005541  -2.85889843  -1.65001689
H    0.17432166  -2.37989761  -0.71840542
H    0.14124159  -3.94764148  -1.57396020
O    2.89121576   1.16142224   1.35089732
H    2.65862965   0.25995678   1.61864163
C    3.92836720   1.61095856   2.20808328
H    4.17813266   2.62761779   1.89263688
H    4.83911292   0.99650633   2.13213591
H    3.62083117   1.64727873   3.26490860
O   -2.73648510  -1.34274018   0.79755733
H   -3.11260827  -1.01557230   1.62816904
C   -2.30162333  -0.21844475   0.04963435
H   -1.88080423  -0.60494831  -0.88257351
H   -1.51739333   0.35774269   0.56516192
H   -3.12508605   0.46672307  -0.20577033
O   -0.99190365   3.08543196   0.61357675
H   -1.17688545   2.86146734  -0.31056873
C    0.31252488   3.64032633   0.66918444
H    0.50464074   3.88687599   1.71693916
H    0.40696972   4.56470724   0.07810284
H    1.08951000   2.93430726   0.33660584
O   -0.43058231  -2.49358800   1.94587717
H   -1.21971791  -2.18546108   1.47604095
C   -0.83232606  -2.89205718   3.24678380
H    0.06847675  -3.23622495   3.76213615
H   -1.55585114  -3.72217366   3.23280440
H   -1.26443360  -2.06428624   3.83061227
O   -3.34965827  -0.20826471   3.30946382
H   -2.65444128   0.46541908   3.34477342
C   -4.58201594   0.42903564   3.60556616
H   -5.35401285  -0.34398557   3.56147338
H   -4.84148630   1.21260199   2.87654198
H   -4.60006757   0.87243005   4.61346143
O   -1.39432138  -0.09835293  -3.48544879
H   -0.82124409  -0.86323838  -3.32747428
C   -2.67607413  -0.58799176  -3.84586170
H   -3.30882194   0.28649413  -4.02018852
H   -3.13983199  -1.19175738  -3.05013998
H   -2.65826047  -1.18621875  -4.77029907
