72
Energy:   -417.10046495
O   -0.30846021  -2.45623570  -0.16754782
H    0.19217048  -2.27025042   0.64066110
C    0.53884959  -2.18117446  -1.27160451
H   -0.04068929  -2.39593355  -2.17354598
H    1.43904165  -2.81540445  -1.28516554
H    0.85567861  -1.12725724  -1.31228858
O    0.26788796   0.43847216   3.79874539
H   -0.66130071   0.68848549   3.91066068
C    1.00353843   1.62258334   3.53562396
H    2.04775627   1.32280298   3.41223013
H    0.95203627   2.34783838   4.36274546
H    0.68152412   2.12663279   2.61095198
O    0.98819659  -1.74868451   2.21480970
H    0.79303097  -0.97485806   2.76392379
C    1.49410072  -2.76423637   3.06642534
H    1.70864277  -3.62837335   2.43181981
H    0.76853668  -3.07608244   3.83394483
H    2.42821253  -2.47040232   3.57028446
O    3.00878483  -0.87803849  -3.17966024
H    2.16553701  -0.46114514  -3.41108266
C    3.58062573  -1.38501406  -4.37486212
H    4.52956754  -1.85110813  -4.09602353
H    3.79190744  -0.59578974  -5.11328093
H    2.95215374  -2.15115291  -4.85531144
O   -2.49017846   1.01015836   3.74855527
H   -2.91061125   0.38182253   3.14287084
C   -2.89291312   2.31470252   3.36319425
H   -2.41041761   3.00983496   4.05563499
H   -3.98189939   2.46214050   3.43494576
H   -2.57373926   2.57387858   2.34156166
O   -3.41642784  -0.96080244   1.91401840
H   -3.37653884  -1.12548887   0.96023094
C   -2.80361503  -2.06119146   2.56681106
H   -2.85721549  -1.85936068   3.64006617
H   -1.74326226  -2.18049311   2.29442079
H   -3.32161804  -3.01333777   2.37221505
O    0.56499151   0.42876034  -3.62407131
H   -0.38817855   0.29634370  -3.51291406
C    0.87667296   1.72991750  -3.15250107
H    1.95387180   1.86243881  -3.28503766
H    0.64544011   1.86164766  -2.08387772
H    0.36296076   2.52206630  -3.71940264
O   -2.17429047   0.03561839  -3.02470873
H   -2.51563351  -0.48787223  -2.28452918
C   -2.83582605   1.29042562  -3.00564927
H   -2.43954017   1.86728053  -3.84569755
H   -2.64465918   1.85793136  -2.08143620
H   -3.92524857   1.19885365  -3.13812750
O    2.00056804   2.56844972   0.23828469
H    2.58082921   1.85920452  -0.07586733
C    2.66847535   3.80044783   0.01779834
H    2.00103233   4.58836568   0.37722911
H    2.87482958   3.98755753  -1.04765237
H    3.61611553   3.87585618   0.57373810
O    3.57084796   0.48366570  -0.77537082
H    3.50789894  -0.02049640  -1.60016247
C    3.69604447  -0.44598641   0.28886908
H    3.76576028   0.13868021   1.21016700
H    4.60311452  -1.06523824   0.20807043
H    2.82522032  -1.11471269   0.37400305
O   -0.82048546   2.46497303   0.19400215
H    0.14208876   2.56522361   0.23671011
C   -1.11380463   1.08044397   0.29186391
H   -2.20192319   0.98555255   0.24207617
H   -0.77592488   0.64038622   1.24315975
H   -0.68188035   0.49479788  -0.53471785
O   -2.87842169  -1.63566809  -0.82942108
H   -1.99506294  -1.98200433  -0.63409620
C   -3.64357889  -2.69487884  -1.38181662
H   -4.63539754  -2.28751348  -1.59590639
H   -3.76450098  -3.53991235  -0.68606268
H   -3.22129846  -3.07814232  -2.32392366
