12
Energy:   -104.32910671
O    1.42427539  -0.64481295   0.95944616
H    1.88892422  -1.36594556   0.53482742
H    1.53834658   0.09702522   0.36539587
O   -1.38667222   0.57251509  -1.11253299
H   -1.51471910  -0.16014156  -0.50999663
H   -2.26926616   0.79949445  -1.40534721
O   -1.19340809  -1.19510135   1.34927682
H   -1.40172941  -1.11806739   2.28035138
H   -0.29183304  -0.88147640   1.27832845
O    1.27166619   1.29443308  -0.96815911
H    0.35318496   1.03463128  -1.03976293
H    1.51796332   1.55268394  -1.85634607
