12
Energy:    -97.57227592
O   -0.24154471  -1.36034862   1.16329975
H   -0.74753445  -2.09183344   0.80955380
H    0.52931746  -1.30636091   0.59842039
O   -0.90843452   1.20337975   1.11666915
H   -1.21580681   1.50972516   1.96984359
H   -0.71657283   0.27511077   1.24985194
O   -0.68714505   1.03822554  -1.65185883
H   -0.71376848   1.00285098  -0.69568328
H   -1.16323213   1.83787186  -1.87577555
O    1.79352612  -0.89990986  -0.60892481
H    1.36854422  -0.35332217  -1.26988178
H    2.72645846  -0.84520326  -0.81599071
