72
Energy:   -417.08068323
O    3.15132326   1.51210786  -2.11998238
H    2.90191735   2.24886013  -1.54256048
C    4.34860930   0.94972137  -1.60737987
H    4.61527786   0.12147795  -2.26948706
H    4.22771242   0.54760379  -0.58931174
H    5.18586991   1.66507776  -1.60127777
O   -1.16183527  -0.95019043  -3.21134635
H   -0.19851616  -0.84801650  -3.21109320
C   -1.56561080  -1.22090289  -4.54409309
H   -2.65307062  -1.33314108  -4.52623501
H   -1.13259514  -2.15349120  -4.93849621
H   -1.31825773  -0.40228010  -5.23795945
O    2.95769243  -1.24002654   1.10900530
H    2.08308448  -1.62009193   0.93861014
C    3.53494113  -1.95567173   2.18936157
H    4.51938972  -1.51471578   2.36797855
H    3.67534427  -3.02458572   1.96466805
H    2.94887970  -1.86981303   3.11776752
O   -3.36123252  -0.27855143  -1.61270361
H   -2.61522899  -0.50696351  -2.18692476
C   -3.64527364   1.09823859  -1.80323879
H   -4.48780296   1.33864414  -1.14914803
H   -3.93904443   1.33253874  -2.83841003
H   -2.80122147   1.74892850  -1.52582951
O   -0.72050687  -0.80968936   3.08031375
H   -1.08222932   0.07614249   2.92904551
C   -1.77000808  -1.62387449   3.57849399
H   -1.34531811  -2.61783155   3.74333635
H   -2.60525290  -1.72311263   2.86765278
H   -2.17126419  -1.26072877   4.53760610
O    0.31783592  -2.17632186   0.85867588
H   -0.07077684  -1.75983125   1.64221845
C   -0.74758320  -2.59796721   0.02223636
H   -0.29216745  -3.06476612  -0.85536290
H   -1.37416132  -1.76069466  -0.32294746
H   -1.39870489  -3.34288224   0.50588859
O    3.03432164   1.47588314   1.88295629
H    3.08951156   0.54279982   1.62852974
C    2.00174856   1.59853557   2.84798634
H    1.95318994   2.65551813   3.12351334
H    2.20188533   1.01653789   3.76122306
H    1.01612017   1.30226015   2.45615107
O   -1.69397212   1.72691448   2.32290220
H   -1.22226822   2.03233824   1.53382994
C   -3.04382587   1.49365129   1.95409748
H   -3.56063083   1.15030117   2.85437995
H   -3.14538953   0.71338312   1.18361468
H   -3.55013087   2.40367305   1.59591740
O    1.62726730  -0.63353195  -3.17168900
H    2.18695896   0.10748369  -2.89589135
C    2.06679069  -1.78788251  -2.47395857
H    1.42579474  -2.61290345  -2.79637112
H    1.96994161  -1.68709816  -1.38160327
H    3.10952955  -2.05445029  -2.70722798
O   -0.18958401   2.37664039   0.03062161
H    0.62598581   2.87763716  -0.11861437
C   -0.02058646   1.09513578  -0.55394621
H   -0.94821202   0.54416530  -0.37666802
H    0.80623691   0.52649633  -0.10030581
H    0.14584433   1.14244857  -1.64153052
O    2.47920695   3.38890713  -0.07131016
H    2.73790483   2.81629212   0.66598946
C    2.75341567   4.72833631   0.30720381
H    2.45617033   5.35977437  -0.53447094
H    3.82244741   4.90399730   0.50491999
H    2.17962283   5.04621210   1.19179077
O   -4.10460837  -1.75385162   0.66558266
H   -3.88963819  -1.22031474  -0.11387196
C   -4.91540049  -2.83589739   0.23624961
H   -5.14826125  -3.42650267   1.12644424
H   -4.40230704  -3.49204285  -0.48415693
H   -5.86529471  -2.50404624  -0.21135862
