72
Energy:   -415.92294760
O    3.48302470  -1.44403210  -1.85345065
H    2.73061520  -1.91595426  -2.24022281
C    4.09591742  -2.30973271  -0.91140036
H    4.94123747  -1.76251541  -0.48540455
H    4.48331763  -3.23247059  -1.37102327
H    3.42011140  -2.58893241  -0.08792536
O   -2.62927737   2.10571501  -0.73735121
H   -2.94083980   1.45590281  -0.08997479
C   -1.50983122   2.77116437  -0.17472236
H   -1.17158168   3.49936461  -0.91687926
H   -0.67283145   2.08836159   0.03972829
H   -1.75922245   3.31607321   0.74921254
O   -1.75222254   1.55937022  -3.33804734
H   -2.08598695   1.83213300  -2.47050768
C   -2.30505974   2.43582489  -4.30692918
H   -1.91885231   2.11442231  -5.27802619
H   -2.00695745   3.48445243  -4.15106822
H   -3.40469000   2.38907572  -4.34441429
O    2.55130746  -0.75713929   3.03616067
H    2.00453866  -0.00233879   3.30025036
C    3.63939238  -0.25557646   2.27652935
H    4.24492804  -1.11878256   1.98724229
H    4.27848797   0.43229959   2.85199497
H    3.31564835   0.25770384   1.35755684
O   -1.32190237  -1.19360784  -2.91585478
H   -1.44825392  -0.27352765  -3.19137431
C   -2.48933543  -1.59839571  -2.21887516
H   -2.33008563  -2.63678399  -1.91576710
H   -3.39366316  -1.56074739  -2.84621184
H   -2.67101586  -1.00184340  -1.31118860
O   -3.36713276   0.14250918   1.12697234
H   -2.96659863  -0.58347958   1.62790747
C   -4.77452444   0.04195021   1.27418079
H   -5.20979862   0.86700761   0.70382837
H   -5.10073581   0.14131969   2.32131459
H   -5.17780656  -0.90083892   0.87257215
O    1.75631209   2.60424179   0.89973736
H    2.03590201   2.15042865   0.09084529
C    2.66103582   3.67274243   1.12846235
H    2.33150246   4.17307962   2.04309651
H    2.65838698   4.41392636   0.31395839
H    3.69581117   3.32838967   1.28155864
O    0.85065292   1.48677191   3.30853340
H    1.09396134   1.96455707   2.50172138
C   -0.56374866   1.38071545   3.33599185
H   -0.82054314   0.84007657   4.25100628
H   -0.96437875   0.81412681   2.48086017
H   -1.06320766   2.36169690   3.36751048
O    0.55172934  -1.98091692   1.45625390
H    1.32077912  -1.71142921   1.98004974
C    0.43771050  -1.08167655   0.36497014
H   -0.43328135  -1.39967355  -0.21445743
H    1.31621973  -1.10483811  -0.29870329
H    0.27251694  -0.04146047   0.68658937
O    2.53359583   1.16914856  -1.36709323
H    2.98604930   0.33321893  -1.55399101
C    1.55208530   1.36163019  -2.37313581
H    1.05210640   2.30743394  -2.14738914
H    0.79034209   0.56636280  -2.38176070
H    1.98662165   1.43753561  -3.38219174
O    1.08721333  -2.64499258  -2.71996677
H    0.24706184  -2.18214666  -2.85540091
C    0.80261296  -3.87084535  -2.06512222
H    1.75970218  -4.37928855  -1.92037781
H    0.15239712  -4.53032471  -2.66101119
H    0.33937796  -3.72724422  -1.07640114
O   -2.04631710  -1.90191035   2.49870397
H   -1.16537141  -2.02951128   2.11650510
C   -1.99097215  -2.31436971   3.85492961
H   -2.99122411  -2.16398134   4.27009771
H   -1.28092459  -1.72038109   4.45140871
H   -1.73203800  -3.37904387   3.96538033
