
                                 *****************
                                 * O   R   C   A *
                                 *****************

           --- An Ab Initio, DFT and Semiempirical electronic structure package ---

                  #######################################################
                  #                        -***-                        #
                  #          Department of theory and spectroscopy      #
                  #               Directorship: Frank Neese             #
                  #        Max Planck Institute fuer Kohlenforschung    #
                  #                Kaiser Wilhelm Platz 1               #
                  #                 D-45470 Muelheim/Ruhr               #
                  #                      Germany                        #
                  #                                                     #
                  #                  All rights reserved                #
                  #                        -***-                        #
                  #######################################################


                         Program Version 4.2.0 -  RELEASE  -


 With contributions from (in alphabetic order):
   Daniel Aravena         : Magnetic Suceptibility
   Michael Atanasov       : Ab Initio Ligand Field Theory (pilot matlab implementation)
   Alexander A. Auer      : GIAO ZORA, VPT2
   Ute Becker             : Parallelization
   Giovanni Bistoni       : ED, misc. LED, open-shell LED, HFLED
   Martin Brehm           : Molecular dynamics
   Dmytro Bykov           : SCF Hessian
   Vijay G. Chilkuri      : MRCI spin determinant printing, contributions to CSF-ICE
   Dipayan Datta          : RHF DLPNO-CCSD density
   Achintya Kumar Dutta   : EOM-CC, STEOM-CC
   Dmitry Ganyushin       : Spin-Orbit,Spin-Spin,Magnetic field MRCI
   Miquel Garcia          : C-PCM Hessian, Gaussian charge scheme
   Yang Guo               : DLPNO-NEVPT2, CIM, IAO-localization
   Andreas Hansen         : Spin unrestricted coupled pair/coupled cluster methods
   Benjamin Helmich-Paris : CASSCF linear response (MC-RPA)
   Lee Huntington         : MR-EOM, pCC
   Robert Izsak           : Overlap fitted RIJCOSX, COSX-SCS-MP3, EOM
   Christian Kollmar      : KDIIS, OOCD, Brueckner-CCSD(T), CCSD density
   Simone Kossmann        : Meta GGA functionals, TD-DFT gradient, OOMP2, MP2 Hessian
   Martin Krupicka        : AUTO-CI
   Lucas Lang             : DCDCAS
   Dagmar Lenk            : GEPOL surface, SMD
   Dimitrios Liakos       : Extrapolation schemes; Compound Job, initial MDCI parallelization
   Dimitrios Manganas     : Further ROCIS development; embedding schemes
   Dimitrios Pantazis     : SARC Basis sets
   Taras Petrenko         : DFT Hessian,TD-DFT gradient, ASA, ECA, R-Raman, ABS, FL, XAS/XES, NRVS
   Peter Pinski           : DLPNO-MP2, DLPNO-MP2 Gradient
   Christoph Reimann      : Effective Core Potentials
   Marius Retegan         : Local ZFS, SOC
   Christoph Riplinger    : Optimizer, TS searches, QM/MM, DLPNO-CCSD(T), (RO)-DLPNO pert. Triples
   Tobias Risthaus        : Range-separated hybrids, TD-DFT gradient, RPA, STAB
   Michael Roemelt        : Original ROCIS implementation
   Masaaki Saitow         : Open-shell DLPNO-CCSD energy and density
   Barbara Sandhoefer     : DKH picture change effects
   Avijit Sen             : IP-ROCIS
   Kantharuban Sivalingam : CASSCF convergence, NEVPT2, FIC-MRCI
   Bernardo de Souza      : ESD, SOC TD-DFT
   Georgi Stoychev        : AutoAux, RI-MP2 NMR
   Willem Van den Heuvel  : Paramagnetic NMR
   Boris Wezisla          : Elementary symmetry handling
   Frank Wennmohs         : Technical directorship


 We gratefully acknowledge several colleagues who have allowed us to
 interface, adapt or use parts of their codes:
   Stefan Grimme, W. Hujo, H. Kruse,             : VdW corrections, initial TS optimization,
                  C. Bannwarth                     DFT functionals, gCP, sTDA/sTD-DF
   Ed Valeev, F. Pavosevic, A. Kumar             : LibInt (2-el integral package), F12 methods
   Garnet Chan, S. Sharma, J. Yang, R. Olivares  : DMRG
   Ulf Ekstrom                                   : XCFun DFT Library
   Mihaly Kallay                                 : mrcc  (arbitrary order and MRCC methods)
   Andreas Klamt, Michael Diedenhofen            : otool_cosmo (COSMO solvation model)
   Jiri Pittner, Ondrej Demel                    : Mk-CCSD
   Frank Weinhold                                : gennbo (NPA and NBO analysis)
   Christopher J. Cramer and Donald G. Truhlar   : smd solvation model
   Lars Goerigk                                  : TD-DFT with DH, B97 family of functionals
   V. Asgeirsson, H. Jonsson                     : NEB implementation
   FAccTs GmbH                                   : IRC, NEB, NEB-TS, Multilevel, MM, QM/MM, CI optimization
   S Lehtola, MJT Oliveira, MAL Marques          : LibXC Library


 Your calculation uses the libint2 library for the computation of 2-el integrals
 For citations please refer to: http://libint.valeyev.net

 Your ORCA version has been built with support for libXC version: 4.2.3
 For citations please refer to: https://tddft.org/programs/libxc/

 This ORCA versions uses:
   CBLAS   interface :  Fast vector & matrix operations
   LAPACKE interface :  Fast linear algebra routines
   SCALAPACK package :  Parallel linear algebra routines


----- Orbital basis set information -----
Your calculation utilizes the basis: def2-TZVP
   F. Weigend and R. Ahlrichs, Phys. Chem. Chem. Phys. 7, 3297 (2005).

================================================================================
                                        WARNINGS
                       Please study these warnings very carefully!
================================================================================


WARNING: The frozen-core approximation for MP2-gradient calculations is turned on by default.

INFO   : the flag for use of LIBINT has been found!

================================================================================
                                       INPUT FILE
================================================================================
NAME = 12h2o.su.etal.mol3,4,6,7,8,10,11-orca.engrad-mp2.def2tzvp.frozencore.inp
|  1> # 12h2o.su.etal.mol3,4,6,7,8,10,11
|  2> ! MP2 def2-TZVP EnGrad TightSCF
|  3> 
|  4> %pal
|  5>     nprocs 6
|  6> end
|  7> 
|  8> %maxcore 8000
|  9> 
| 10> %scf
| 11>     ConvForced true
| 12> end
| 13> 
| 14> *xyz 0 1
| 15> O  -1.752130000  -0.741530000  -2.896280000
| 16> H  -2.036450000  -0.920500000  -1.984040000
| 17> H  -0.921210000  -1.242140000  -2.984230000
| 18> O  -0.885520000   1.737840000   0.052730000
| 19> H  -1.032320000   2.090180000  -0.841890000
| 20> H  -1.284090000   0.839590000   0.017130000
| 21> O   1.737840000   0.885520000  -0.052730000
| 22> H   2.090180000   1.032320000   0.841890000
| 23> H   0.839590000   1.284090000  -0.017130000
| 24> O  -1.737840000  -0.885520000  -0.052730000
| 25> H  -2.090180000  -1.032320000   0.841890000
| 26> H  -0.839590000  -1.284090000  -0.017130000
| 27> O   1.752130000   0.741530000  -2.896280000
| 28> H   2.036450000   0.920500000  -1.984040000
| 29> H   0.921210000   1.242140000  -2.984230000
| 30> O  -0.923410000   1.794470000  -2.768350000
| 31> H  -1.359750000   2.338250000  -3.430940000
| 32> H  -1.303000000   0.879480000  -2.865760000
| 33> O  -0.741530000   1.752130000   2.896280000
| 34> H  -0.920500000   2.036450000   1.984040000
| 35> H  -1.242140000   0.921210000   2.984230000
| 36> *
| 37> 
| 38>                          ****END OF INPUT****
================================================================================

                     *******************************
                     * Energy+Gradient Calculation *
                     *******************************

---------------------------------
CARTESIAN COORDINATES (ANGSTROEM)
---------------------------------
  O     -1.752130   -0.741530   -2.896280
  H     -2.036450   -0.920500   -1.984040
  H     -0.921210   -1.242140   -2.984230
  O     -0.885520    1.737840    0.052730
  H     -1.032320    2.090180   -0.841890
  H     -1.284090    0.839590    0.017130
  O      1.737840    0.885520   -0.052730
  H      2.090180    1.032320    0.841890
  H      0.839590    1.284090   -0.017130
  O     -1.737840   -0.885520   -0.052730
  H     -2.090180   -1.032320    0.841890
  H     -0.839590   -1.284090   -0.017130
  O      1.752130    0.741530   -2.896280
  H      2.036450    0.920500   -1.984040
  H      0.921210    1.242140   -2.984230
  O     -0.923410    1.794470   -2.768350
  H     -1.359750    2.338250   -3.430940
  H     -1.303000    0.879480   -2.865760
  O     -0.741530    1.752130    2.896280
  H     -0.920500    2.036450    1.984040
  H     -1.242140    0.921210    2.984230

----------------------------
CARTESIAN COORDINATES (A.U.)
----------------------------
  NO LB      ZA    FRAG     MASS         X           Y           Z
   0 O     8.0000    0    15.999   -3.311046   -1.401289   -5.473176
   1 H     1.0000    0     1.008   -3.848333   -1.739493   -3.749292
   2 H     1.0000    0     1.008   -1.740835   -2.347304   -5.639377
   3 O     8.0000    0    15.999   -1.673390    3.284042    0.099645
   4 H     1.0000    0     1.008   -1.950802    3.949868   -1.590942
   5 H     1.0000    0     1.008   -2.426578    1.586595    0.032371
   6 O     8.0000    0    15.999    3.284042    1.673390   -0.099645
   7 H     1.0000    0     1.008    3.949868    1.950802    1.590942
   8 H     1.0000    0     1.008    1.586595    2.426578   -0.032371
   9 O     8.0000    0    15.999   -3.284042   -1.673390   -0.099645
  10 H     1.0000    0     1.008   -3.949868   -1.950802    1.590942
  11 H     1.0000    0     1.008   -1.586595   -2.426578   -0.032371
  12 O     8.0000    0    15.999    3.311046    1.401289   -5.473176
  13 H     1.0000    0     1.008    3.848333    1.739493   -3.749292
  14 H     1.0000    0     1.008    1.740835    2.347304   -5.639377
  15 O     8.0000    0    15.999   -1.744992    3.391057   -5.231423
  16 H     1.0000    0     1.008   -2.569555    4.418652   -6.483537
  17 H     1.0000    0     1.008   -2.462313    1.661976   -5.415502
  18 O     8.0000    0    15.999   -1.401289    3.311046    5.473176
  19 H     1.0000    0     1.008   -1.739493    3.848333    3.749292
  20 H     1.0000    0     1.008   -2.347304    1.740835    5.639377

--------------------------------
INTERNAL COORDINATES (ANGSTROEM)
--------------------------------
 O      0   0   0     0.000000000000     0.00000000     0.00000000
 H      1   0   0     0.972136791249     0.00000000     0.00000000
 H      1   2   0     0.974050112161   103.86323780     0.00000000
 O      2   1   3     3.541164138161   107.84672602    95.40582707
 H      4   2   1     0.972645187106    72.17296994    29.09453504
 H      4   2   1     0.983350632989    33.04029707   190.88793319
 O      4   2   1     2.760360281485    93.15949665   286.74623630
 H      7   4   2     0.972645187106   105.22009255   219.29662971
 H      7   4   2     0.983350632989     5.92595386   143.65078242
 O      6   4   2     1.785153773264   170.81379649    88.00403199
 H     10   6   4     0.972645187106   101.65007623   109.44492584
 H     10   6   4     0.983350632989    99.09581498     3.33484705
 O      7   4   2     2.847229166523    93.35605850    51.97705696
 H     13   7   4     0.972136791249    19.08819947   137.47046308
 H     13   7   4     0.974050112161    93.43428486    13.37418319
 O     15  13   7     1.937600461318   161.54375213   306.34627465
 H     16  15  13     0.961828878803   121.08403650   202.75419110
 H     16  15  13     0.995381322057    95.17003195   315.21089530
 O      4   2   1     2.847229166523   126.48630953   195.00328214
 H     19   4   2     0.972136791249    19.08819947   226.21746260
 H     19   4   2     0.974050112161    93.43428486   350.31374249

---------------------------
INTERNAL COORDINATES (A.U.)
---------------------------
 O      0   0   0     0.000000000000     0.00000000     0.00000000
 H      1   0   0     1.837072300170     0.00000000     0.00000000
 H      1   2   0     1.840687952699   103.86323780     0.00000000
 O      2   1   3     6.691830416388   107.84672602    95.40582707
 H      4   2   1     1.838033029106    72.17296994    29.09453504
 H      4   2   1     1.858263389967    33.04029707   190.88793319
 O      4   2   1     5.216324962960    93.15949665   286.74623630
 H      7   4   2     1.838033029106   105.22009255   219.29662971
 H      7   4   2     1.858263389967     5.92595386   143.65078242
 O      6   4   2     3.373451738406   170.81379649    88.00403199
 H     10   6   4     1.838033029106   101.65007623   109.44492584
 H     10   6   4     1.858263389967    99.09581498     3.33484705
 O      7   4   2     5.380483365242    93.35605850    51.97705696
 H     13   7   4     1.837072300170    19.08819947   137.47046308
 H     13   7   4     1.840687952699    93.43428486    13.37418319
 O     15  13   7     3.661534228851   161.54375213   306.34627465
 H     16  15  13     1.817593168635   121.08403650   202.75419110
 H     16  15  13     1.880998097508    95.17003195   315.21089530
 O      4   2   1     5.380483365242   126.48630953   195.00328214
 H     19   4   2     1.837072300170    19.08819947   226.21746260
 H     19   4   2     1.840687952699    93.43428486   350.31374249

---------------------
BASIS SET INFORMATION
---------------------
There are 2 groups of distinct atoms

 Group   1 Type O   : 11s6p2d1f contracted to 5s3p2d1f pattern {62111/411/11/1}
 Group   2 Type H   : 5s1p contracted to 3s1p pattern {311/1}

Atom   0O    basis set group =>   1
Atom   1H    basis set group =>   2
Atom   2H    basis set group =>   2
Atom   3O    basis set group =>   1
Atom   4H    basis set group =>   2
Atom   5H    basis set group =>   2
Atom   6O    basis set group =>   1
Atom   7H    basis set group =>   2
Atom   8H    basis set group =>   2
Atom   9O    basis set group =>   1
Atom  10H    basis set group =>   2
Atom  11H    basis set group =>   2
Atom  12O    basis set group =>   1
Atom  13H    basis set group =>   2
Atom  14H    basis set group =>   2
Atom  15O    basis set group =>   1
Atom  16H    basis set group =>   2
Atom  17H    basis set group =>   2
Atom  18O    basis set group =>   1
Atom  19H    basis set group =>   2
Atom  20H    basis set group =>   2


           ************************************************************
           *        Program running with 6 parallel MPI-processes     *
           *              working on a common directory               *
           ************************************************************
------------------------------------------------------------------------------
                           ORCA GTO INTEGRAL CALCULATION
------------------------------------------------------------------------------

                         BASIS SET STATISTICS AND STARTUP INFO

 # of primitive gaussian shells          ...  224
 # of primitive gaussian functions       ...  434
 # of contracted shells                  ...  133
 # of contracted basis functions         ...  301
 Highest angular momentum                ...    3
 Maximum contraction depth               ...    6
 Integral package used                   ... LIBINT
 Integral threshhold            Thresh   ...  2.500e-11
 Primitive cut-off              TCut     ...  2.500e-12


------------------------------ INTEGRAL EVALUATION ----------------------------


 * One electron integrals 
 Pre-screening matrix                    ... done
 Shell pair data                         ... done (   0.002 sec)



           ************************************************************
           *        Program running with 6 parallel MPI-processes     *
           *              working on a common directory               *
           ************************************************************
-------------------------------------------------------------------------------
                                 ORCA SCF
-------------------------------------------------------------------------------

------------
SCF SETTINGS
------------
Hamiltonian:
 Ab initio Hamiltonian  Method          .... Hartree-Fock(GTOs)


General Settings:
 Integral files         IntName         .... 12h2o.su.etal.mol3,4,6,7,8,10,11-orca.engrad-mp2.def2tzvp.frozencore
 Hartree-Fock type      HFTyp           .... RHF
 Total Charge           Charge          ....    0
 Multiplicity           Mult            ....    1
 Number of Electrons    NEL             ....   70
 Basis Dimension        Dim             ....  301
 Nuclear Repulsion      ENuc            ....    372.9722154092 Eh

Convergence Acceleration:
 DIIS                   CNVDIIS         .... on
   Start iteration      DIISMaxIt       ....    12
   Startup error        DIISStart       ....  0.200000
   # of expansion vecs  DIISMaxEq       ....     5
   Bias factor          DIISBfac        ....   1.050
   Max. coefficient     DIISMaxC        ....  10.000
 Newton-Raphson         CNVNR           .... off
 SOSCF                  CNVSOSCF        .... on
   Start iteration      SOSCFMaxIt      ....   150
   Startup grad/error   SOSCFStart      ....  0.003300
 Level Shifting         CNVShift        .... on
   Level shift para.    LevelShift      ....    0.2500
   Turn off err/grad.   ShiftErr        ....    0.0010
 Zerner damping         CNVZerner       .... off
 Static damping         CNVDamp         .... on
   Fraction old density DampFac         ....    0.7000
   Max. Damping (<1)    DampMax         ....    0.9800
   Min. Damping (>=0)   DampMin         ....    0.0000
   Turn off err/grad.   DampErr         ....    0.1000
 Fernandez-Rico         CNVRico         .... off

SCF Procedure:
 Maximum # iterations   MaxIter         ....   125
 SCF integral mode      SCFMode         .... Direct
   Integral package                     .... LIBINT
 Reset frequency        DirectResetFreq ....    20
 Integral Threshold     Thresh          ....  2.500e-11 Eh
 Primitive CutOff       TCut            ....  2.500e-12 Eh

Convergence Tolerance:
 Convergence Check Mode ConvCheckMode   .... Total+1el-Energy
 Convergence forced     ConvForced      .... 1
 Energy Change          TolE            ....  1.000e-08 Eh
 1-El. energy change                    ....  1.000e-05 Eh
 Orbital Gradient       TolG            ....  1.000e-05
 Orbital Rotation angle TolX            ....  1.000e-05
 DIIS Error             TolErr          ....  5.000e-07


Diagonalization of the overlap matrix:
Smallest eigenvalue                        ... 3.294e-03
Time for diagonalization                   ...    0.021 sec
Threshold for overlap eigenvalues          ... 1.000e-08
Number of eigenvalues below threshold      ... 0
Time for construction of square roots      ...    0.037 sec
Total time needed                          ...    0.058 sec

-------------------
DFT GRID GENERATION
-------------------

General Integration Accuracy     IntAcc      ...  4.340
Radial Grid Type                 RadialGrid  ... Gauss-Chebyshev
Angular Grid (max. acc.)         AngularGrid ... Lebedev-110
Angular grid pruning method      GridPruning ... 3 (G Style)
Weight generation scheme         WeightScheme... Becke
Basis function cutoff            BFCut       ...    1.0000e-11
Integration weight cutoff        WCut        ...    1.0000e-14
Grids for H and He will be reduced by one unit

# of grid points (after initial pruning)     ...  23128 (   0.0 sec)
# of grid points (after weights+screening)   ...  21578 (   0.0 sec)
nearest neighbour list constructed           ...    0.0 sec
Grid point re-assignment to atoms done       ...    0.0 sec
Grid point division into batches done        ...    0.0 sec
Reduced shell lists constructed in    0.0 sec

Total number of grid points                  ...    21578
Total number of batches                      ...      347
Average number of points per batch           ...       62
Average number of grid points per atom       ...     1028
Average number of shells per batch           ...    70.27 (52.84%)
Average number of basis functions per batch  ...   144.24 (47.92%)
Average number of large shells per batch     ...    49.14 (69.92%)
Average number of large basis fcns per batch ...    95.88 (66.47%)
Maximum spatial batch extension              ...  15.87, 15.19, 14.40 au
Average spatial batch extension              ...   0.57,  0.59,  0.49 au

Time for grid setup =    0.083 sec

------------------------------
INITIAL GUESS: MODEL POTENTIAL
------------------------------
Loading Hartree-Fock densities                     ... done
Calculating cut-offs                               ... done
Setting up the integral package                    ... done
Initializing the effective Hamiltonian             ... done
Starting the Coulomb interaction                   ... done (   0.0 sec)
Reading the grid                                   ... done
Mapping shells                                     ... done
Starting the XC term evaluation                    ... done (   0.0 sec)
Transforming the Hamiltonian                       ... done (   0.0 sec)
Diagonalizing the Hamiltonian                      ... done (   0.0 sec)
Back transforming the eigenvectors                 ... done (   0.0 sec)
Now organizing SCF variables                       ... done
                      ------------------
                      INITIAL GUESS DONE (   0.2 sec)
                      ------------------
--------------
SCF ITERATIONS
--------------
ITER       Energy         Delta-E        Max-DP      RMS-DP      [F,P]     Damp
               ***  Starting incremental Fock matrix formation  ***
  0   -531.8404588216   0.000000000000 0.04390448  0.00089081  0.3465100 0.7000
  1   -532.0759498811  -0.235491059464 0.02915109  0.00061909  0.2169529 0.7000
                               ***Turning on DIIS***
  2   -532.2012164922  -0.125266611112 0.01661847  0.00034850  0.1636733 0.7000
  3   -533.3400067076  -1.138790215392 0.00736814  0.00016279  0.1218441 0.7000
  4   -533.1096342487   0.230372458932 0.01619122  0.00037917  0.0861453 0.0000
  5   -532.4877655247   0.621868723993 0.00234194  0.00006051  0.0055676 0.0000
                      *** Initiating the SOSCF procedure ***
                           *** Shutting down DIIS ***
                      *** Re-Reading the Fockian *** 
                      *** Removing any level shift *** 
ITER      Energy       Delta-E        Grad      Rot      Max-DP    RMS-DP
  6   -532.45312201   0.0346435126  0.000882  0.000882  0.001439  0.000037
               *** Restarting incremental Fock matrix formation ***
  7   -532.44393824   0.0091837696  0.000305  0.000412  0.000617  0.000016
  8   -532.44394847  -0.0000102242  0.000135  0.000315  0.000483  0.000013
  9   -532.44395090  -0.0000024363  0.000067  0.000050  0.000116  0.000002
 10   -532.44395111  -0.0000002071  0.000009  0.000007  0.000019  0.000000
                  ***Gradient check signals convergence***
              ***Rediagonalizing the Fockian in SOSCF/NRSCF***

               *****************************************************
               *                     SUCCESS                       *
               *           SCF CONVERGED AFTER  11 CYCLES          *
               *****************************************************


----------------
TOTAL SCF ENERGY
----------------

Total Energy       :         -532.44395111 Eh          -14488.53649 eV

Components:
Nuclear Repulsion  :          372.97221541 Eh           10149.08995 eV
Electronic Energy  :         -905.41616652 Eh          -24637.62644 eV
One Electron Energy:        -1478.25195822 Eh          -40225.28080 eV
Two Electron Energy:          572.83579170 Eh           15587.65435 eV

Virial components:
Potential Energy   :        -1064.24209757 Eh          -28959.49975 eV
Kinetic Energy     :          531.79814645 Eh           14470.96325 eV
Virial Ratio       :            2.00121438


---------------
SCF CONVERGENCE
---------------

  Last Energy change         ...   -4.6589e-09  Tolerance :   1.0000e-08
  Last MAX-Density change    ...    6.5047e-06  Tolerance :   1.0000e-07
  Last RMS-Density change    ...    1.4435e-07  Tolerance :   5.0000e-09
  Last Orbital Gradient      ...    2.1742e-06  Tolerance :   1.0000e-05
  Last Orbital Rotation      ...    2.8606e-06  Tolerance :   1.0000e-05

             **** THE GBW FILE WAS UPDATED (12h2o.su.etal.mol3,4,6,7,8,10,11-orca.engrad-mp2.def2tzvp.frozencore.gbw) ****
             **** DENSITY FILE WAS UPDATED (12h2o.su.etal.mol3,4,6,7,8,10,11-orca.engrad-mp2.def2tzvp.frozencore.scfp) ****
             **** ENERGY FILE WAS UPDATED (12h2o.su.etal.mol3,4,6,7,8,10,11-orca.engrad-mp2.def2tzvp.frozencore.en.tmp) ****
             **** THE GBW FILE WAS UPDATED (12h2o.su.etal.mol3,4,6,7,8,10,11-orca.engrad-mp2.def2tzvp.frozencore.gbw) ****
             **** DENSITY FILE WAS UPDATED (12h2o.su.etal.mol3,4,6,7,8,10,11-orca.engrad-mp2.def2tzvp.frozencore.scfp) ****
----------------
ORBITAL ENERGIES
----------------

  NO   OCC          E(Eh)            E(eV) 
   0   2.0000     -20.645863      -561.8025 
   1   2.0000     -20.595400      -560.4293 
   2   2.0000     -20.570090      -559.7406 
   3   2.0000     -20.569914      -559.7358 
   4   2.0000     -20.549270      -559.1741 
   5   2.0000     -20.544583      -559.0465 
   6   2.0000     -20.501973      -557.8870 
   7   2.0000      -1.429253       -38.8920 
   8   2.0000      -1.385250       -37.6946 
   9   2.0000      -1.365670       -37.1618 
  10   2.0000      -1.351635       -36.7798 
  11   2.0000      -1.330941       -36.2167 
  12   2.0000      -1.327032       -36.1104 
  13   2.0000      -1.286882       -35.0179 
  14   2.0000      -0.787527       -21.4297 
  15   2.0000      -0.746568       -20.3151 
  16   2.0000      -0.738860       -20.1054 
  17   2.0000      -0.735310       -20.0088 
  18   2.0000      -0.702934       -19.1278 
  19   2.0000      -0.698832       -19.0162 
  20   2.0000      -0.672603       -18.3024 
  21   2.0000      -0.664811       -18.0904 
  22   2.0000      -0.630739       -17.1633 
  23   2.0000      -0.621866       -16.9218 
  24   2.0000      -0.588998       -16.0274 
  25   2.0000      -0.583760       -15.8849 
  26   2.0000      -0.576898       -15.6982 
  27   2.0000      -0.560228       -15.2446 
  28   2.0000      -0.536910       -14.6101 
  29   2.0000      -0.527863       -14.3639 
  30   2.0000      -0.513835       -13.9822 
  31   2.0000      -0.508511       -13.8373 
  32   2.0000      -0.495467       -13.4823 
  33   2.0000      -0.492007       -13.3882 
  34   2.0000      -0.452056       -12.3011 
  35   0.0000       0.066436         1.8078 
  36   0.0000       0.120793         3.2869 
  37   0.0000       0.142053         3.8655 
  38   0.0000       0.155260         4.2248 
  39   0.0000       0.175827         4.7845 
  40   0.0000       0.199387         5.4256 
  41   0.0000       0.214650         5.8409 
  42   0.0000       0.236569         6.4374 
  43   0.0000       0.260031         7.0758 
  44   0.0000       0.289418         7.8755 
  45   0.0000       0.308416         8.3924 
  46   0.0000       0.323940         8.8149 
  47   0.0000       0.334398         9.0994 
  48   0.0000       0.345313         9.3964 
  49   0.0000       0.408872        11.1260 
  50   0.0000       0.448370        12.2008 
  51   0.0000       0.471591        12.8327 
  52   0.0000       0.489865        13.3299 
  53   0.0000       0.506286        13.7767 
  54   0.0000       0.523535        14.2461 
  55   0.0000       0.527471        14.3532 
  56   0.0000       0.532454        14.4888 
  57   0.0000       0.538498        14.6533 
  58   0.0000       0.562202        15.2983 
  59   0.0000       0.580117        15.7858 
  60   0.0000       0.590989        16.0816 
  61   0.0000       0.592650        16.1268 
  62   0.0000       0.612538        16.6680 
  63   0.0000       0.616654        16.7800 
  64   0.0000       0.631295        17.1784 
  65   0.0000       0.641665        17.4606 
  66   0.0000       0.650933        17.7128 
  67   0.0000       0.672912        18.3109 
  68   0.0000       0.684008        18.6128 
  69   0.0000       0.701346        19.0846 
  70   0.0000       0.713550        19.4167 
  71   0.0000       0.725073        19.7302 
  72   0.0000       0.734122        19.9765 
  73   0.0000       0.761240        20.7144 
  74   0.0000       0.763442        20.7743 
  75   0.0000       0.779614        21.2144 
  76   0.0000       0.788266        21.4498 
  77   0.0000       0.797775        21.7086 
  78   0.0000       0.820804        22.3352 
  79   0.0000       0.835410        22.7327 
  80   0.0000       0.837728        22.7957 
  81   0.0000       0.848512        23.0892 
  82   0.0000       0.906406        24.6646 
  83   0.0000       0.917042        24.9540 
  84   0.0000       0.940112        25.5818 
  85   0.0000       0.967620        26.3303 
  86   0.0000       1.007038        27.4029 
  87   0.0000       1.038827        28.2679 
  88   0.0000       1.069511        29.1029 
  89   0.0000       1.105663        30.0866 
  90   0.0000       1.166872        31.7522 
  91   0.0000       1.325447        36.0673 
  92   0.0000       1.332667        36.2637 
  93   0.0000       1.380827        37.5742 
  94   0.0000       1.388122        37.7727 
  95   0.0000       1.404718        38.2243 
  96   0.0000       1.415316        38.5127 
  97   0.0000       1.427911        38.8554 
  98   0.0000       1.440350        39.1939 
  99   0.0000       1.451842        39.5066 
 100   0.0000       1.474283        40.1173 
 101   0.0000       1.496547        40.7231 
 102   0.0000       1.503544        40.9135 
 103   0.0000       1.515292        41.2332 
 104   0.0000       1.542744        41.9802 
 105   0.0000       1.554424        42.2980 
 106   0.0000       1.580343        43.0033 
 107   0.0000       1.591906        43.3180 
 108   0.0000       1.602066        43.5944 
 109   0.0000       1.605642        43.6917 
 110   0.0000       1.629923        44.3524 
 111   0.0000       1.673651        45.5423 
 112   0.0000       1.769907        48.1616 
 113   0.0000       1.784357        48.5548 
 114   0.0000       1.818021        49.4709 
 115   0.0000       1.836225        49.9662 
 116   0.0000       1.861624        50.6574 
 117   0.0000       1.894737        51.5584 
 118   0.0000       1.912042        52.0293 
 119   0.0000       1.938023        52.7363 
 120   0.0000       1.946694        52.9722 
 121   0.0000       1.961742        53.3817 
 122   0.0000       1.973271        53.6954 
 123   0.0000       1.992921        54.2301 
 124   0.0000       2.016713        54.8775 
 125   0.0000       2.032278        55.3011 
 126   0.0000       2.068404        56.2841 
 127   0.0000       2.088852        56.8406 
 128   0.0000       2.117480        57.6196 
 129   0.0000       2.127294        57.8866 
 130   0.0000       2.143582        58.3298 
 131   0.0000       2.185548        59.4718 
 132   0.0000       2.214240        60.2525 
 133   0.0000       2.231054        60.7101 
 134   0.0000       2.268509        61.7293 
 135   0.0000       2.281445        62.0813 
 136   0.0000       2.288661        62.2776 
 137   0.0000       2.323984        63.2388 
 138   0.0000       2.329143        63.3792 
 139   0.0000       2.330701        63.4216 
 140   0.0000       2.360169        64.2235 
 141   0.0000       2.364973        64.3542 
 142   0.0000       2.369835        64.4865 
 143   0.0000       2.379596        64.7521 
 144   0.0000       2.398881        65.2769 
 145   0.0000       2.408049        65.5263 
 146   0.0000       2.424539        65.9751 
 147   0.0000       2.457005        66.8585 
 148   0.0000       2.469299        67.1930 
 149   0.0000       2.486670        67.6657 
 150   0.0000       2.512398        68.3658 
 151   0.0000       2.543254        69.2055 
 152   0.0000       2.557075        69.5816 
 153   0.0000       2.565235        69.8036 
 154   0.0000       2.590259        70.4845 
 155   0.0000       2.612346        71.0856 
 156   0.0000       2.622548        71.3631 
 157   0.0000       2.633978        71.6742 
 158   0.0000       2.645718        71.9937 
 159   0.0000       2.659490        72.3684 
 160   0.0000       2.666313        72.5541 
 161   0.0000       2.687547        73.1319 
 162   0.0000       2.698194        73.4216 
 163   0.0000       2.711865        73.7936 
 164   0.0000       2.754046        74.9414 
 165   0.0000       2.768023        75.3217 
 166   0.0000       2.785597        75.8000 
 167   0.0000       2.813677        76.5640 
 168   0.0000       2.870728        78.1165 
 169   0.0000       2.899738        78.9059 
 170   0.0000       2.932531        79.7982 
 171   0.0000       2.937826        79.9423 
 172   0.0000       2.956344        80.4462 
 173   0.0000       2.982604        81.1608 
 174   0.0000       2.990520        81.3762 
 175   0.0000       3.009829        81.9016 
 176   0.0000       3.037135        82.6446 
 177   0.0000       3.046810        82.9079 
 178   0.0000       3.053034        83.0773 
 179   0.0000       3.067512        83.4712 
 180   0.0000       3.086929        83.9996 
 181   0.0000       3.107238        84.5523 
 182   0.0000       3.126056        85.0643 
 183   0.0000       3.157890        85.9306 
 184   0.0000       3.177778        86.4717 
 185   0.0000       3.215803        87.5064 
 186   0.0000       3.223727        87.7221 
 187   0.0000       3.237068        88.0851 
 188   0.0000       3.248266        88.3898 
 189   0.0000       3.310536        90.0843 
 190   0.0000       3.336090        90.7796 
 191   0.0000       3.348197        91.1091 
 192   0.0000       3.385234        92.1169 
 193   0.0000       3.439714        93.5994 
 194   0.0000       3.492196        95.0275 
 195   0.0000       3.527387        95.9851 
 196   0.0000       3.973738       108.1309 
 197   0.0000       4.036331       109.8342 
 198   0.0000       4.058602       110.4402 
 199   0.0000       4.101215       111.5997 
 200   0.0000       4.114342       111.9569 
 201   0.0000       4.122936       112.1908 
 202   0.0000       4.175488       113.6208 
 203   0.0000       4.225852       114.9913 
 204   0.0000       4.286007       116.6282 
 205   0.0000       4.324122       117.6653 
 206   0.0000       4.339788       118.0916 
 207   0.0000       4.363106       118.7262 
 208   0.0000       4.364995       118.7776 
 209   0.0000       4.398634       119.6929 
 210   0.0000       5.462344       148.6379 
 211   0.0000       5.509818       149.9298 
 212   0.0000       5.529748       150.4721 
 213   0.0000       5.536171       150.6469 
 214   0.0000       5.558856       151.2642 
 215   0.0000       5.561882       151.3465 
 216   0.0000       5.589206       152.0900 
 217   0.0000       5.601103       152.4137 
 218   0.0000       5.629346       153.1823 
 219   0.0000       5.655825       153.9028 
 220   0.0000       5.664484       154.1384 
 221   0.0000       5.665891       154.1767 
 222   0.0000       5.672890       154.3672 
 223   0.0000       5.708837       155.3454 
 224   0.0000       5.740853       156.2165 
 225   0.0000       5.765995       156.9007 
 226   0.0000       5.788304       157.5078 
 227   0.0000       5.804508       157.9487 
 228   0.0000       5.811162       158.1298 
 229   0.0000       5.813655       158.1976 
 230   0.0000       5.826808       158.5555 
 231   0.0000       5.835609       158.7950 
 232   0.0000       5.842257       158.9759 
 233   0.0000       5.850605       159.2030 
 234   0.0000       5.857138       159.3808 
 235   0.0000       5.864312       159.5760 
 236   0.0000       5.870626       159.7478 
 237   0.0000       5.882025       160.0580 
 238   0.0000       5.893754       160.3772 
 239   0.0000       5.894999       160.4111 
 240   0.0000       5.910449       160.8315 
 241   0.0000       5.916482       160.9956 
 242   0.0000       5.921662       161.1366 
 243   0.0000       5.936866       161.5503 
 244   0.0000       5.960188       162.1850 
 245   0.0000       6.388937       173.8518 
 246   0.0000       6.445694       175.3962 
 247   0.0000       6.457148       175.7079 
 248   0.0000       6.467267       175.9833 
 249   0.0000       6.486340       176.5023 
 250   0.0000       6.506167       177.0418 
 251   0.0000       6.546381       178.1361 
 252   0.0000       6.629766       180.4051 
 253   0.0000       6.672949       181.5802 
 254   0.0000       6.688996       182.0168 
 255   0.0000       6.696126       182.2109 
 256   0.0000       6.728597       183.0944 
 257   0.0000       6.735150       183.2727 
 258   0.0000       6.771827       184.2708 
 259   0.0000       6.811936       185.3622 
 260   0.0000       6.819543       185.5692 
 261   0.0000       6.843803       186.2294 
 262   0.0000       6.847793       186.3379 
 263   0.0000       6.859918       186.6678 
 264   0.0000       6.875722       187.0979 
 265   0.0000       6.886032       187.3785 
 266   0.0000       6.890683       187.5050 
 267   0.0000       6.899676       187.7497 
 268   0.0000       6.916345       188.2033 
 269   0.0000       6.921106       188.3329 
 270   0.0000       6.928404       188.5314 
 271   0.0000       6.938314       188.8011 
 272   0.0000       6.953269       189.2081 
 273   0.0000       6.966843       189.5774 
 274   0.0000       6.977748       189.8742 
 275   0.0000       7.006004       190.6431 
 276   0.0000       7.013751       190.8539 
 277   0.0000       7.031803       191.3451 
 278   0.0000       7.066303       192.2839 
 279   0.0000       7.089621       192.9184 
 280   0.0000       7.322822       199.2641 
 281   0.0000       7.378486       200.7788 
 282   0.0000       7.383009       200.9019 
 283   0.0000       7.402054       201.4201 
 284   0.0000       7.441124       202.4833 
 285   0.0000       7.469486       203.2551 
 286   0.0000       7.477096       203.4621 
 287   0.0000       7.497555       204.0188 
 288   0.0000       7.511529       204.3991 
 289   0.0000       7.554810       205.5768 
 290   0.0000       7.561056       205.7468 
 291   0.0000       7.605764       206.9634 
 292   0.0000       7.617690       207.2879 
 293   0.0000       7.638431       207.8523 
 294   0.0000      44.900363      1221.8010 
 295   0.0000      44.930306      1222.6158 
 296   0.0000      44.984818      1224.0991 
 297   0.0000      45.009805      1224.7791 
 298   0.0000      45.020882      1225.0805 
 299   0.0000      45.060020      1226.1455 
 300   0.0000      45.148839      1228.5624 

                    ********************************
                    * MULLIKEN POPULATION ANALYSIS *
                    ********************************

-----------------------
MULLIKEN ATOMIC CHARGES
-----------------------
   0 O :   -0.732914
   1 H :    0.398412
   2 H :    0.373761
   3 O :   -0.790489
   4 H :    0.410441
   5 H :    0.373578
   6 O :   -0.766262
   7 H :    0.352844
   8 H :    0.389597
   9 O :   -0.750617
  10 H :    0.381715
  11 H :    0.392182
  12 O :   -0.764627
  13 H :    0.386350
  14 H :    0.364439
  15 O :   -0.789192
  16 H :    0.361089
  17 H :    0.412468
  18 O :   -0.709849
  19 H :    0.393576
  20 H :    0.313497
Sum of atomic charges:   -0.0000000

--------------------------------
MULLIKEN REDUCED ORBITAL CHARGES
--------------------------------
  0 O s       :     3.798215  s :     3.798215
      pz      :     1.564309  p :     4.908055
      px      :     1.557265
      py      :     1.786481
      dz2     :     0.012122  d :     0.025245
      dxz     :     0.001251
      dyz     :     0.002390
      dx2y2   :     0.002433
      dxy     :     0.007048
      f0      :     0.000231  f :     0.001399
      f+1     :     0.000383
      f-1     :     0.000155
      f+2     :     0.000050
      f-2     :     0.000055
      f+3     :     0.000050
      f-3     :     0.000475
  1 H s       :     0.553803  s :     0.553803
      pz      :     0.024412  p :     0.047785
      px      :     0.011238
      py      :     0.012134
  2 H s       :     0.582793  s :     0.582793
      pz      :     0.010332  p :     0.043446
      px      :     0.018598
      py      :     0.014516
  3 O s       :     3.799452  s :     3.799452
      pz      :     1.617554  p :     4.967325
      px      :     1.846217
      py      :     1.503554
      dz2     :     0.010081  d :     0.022391
      dxz     :     0.001941
      dyz     :     0.002402
      dx2y2   :     0.003220
      dxy     :     0.004746
      f0      :     0.000166  f :     0.001321
      f+1     :     0.000106
      f-1     :     0.000430
      f+2     :     0.000068
      f-2     :     0.000035
      f+3     :     0.000417
      f-3     :     0.000099
  4 H s       :     0.541041  s :     0.541041
      pz      :     0.025256  p :     0.048517
      px      :     0.012224
      py      :     0.011037
  5 H s       :     0.573818  s :     0.573818
      pz      :     0.009277  p :     0.052603
      px      :     0.015025
      py      :     0.028301
  6 O s       :     3.810740  s :     3.810740
      pz      :     1.542244  p :     4.930680
      px      :     1.510402
      py      :     1.878034
      dz2     :     0.010554  d :     0.023400
      dxz     :     0.002616
      dyz     :     0.002310
      dx2y2   :     0.002934
      dxy     :     0.004985
      f0      :     0.000203  f :     0.001442
      f+1     :     0.000438
      f-1     :     0.000123
      f+2     :     0.000078
      f-2     :     0.000038
      f+3     :     0.000116
      f-3     :     0.000447
  7 H s       :     0.602474  s :     0.602474
      pz      :     0.018619  p :     0.044682
      px      :     0.012072
      py      :     0.013990
  8 H s       :     0.556913  s :     0.556913
      pz      :     0.009027  p :     0.053490
      px      :     0.028869
      py      :     0.015595
  9 O s       :     3.804857  s :     3.804857
      pz      :     1.573965  p :     4.919898
      px      :     1.490106
      py      :     1.855828
      dz2     :     0.011027  d :     0.024424
      dxz     :     0.002626
      dyz     :     0.002128
      dx2y2   :     0.003530
      dxy     :     0.005112
      f0      :     0.000190  f :     0.001437
      f+1     :     0.000455
      f-1     :     0.000118
      f+2     :     0.000070
      f-2     :     0.000038
      f+3     :     0.000110
      f-3     :     0.000458
 10 H s       :     0.574556  s :     0.574556
      pz      :     0.019168  p :     0.043729
      px      :     0.011447
      py      :     0.013114
 11 H s       :     0.566560  s :     0.566560
      pz      :     0.008841  p :     0.041258
      px      :     0.018965
      py      :     0.013452
 12 O s       :     3.806035  s :     3.806035
      pz      :     1.554310  p :     4.932655
      px      :     1.560076
      py      :     1.818269
      dz2     :     0.011343  d :     0.024504
      dxz     :     0.001200
      dyz     :     0.002811
      dx2y2   :     0.002068
      dxy     :     0.007083
      f0      :     0.000250  f :     0.001434
      f+1     :     0.000370
      f-1     :     0.000159
      f+2     :     0.000056
      f-2     :     0.000054
      f+3     :     0.000064
      f-3     :     0.000481
 13 H s       :     0.565208  s :     0.565208
      pz      :     0.024220  p :     0.048441
      px      :     0.011469
      py      :     0.012753
 14 H s       :     0.584974  s :     0.584974
      pz      :     0.010347  p :     0.050588
      px      :     0.023538
      py      :     0.016703
 15 O s       :     3.807744  s :     3.807744
      pz      :     1.721455  p :     4.957968
      px      :     1.799910
      py      :     1.436603
      dz2     :     0.003535  d :     0.022089
      dxz     :     0.005093
      dyz     :     0.004262
      dx2y2   :     0.002245
      dxy     :     0.006955
      f0      :     0.000080  f :     0.001391
      f+1     :     0.000170
      f-1     :     0.000313
      f+2     :     0.000062
      f-2     :     0.000346
      f+3     :     0.000335
      f-3     :     0.000083
 16 H s       :     0.593526  s :     0.593526
      pz      :     0.016826  p :     0.045385
      px      :     0.014789
      py      :     0.013769
 17 H s       :     0.532004  s :     0.532004
      pz      :     0.009992  p :     0.055527
      px      :     0.013124
      py      :     0.032412
 18 O s       :     3.811483  s :     3.811483
      pz      :     1.559645  p :     4.871163
      px      :     1.809491
      py      :     1.502027
      dz2     :     0.011700  d :     0.025713
      dxz     :     0.003038
      dyz     :     0.001213
      dx2y2   :     0.002203
      dxy     :     0.007559
      f0      :     0.000246  f :     0.001490
      f+1     :     0.000167
      f-1     :     0.000373
      f+2     :     0.000056
      f-2     :     0.000056
      f+3     :     0.000521
      f-3     :     0.000072
 19 H s       :     0.557507  s :     0.557507
      pz      :     0.024570  p :     0.048917
      px      :     0.012858
      py      :     0.011488
 20 H s       :     0.641101  s :     0.641101
      pz      :     0.011337  p :     0.045402
      px      :     0.016151
      py      :     0.017914


                     *******************************
                     * LOEWDIN POPULATION ANALYSIS *
                     *******************************

----------------------
LOEWDIN ATOMIC CHARGES
----------------------
   0 O :   -0.282899
   1 H :    0.161726
   2 H :    0.177426
   3 O :   -0.313332
   4 H :    0.161701
   5 H :    0.146799
   6 O :   -0.348389
   7 H :    0.164148
   8 H :    0.151665
   9 O :   -0.288080
  10 H :    0.178666
  11 H :    0.190113
  12 O :   -0.362739
  13 H :    0.155623
  14 H :    0.145327
  15 O :   -0.324538
  16 H :    0.159394
  17 H :    0.156869
  18 O :   -0.338237
  19 H :    0.157897
  20 H :    0.150859

-------------------------------
LOEWDIN REDUCED ORBITAL CHARGES
-------------------------------
  0 O s       :     3.452412  s :     3.452412
      pz      :     1.537809  p :     4.796437
      px      :     1.533675
      py      :     1.724953
      dz2     :     0.015707  d :     0.031947
      dxz     :     0.001837
      dyz     :     0.001833
      dx2y2   :     0.003604
      dxy     :     0.008967
      f0      :     0.000420  f :     0.002102
      f+1     :     0.000558
      f-1     :     0.000332
      f+2     :     0.000020
      f-2     :     0.000046
      f+3     :     0.000026
      f-3     :     0.000700
  1 H s       :     0.667774  s :     0.667774
      pz      :     0.092653  p :     0.170501
      px      :     0.036218
      py      :     0.041629
  2 H s       :     0.663947  s :     0.663947
      pz      :     0.030823  p :     0.158627
      px      :     0.073109
      py      :     0.054694
  3 O s       :     3.449679  s :     3.449679
      pz      :     1.564864  p :     4.833006
      px      :     1.787757
      py      :     1.480385
      dz2     :     0.013407  d :     0.028741
      dxz     :     0.001176
      dyz     :     0.003358
      dx2y2   :     0.004842
      dxy     :     0.005958
      f0      :     0.000329  f :     0.001906
      f+1     :     0.000189
      f-1     :     0.000685
      f+2     :     0.000035
      f-2     :     0.000042
      f+3     :     0.000559
      f-3     :     0.000068
  4 H s       :     0.663203  s :     0.663203
      pz      :     0.095648  p :     0.175096
      px      :     0.042391
      py      :     0.037057
  5 H s       :     0.668209  s :     0.668209
      pz      :     0.031038  p :     0.184992
      px      :     0.052675
      py      :     0.101279
  6 O s       :     3.463143  s :     3.463143
      pz      :     1.527224  p :     4.853060
      px      :     1.485400
      py      :     1.840436
      dz2     :     0.014838  d :     0.030166
      dxz     :     0.004143
      dyz     :     0.001590
      dx2y2   :     0.003729
      dxy     :     0.005865
      f0      :     0.000398  f :     0.002020
      f+1     :     0.000735
      f-1     :     0.000187
      f+2     :     0.000046
      f-2     :     0.000046
      f+3     :     0.000066
      f-3     :     0.000542
  7 H s       :     0.676972  s :     0.676972
      pz      :     0.079106  p :     0.158880
      px      :     0.036683
      py      :     0.043090
  8 H s       :     0.662128  s :     0.662128
      pz      :     0.029160  p :     0.186207
      px      :     0.104304
      py      :     0.052743
  9 O s       :     3.461123  s :     3.461123
      pz      :     1.539093  p :     4.792956
      px      :     1.463203
      py      :     1.790660
      dz2     :     0.015251  d :     0.031934
      dxz     :     0.003896
      dyz     :     0.001344
      dx2y2   :     0.005110
      dxy     :     0.006333
      f0      :     0.000374  f :     0.002067
      f+1     :     0.000732
      f-1     :     0.000205
      f+2     :     0.000040
      f-2     :     0.000044
      f+3     :     0.000071
      f-3     :     0.000602
 10 H s       :     0.662279  s :     0.662279
      pz      :     0.080799  p :     0.159055
      px      :     0.035608
      py      :     0.042648
 11 H s       :     0.654956  s :     0.654956
      pz      :     0.029043  p :     0.154931
      px      :     0.076722
      py      :     0.049166
 12 O s       :     3.460184  s :     3.460184
      pz      :     1.536145  p :     4.870723
      px      :     1.542687
      py      :     1.791890
      dz2     :     0.014673  d :     0.029815
      dxz     :     0.001854
      dyz     :     0.002170
      dx2y2   :     0.002155
      dxy     :     0.008963
      f0      :     0.000439  f :     0.002018
      f+1     :     0.000541
      f-1     :     0.000304
      f+2     :     0.000023
      f-2     :     0.000047
      f+3     :     0.000002
      f-3     :     0.000662
 13 H s       :     0.673294  s :     0.673294
      pz      :     0.092406  p :     0.171083
      px      :     0.036741
      py      :     0.041936
 14 H s       :     0.680847  s :     0.680847
      pz      :     0.031458  p :     0.173826
      px      :     0.084363
      py      :     0.058005
 15 O s       :     3.455018  s :     3.455018
      pz      :     1.681356  p :     4.838891
      px      :     1.753443
      py      :     1.404092
      dz2     :     0.004645  d :     0.028671
      dxz     :     0.005190
      dyz     :     0.006532
      dx2y2   :     0.003599
      dxy     :     0.008706
      f0      :     0.000083  f :     0.001957
      f+1     :     0.000261
      f-1     :     0.000427
      f+2     :     0.000032
      f-2     :     0.000606
      f+3     :     0.000465
      f-3     :     0.000083
 16 H s       :     0.675100  s :     0.675100
      pz      :     0.066033  p :     0.165506
      px      :     0.053330
      py      :     0.046143
 17 H s       :     0.646014  s :     0.646014
      pz      :     0.033297  p :     0.197117
      px      :     0.047613
      py      :     0.116207
 18 O s       :     3.468311  s :     3.468311
      pz      :     1.538860  p :     4.835101
      px      :     1.783988
      py      :     1.512253
      dz2     :     0.015457  d :     0.032669
      dxz     :     0.002337
      dyz     :     0.001778
      dx2y2   :     0.002560
      dxy     :     0.010538
      f0      :     0.000431  f :     0.002156
      f+1     :     0.000319
      f-1     :     0.000567
      f+2     :     0.000025
      f-2     :     0.000044
      f+3     :     0.000767
      f-3     :     0.000003
 19 H s       :     0.670734  s :     0.670734
      pz      :     0.094047  p :     0.171369
      px      :     0.041738
      py      :     0.035584
 20 H s       :     0.692296  s :     0.692296
      pz      :     0.031769  p :     0.156845
      px      :     0.054802
      py      :     0.070273


                      *****************************
                      * MAYER POPULATION ANALYSIS *
                      *****************************

  NA   - Mulliken gross atomic population
  ZA   - Total nuclear charge
  QA   - Mulliken gross atomic charge
  VA   - Mayer's total valence
  BVA  - Mayer's bonded valence
  FA   - Mayer's free valence

  ATOM       NA         ZA         QA         VA         BVA        FA
  0 O      8.7329     8.0000    -0.7329     1.7586     1.7586     0.0000
  1 H      0.6016     1.0000     0.3984     0.8610     0.8610    -0.0000
  2 H      0.6262     1.0000     0.3738     0.8790     0.8790    -0.0000
  3 O      8.7905     8.0000    -0.7905     1.6794     1.6794    -0.0000
  4 H      0.5896     1.0000     0.4104     0.8663     0.8663    -0.0000
  5 H      0.6264     1.0000     0.3736     0.8959     0.8959    -0.0000
  6 O      8.7663     8.0000    -0.7663     1.7040     1.7040    -0.0000
  7 H      0.6472     1.0000     0.3528     0.8936     0.8936    -0.0000
  8 H      0.6104     1.0000     0.3896     0.8853     0.8853    -0.0000
  9 O      8.7506     8.0000    -0.7506     1.7460     1.7460     0.0000
 10 H      0.6183     1.0000     0.3817     0.8716     0.8716     0.0000
 11 H      0.6078     1.0000     0.3922     0.8640     0.8640    -0.0000
 12 O      8.7646     8.0000    -0.7646     1.7231     1.7231    -0.0000
 13 H      0.6136     1.0000     0.3864     0.8778     0.8778    -0.0000
 14 H      0.6356     1.0000     0.3644     0.8977     0.8977     0.0000
 15 O      8.7892     8.0000    -0.7892     1.6809     1.6809    -0.0000
 16 H      0.6389     1.0000     0.3611     0.8873     0.8873    -0.0000
 17 H      0.5875     1.0000     0.4125     0.8638     0.8638    -0.0000
 18 O      8.7098     8.0000    -0.7098     1.7638     1.7638     0.0000
 19 H      0.6064     1.0000     0.3936     0.8704     0.8704    -0.0000
 20 H      0.6865     1.0000     0.3135     0.9177     0.9177     0.0000

  Mayer bond orders larger than 0.100000
B(  0-O ,  1-H ) :   0.8430 B(  0-O ,  2-H ) :   0.8652 B(  3-O ,  4-H ) :   0.8200 
B(  3-O ,  5-H ) :   0.8318 B(  6-O ,  7-H ) :   0.8832 B(  6-O ,  8-H ) :   0.8152 
B(  9-O , 10-H ) :   0.8617 B(  9-O , 11-H ) :   0.8482 B( 12-O , 13-H ) :   0.8519 
B( 12-O , 14-H ) :   0.8645 B( 15-O , 16-H ) :   0.8769 B( 15-O , 17-H ) :   0.7813 
B( 18-O , 19-H ) :   0.8446 B( 18-O , 20-H ) :   0.9106 

-------
TIMINGS
-------

Total SCF time: 0 days 0 hours 0 min 26 sec 

Total time                  ....      26.277 sec
Sum of individual times     ....      25.914 sec  ( 98.6%)

Fock matrix formation       ....      24.596 sec  ( 93.6%)
Diagonalization             ....       0.376 sec  (  1.4%)
Density matrix formation    ....       0.153 sec  (  0.6%)
Population analysis         ....       0.056 sec  (  0.2%)
Initial guess               ....       0.162 sec  (  0.6%)
Orbital Transformation      ....       0.000 sec  (  0.0%)
Orbital Orthonormalization  ....       0.000 sec  (  0.0%)
DIIS solution               ....       0.224 sec  (  0.9%)
SOSCF solution              ....       0.265 sec  (  1.0%)


           ************************************************************
           *        Program running with 6 parallel MPI-processes     *
           *              working on a common directory               *
           ************************************************************

------------------------------------------------------------------------------
                                ORCA  MP2 
------------------------------------------------------------------------------

Freezing NCore=14 chemical core electrons
MP2 will be done in the AO integral direct mode
The Q1-step will be done using symmetric double matrices
Dimension of the basis                    ...  301
Memory devoted for MP2                    ... 8000 MB   
Memory needed for all in one shot         ...  523 MB
Number of MOs that can be treated together...   75      
MP2 density construction                  ... relaxed
The MP2 gradient is requested => amplitudes will be stored on disk
Total number of MOs              ...   28
Number of MOs treated per batch  ...    5 
Number of batches necessary      ...    1 
OPERATORS   0/  0 PASS   0
-----------------------------------------------
 MP2 CORRELATION ENERGY   :     -1.813574479 Eh
-----------------------------------------------


---------------------
MP2 DENSITY FORMATION
---------------------

Completing the external part of the density      ... done
Storing the unrelaxed density                    ... done

Calculating G(D)                                 ... done
Completing the Lagrangian                        ... done
Solving the Z-vector equations                   ... 

------------------------------------------------------------------------------
                           ORCA CP-SCF CALCULATION
------------------------------------------------------------------------------

Input orbitals are from        ... 12h2o.su.etal.mol3,4,6,7,8,10,11-orca.engrad-mp2.def2tzvp.frozencore.gbw
Input Perturbation             ... 12h2o.su.etal.mol3,4,6,7,8,10,11-orca.engrad-mp2.def2tzvp.frozencore.pin.tmp
Wavefunction output            ... 12h2o.su.etal.mol3,4,6,7,8,10,11-orca.engrad-mp2.def2tzvp.frozencore.pout.tmp
Perturbation mode              ... Real perturbation (singlet)
Solver                         ... POPLE
Max. number of iterations      ... 128
Convergence tolerance          ... 1.000e-08
Integral handling              ... Direct
Number of perturbations        ... 1
Number of operators            ... 1
Orbital ranges used for CP-SCF:
 Operator 0:  Orbitals   0... 34  to  35...300
Variables per vector in CP-SCF ... 9310
Number of vectors sought       ... 1
     CP-SCF ITERATION   0: 
     CP-SCF ITERATION   1:      0.000872933041
     CP-SCF ITERATION   2:      0.000023751804
     CP-SCF ITERATION   3:      0.000001413380
     CP-SCF ITERATION   4:      0.000000103362
     CP-SCF ITERATION   5:      0.000000008537
                                                 ... done
Finalizing the relaxed density                   ... done
Transforming P to the AO basis                   ... done
Storing the relaxed density                      ... done

------------------------------------
ENERGY WEIGHTED DENSITY FINALIZATION
------------------------------------

Gathering the parts of the W-matrix              ...                                                      done
Forming the Z-density                            ... done
Transforming Z to the AO basis                   ... done
Calculating G(Z)                                 ... done
Finalizing the W-matrix                          ...                                                      done
Transforming W to the AO basis and storing       ... done

                *********************************************
                * UNRELAXED MP2 DENSITY POPULATION ANALYSIS *
                *********************************************

------------------------------------------------------------------------------
                           ORCA POPULATION ANALYSIS
------------------------------------------------------------------------------
Input electron density              ... 12h2o.su.etal.mol3,4,6,7,8,10,11-orca.engrad-mp2.def2tzvp.frozencore.pmp2ur
BaseName (.gbw .S,...)              ... 12h2o.su.etal.mol3,4,6,7,8,10,11-orca.engrad-mp2.def2tzvp.frozencore

                    ********************************
                    * MULLIKEN POPULATION ANALYSIS *
                    ********************************

-----------------------
MULLIKEN ATOMIC CHARGES
-----------------------
   0 O :   -0.726113
   1 H :    0.395632
   2 H :    0.371139
   3 O :   -0.783048
   4 H :    0.407234
   5 H :    0.369037
   6 O :   -0.760349
   7 H :    0.350414
   8 H :    0.384990
   9 O :   -0.744329
  10 H :    0.379358
  11 H :    0.389339
  12 O :   -0.758724
  13 H :    0.383392
  14 H :    0.361041
  15 O :   -0.782580
  16 H :    0.358750
  17 H :    0.407676
  18 O :   -0.704494
  19 H :    0.390594
  20 H :    0.311040
Sum of atomic charges:   -0.0000000

--------------------------------
MULLIKEN REDUCED ORBITAL CHARGES
--------------------------------
  0 O s       :     3.793076  s :     3.793076
      pz      :     1.554678  p :     4.876463
      px      :     1.547776
      py      :     1.774009
      dz2     :     0.017327  d :     0.052577
      dxz     :     0.006695
      dyz     :     0.008009
      dx2y2   :     0.008081
      dxy     :     0.012466
      f0      :     0.000615  f :     0.003997
      f+1     :     0.000752
      f-1     :     0.000534
      f+2     :     0.000413
      f-2     :     0.000422
      f+3     :     0.000425
      f-3     :     0.000834
  1 H s       :     0.555080  s :     0.555080
      pz      :     0.024477  p :     0.049288
      px      :     0.011876
      py      :     0.012936
  2 H s       :     0.583898  s :     0.583898
      pz      :     0.011099  p :     0.044963
      px      :     0.018739
      py      :     0.015125
  3 O s       :     3.794219  s :     3.794219
      pz      :     1.607289  p :     4.934266
      px      :     1.833067
      py      :     1.493910
      dz2     :     0.015642  d :     0.050623
      dxz     :     0.007743
      dyz     :     0.007970
      dx2y2   :     0.008938
      dxy     :     0.010330
      f0      :     0.000557  f :     0.003939
      f+1     :     0.000486
      f-1     :     0.000804
      f+2     :     0.000437
      f-2     :     0.000406
      f+3     :     0.000778
      f-3     :     0.000471
  4 H s       :     0.542808  s :     0.542808
      pz      :     0.025347  p :     0.049957
      px      :     0.013018
      py      :     0.011592
  5 H s       :     0.576655  s :     0.576655
      pz      :     0.010104  p :     0.054308
      px      :     0.015737
      py      :     0.028468
  6 O s       :     3.805710  s :     3.805710
      pz      :     1.532878  p :     4.899878
      px      :     1.501036
      py      :     1.865964
      dz2     :     0.015855  d :     0.050743
      dxz     :     0.008068
      dyz     :     0.007904
      dx2y2   :     0.008478
      dxy     :     0.010437
      f0      :     0.000584  f :     0.004019
      f+1     :     0.000806
      f-1     :     0.000495
      f+2     :     0.000441
      f-2     :     0.000405
      f+3     :     0.000483
      f-3     :     0.000805
  7 H s       :     0.603268  s :     0.603268
      pz      :     0.018761  p :     0.046318
      px      :     0.012706
      py      :     0.014852
  8 H s       :     0.559866  s :     0.559866
      pz      :     0.009826  p :     0.055144
      px      :     0.029012
      py      :     0.016306
  9 O s       :     3.799756  s :     3.799756
      pz      :     1.564360  p :     4.888669
      px      :     1.481208
      py      :     1.843101
      dz2     :     0.016341  d :     0.051885
      dxz     :     0.008016
      dyz     :     0.007812
      dx2y2   :     0.009100
      dxy     :     0.010616
      f0      :     0.000574  f :     0.004020
      f+1     :     0.000820
      f-1     :     0.000494
      f+2     :     0.000435
      f-2     :     0.000404
      f+3     :     0.000479
      f-3     :     0.000814
 10 H s       :     0.575403  s :     0.575403
      pz      :     0.019300  p :     0.045239
      px      :     0.012008
      py      :     0.013931
 11 H s       :     0.567951  s :     0.567951
      pz      :     0.009603  p :     0.042710
      px      :     0.018955
      py      :     0.014151
 12 O s       :     3.801240  s :     3.801240
      pz      :     1.544770  p :     4.901938
      px      :     1.550542
      py      :     1.806626
      dz2     :     0.016527  d :     0.051536
      dxz     :     0.006672
      dyz     :     0.008318
      dx2y2   :     0.007639
      dxy     :     0.012380
      f0      :     0.000630  f :     0.004010
      f+1     :     0.000739
      f-1     :     0.000533
      f+2     :     0.000416
      f-2     :     0.000421
      f+3     :     0.000433
      f-3     :     0.000837
 13 H s       :     0.566613  s :     0.566613
      pz      :     0.024269  p :     0.049994
      px      :     0.012142
      py      :     0.013583
 14 H s       :     0.586711  s :     0.586711
      pz      :     0.011166  p :     0.052247
      px      :     0.023745
      py      :     0.017337
 15 O s       :     3.802823  s :     3.802823
      pz      :     1.710234  p :     4.925726
      px      :     1.787850
      py      :     1.427642
      dz2     :     0.009232  d :     0.050043
      dxz     :     0.010647
      dyz     :     0.009801
      dx2y2   :     0.007920
      dxy     :     0.012444
      f0      :     0.000454  f :     0.003988
      f+1     :     0.000538
      f-1     :     0.000681
      f+2     :     0.000435
      f-2     :     0.000714
      f+3     :     0.000705
      f-3     :     0.000461
 16 H s       :     0.594268  s :     0.594268
      pz      :     0.017287  p :     0.046982
      px      :     0.015491
      py      :     0.014205
 17 H s       :     0.535176  s :     0.535176
      pz      :     0.010797  p :     0.057147
      px      :     0.013832
      py      :     0.032519
 18 O s       :     3.806645  s :     3.806645
      pz      :     1.550141  p :     4.841502
      px      :     1.798220
      py      :     1.493141
      dz2     :     0.016812  d :     0.052298
      dxz     :     0.008499
      dyz     :     0.006597
      dx2y2   :     0.007660
      dxy     :     0.012731
      f0      :     0.000627  f :     0.004049
      f+1     :     0.000540
      f-1     :     0.000740
      f+2     :     0.000414
      f-2     :     0.000420
      f+3     :     0.000872
      f-3     :     0.000437
 19 H s       :     0.558970  s :     0.558970
      pz      :     0.024619  p :     0.050436
      px      :     0.013686
      py      :     0.012131
 20 H s       :     0.641773  s :     0.641773
      pz      :     0.012185  p :     0.047188
      px      :     0.016869
      py      :     0.018134


                     *******************************
                     * LOEWDIN POPULATION ANALYSIS *
                     *******************************

----------------------
LOEWDIN ATOMIC CHARGES
----------------------
   0 O :   -0.278415
   1 H :    0.159900
   2 H :    0.175925
   3 O :   -0.308705
   4 H :    0.159568
   5 H :    0.144065
   6 O :   -0.345198
   7 H :    0.162628
   8 H :    0.148988
   9 O :   -0.283330
  10 H :    0.177283
  11 H :    0.188423
  12 O :   -0.359811
  13 H :    0.153755
  14 H :    0.143080
  15 O :   -0.320375
  16 H :    0.158070
  17 H :    0.154190
  18 O :   -0.335232
  19 H :    0.155954
  20 H :    0.149235

-------------------------------
LOEWDIN REDUCED ORBITAL CHARGES
-------------------------------
  0 O s       :     3.448600  s :     3.448600
      pz      :     1.528097  p :     4.764599
      px      :     1.524074
      py      :     1.712429
      dz2     :     0.021587  d :     0.060318
      dxz     :     0.007239
      dyz     :     0.007383
      dx2y2   :     0.009230
      dxy     :     0.014879
      f0      :     0.000845  f :     0.004897
      f+1     :     0.000982
      f-1     :     0.000734
      f+2     :     0.000388
      f-2     :     0.000421
      f+3     :     0.000406
      f-3     :     0.001120
  1 H s       :     0.666769  s :     0.666769
      pz      :     0.093951  p :     0.173331
      px      :     0.036952
      py      :     0.042427
  2 H s       :     0.662481  s :     0.662481
      pz      :     0.031566  p :     0.161594
      px      :     0.074349
      py      :     0.055679
  3 O s       :     3.446005  s :     3.446005
      pz      :     1.554222  p :     4.799895
      px      :     1.774779
      py      :     1.470894
      dz2     :     0.019553  d :     0.058077
      dxz     :     0.006904
      dyz     :     0.008979
      dx2y2   :     0.010738
      dxy     :     0.011902
      f0      :     0.000753  f :     0.004728
      f+1     :     0.000585
      f-1     :     0.001130
      f+2     :     0.000411
      f-2     :     0.000419
      f+3     :     0.000978
      f-3     :     0.000452
  4 H s       :     0.662630  s :     0.662630
      pz      :     0.096856  p :     0.177802
      px      :     0.043139
      py      :     0.037807
  5 H s       :     0.667990  s :     0.667990
      pz      :     0.031916  p :     0.187945
      px      :     0.053579
      py      :     0.102451
  6 O s       :     3.459439  s :     3.459439
      pz      :     1.517109  p :     4.822304
      px      :     1.476223
      py      :     1.828972
      dz2     :     0.020778  d :     0.058663
      dxz     :     0.009622
      dyz     :     0.007127
      dx2y2   :     0.009468
      dxy     :     0.011668
      f0      :     0.000812  f :     0.004793
      f+1     :     0.001173
      f-1     :     0.000575
      f+2     :     0.000417
      f-2     :     0.000419
      f+3     :     0.000444
      f-3     :     0.000954
  7 H s       :     0.675292  s :     0.675292
      pz      :     0.080712  p :     0.162080
      px      :     0.037494
      py      :     0.043874
  8 H s       :     0.662048  s :     0.662048
      pz      :     0.029992  p :     0.188964
      px      :     0.105376
      py      :     0.053595
  9 O s       :     3.457263  s :     3.457263
      pz      :     1.528819  p :     4.760790
      px      :     1.454067
      py      :     1.777904
      dz2     :     0.021186  d :     0.060431
      dxz     :     0.009322
      dyz     :     0.006946
      dx2y2   :     0.010856
      dxy     :     0.012122
      f0      :     0.000790  f :     0.004846
      f+1     :     0.001166
      f-1     :     0.000596
      f+2     :     0.000412
      f-2     :     0.000416
      f+3     :     0.000451
      f-3     :     0.001014
 10 H s       :     0.660742  s :     0.660742
      pz      :     0.082228  p :     0.161975
      px      :     0.036329
      py      :     0.043418
 11 H s       :     0.653777  s :     0.653777
      pz      :     0.029825  p :     0.157800
      px      :     0.077911
      py      :     0.050063
 12 O s       :     3.456548  s :     3.456548
      pz      :     1.526590  p :     4.840482
      px      :     1.533155
      py      :     1.780737
      dz2     :     0.020543  d :     0.057991
      dxz     :     0.007280
      dyz     :     0.007623
      dx2y2   :     0.007711
      dxy     :     0.014833
      f0      :     0.000861  f :     0.004790
      f+1     :     0.000965
      f-1     :     0.000701
      f+2     :     0.000388
      f-2     :     0.000421
      f+3     :     0.000376
      f-3     :     0.001078
 13 H s       :     0.672282  s :     0.672282
      pz      :     0.093726  p :     0.173964
      px      :     0.037504
      py      :     0.042734
 14 H s       :     0.680020  s :     0.680020
      pz      :     0.032258  p :     0.176901
      px      :     0.085649
      py      :     0.058994
 15 O s       :     3.451376  s :     3.451376
      pz      :     1.669688  p :     4.806478
      px      :     1.741297
      py      :     1.395493
      dz2     :     0.010467  d :     0.057768
      dxz     :     0.011087
      dyz     :     0.012284
      dx2y2   :     0.009367
      dxy     :     0.014562
      f0      :     0.000469  f :     0.004753
      f+1     :     0.000650
      f-1     :     0.000844
      f+2     :     0.000411
      f-2     :     0.001018
      f+3     :     0.000887
      f-3     :     0.000475
 16 H s       :     0.673314  s :     0.673314
      pz      :     0.067234  p :     0.168616
      px      :     0.054322
      py      :     0.047061
 17 H s       :     0.646317  s :     0.646317
      pz      :     0.034125  p :     0.199493
      px      :     0.048477
      py      :     0.116890
 18 O s       :     3.464565  s :     3.464565
      pz      :     1.529343  p :     4.805361
      px      :     1.772985
      py      :     1.503032
      dz2     :     0.021250  d :     0.060396
      dxz     :     0.007745
      dyz     :     0.007117
      dx2y2   :     0.008016
      dxy     :     0.016268
      f0      :     0.000851  f :     0.004910
      f+1     :     0.000716
      f-1     :     0.000987
      f+2     :     0.000388
      f-2     :     0.000416
      f+3     :     0.001177
      f-3     :     0.000374
 19 H s       :     0.669837  s :     0.669837
      pz      :     0.095357  p :     0.174209
      px      :     0.042546
      py      :     0.036305
 20 H s       :     0.690374  s :     0.690374
      pz      :     0.032576  p :     0.160391
      px      :     0.055952
      py      :     0.071864


                      *****************************
                      * MAYER POPULATION ANALYSIS *
                      *****************************

  NA   - Mulliken gross atomic population
  ZA   - Total nuclear charge
  QA   - Mulliken gross atomic charge
  VA   - Mayer's total valence
  BVA  - Mayer's bonded valence
  FA   - Mayer's free valence

  ATOM       NA         ZA         QA         VA         BVA        FA
  0 O      8.7261     8.0000    -0.7261     2.0682     1.6798     0.3884
  1 H      0.6044     1.0000     0.3956     0.8667     0.8233     0.0434
  2 H      0.6289     1.0000     0.3711     0.8849     0.8391     0.0458
  3 O      8.7830     8.0000    -0.7830     1.9988     1.6026     0.3962
  4 H      0.5928     1.0000     0.4072     0.8722     0.8293     0.0430
  5 H      0.6310     1.0000     0.3690     0.9040     0.8554     0.0486
  6 O      8.7603     8.0000    -0.7603     2.0186     1.6250     0.3937
  7 H      0.6496     1.0000     0.3504     0.8995     0.8520     0.0475
  8 H      0.6150     1.0000     0.3850     0.8933     0.8463     0.0470
  9 O      8.7443     8.0000    -0.7443     2.0593     1.6674     0.3919
 10 H      0.6206     1.0000     0.3794     0.8770     0.8323     0.0447
 11 H      0.6107     1.0000     0.3893     0.8700     0.8245     0.0455
 12 O      8.7587     8.0000    -0.7587     2.0364     1.6449     0.3915
 13 H      0.6166     1.0000     0.3834     0.8839     0.8394     0.0444
 14 H      0.6390     1.0000     0.3610     0.9046     0.8577     0.0469
 15 O      8.7826     8.0000    -0.7826     2.0005     1.6038     0.3967
 16 H      0.6413     1.0000     0.3587     0.8930     0.8469     0.0461
 17 H      0.5923     1.0000     0.4077     0.8715     0.8259     0.0455
 18 O      8.7045     8.0000    -0.7045     2.0696     1.6821     0.3875
 19 H      0.6094     1.0000     0.3906     0.8765     0.8326     0.0438
 20 H      0.6890     1.0000     0.3110     0.9243     0.8736     0.0507

  Mayer bond orders larger than 0.100000
B(  0-O ,  1-H ) :   0.8058 B(  0-O ,  2-H ) :   0.8261 B(  3-O ,  4-H ) :   0.7846 
B(  3-O ,  5-H ) :   0.7931 B(  6-O ,  7-H ) :   0.8424 B(  6-O ,  8-H ) :   0.7781 
B(  9-O , 10-H ) :   0.8231 B(  9-O , 11-H ) :   0.8095 B( 12-O , 13-H ) :   0.8143 
B( 12-O , 14-H ) :   0.8254 B( 15-O , 16-H ) :   0.8372 B( 15-O , 17-H ) :   0.7458 
B( 18-O , 19-H ) :   0.8075 B( 18-O , 20-H ) :   0.8670 


                *******************************************
                * RELAXED MP2 DENSITY POPULATION ANALYSIS *
                *******************************************

------------------------------------------------------------------------------
                           ORCA POPULATION ANALYSIS
------------------------------------------------------------------------------
Input electron density              ... 12h2o.su.etal.mol3,4,6,7,8,10,11-orca.engrad-mp2.def2tzvp.frozencore.pmp2re
BaseName (.gbw .S,...)              ... 12h2o.su.etal.mol3,4,6,7,8,10,11-orca.engrad-mp2.def2tzvp.frozencore

                    ********************************
                    * MULLIKEN POPULATION ANALYSIS *
                    ********************************

-----------------------
MULLIKEN ATOMIC CHARGES
-----------------------
   0 O :   -0.697836
   1 H :    0.384231
   2 H :    0.363711
   3 O :   -0.745876
   4 H :    0.389079
   5 H :    0.348374
   6 O :   -0.737386
   7 H :    0.342135
   8 H :    0.361358
   9 O :   -0.718829
  10 H :    0.372060
  11 H :    0.380943
  12 O :   -0.735683
  13 H :    0.370458
  14 H :    0.344492
  15 O :   -0.752171
  16 H :    0.351571
  17 H :    0.384220
  18 O :   -0.686747
  19 H :    0.376605
  20 H :    0.305290
Sum of atomic charges:   -0.0000000

--------------------------------
MULLIKEN REDUCED ORBITAL CHARGES
--------------------------------
  0 O s       :     3.792625  s :     3.792625
      pz      :     1.551953  p :     4.850663
      px      :     1.541234
      py      :     1.757476
      dz2     :     0.016129  d :     0.050625
      dxz     :     0.006665
      dyz     :     0.008006
      dx2y2   :     0.008018
      dxy     :     0.011808
      f0      :     0.000599  f :     0.003923
      f+1     :     0.000730
      f-1     :     0.000525
      f+2     :     0.000414
      f-2     :     0.000421
      f+3     :     0.000425
      f-3     :     0.000809
  1 H s       :     0.566096  s :     0.566096
      pz      :     0.023655  p :     0.049674
      px      :     0.012306
      py      :     0.013712
  2 H s       :     0.590722  s :     0.590722
      pz      :     0.011780  p :     0.045567
      px      :     0.018171
      py      :     0.015615
  3 O s       :     3.792874  s :     3.792874
      pz      :     1.600028  p :     4.900207
      px      :     1.813856
      py      :     1.486324
      dz2     :     0.014707  d :     0.048923
      dxz     :     0.007783
      dyz     :     0.007742
      dx2y2   :     0.008739
      dxy     :     0.009952
      f0      :     0.000546  f :     0.003871
      f+1     :     0.000480
      f-1     :     0.000776
      f+2     :     0.000436
      f-2     :     0.000404
      f+3     :     0.000759
      f-3     :     0.000470
  4 H s       :     0.560429  s :     0.560429
      pz      :     0.024701  p :     0.050492
      px      :     0.013845
      py      :     0.011946
  5 H s       :     0.596804  s :     0.596804
      pz      :     0.010856  p :     0.054822
      px      :     0.016368
      py      :     0.027598
  6 O s       :     3.807293  s :     3.807293
      pz      :     1.522873  p :     4.877449
      px      :     1.495730
      py      :     1.858845
      dz2     :     0.014688  d :     0.048694
      dxz     :     0.007783
      dyz     :     0.007920
      dx2y2   :     0.008272
      dxy     :     0.010030
      f0      :     0.000572  f :     0.003951
      f+1     :     0.000777
      f-1     :     0.000489
      f+2     :     0.000441
      f-2     :     0.000403
      f+3     :     0.000482
      f-3     :     0.000787
  7 H s       :     0.610847  s :     0.610847
      pz      :     0.018054  p :     0.047018
      px      :     0.013173
      py      :     0.015791
  8 H s       :     0.583179  s :     0.583179
      pz      :     0.010529  p :     0.055462
      px      :     0.028059
      py      :     0.016874
  9 O s       :     3.802632  s :     3.802632
      pz      :     1.556489  p :     4.862491
      px      :     1.476988
      py      :     1.829014
      dz2     :     0.015153  d :     0.049759
      dxz     :     0.007738
      dyz     :     0.007867
      dx2y2   :     0.008834
      dxy     :     0.010167
      f0      :     0.000561  f :     0.003946
      f+1     :     0.000791
      f-1     :     0.000488
      f+2     :     0.000434
      f-2     :     0.000403
      f+3     :     0.000477
      f-3     :     0.000792
 10 H s       :     0.582112  s :     0.582112
      pz      :     0.018573  p :     0.045828
      px      :     0.012399
      py      :     0.014856
 11 H s       :     0.575802  s :     0.575802
      pz      :     0.010285  p :     0.043254
      px      :     0.018164
      py      :     0.014804
 12 O s       :     3.798855  s :     3.798855
      pz      :     1.540216  p :     4.883320
      px      :     1.544686
      py      :     1.798418
      dz2     :     0.015340  d :     0.049568
      dxz     :     0.006639
      dyz     :     0.008278
      dx2y2   :     0.007587
      dxy     :     0.011723
      f0      :     0.000614  f :     0.003940
      f+1     :     0.000718
      f-1     :     0.000523
      f+2     :     0.000417
      f-2     :     0.000420
      f+3     :     0.000433
      f-3     :     0.000815
 13 H s       :     0.579099  s :     0.579099
      pz      :     0.023440  p :     0.050443
      px      :     0.012610
      py      :     0.014392
 14 H s       :     0.602620  s :     0.602620
      pz      :     0.011886  p :     0.052888
      px      :     0.023150
      py      :     0.017853
 15 O s       :     3.805325  s :     3.805325
      pz      :     1.699305  p :     4.894653
      px      :     1.774816
      py      :     1.420532
      dz2     :     0.009094  d :     0.048274
      dxz     :     0.010349
      dyz     :     0.009232
      dx2y2   :     0.007820
      dxy     :     0.011780
      f0      :     0.000452  f :     0.003920
      f+1     :     0.000530
      f-1     :     0.000664
      f+2     :     0.000434
      f-2     :     0.000694
      f+3     :     0.000687
      f-3     :     0.000459
 16 H s       :     0.600675  s :     0.600675
      pz      :     0.017368  p :     0.047755
      px      :     0.016149
      py      :     0.014237
 17 H s       :     0.558504  s :     0.558504
      pz      :     0.011486  p :     0.057277
      px      :     0.014317
      py      :     0.031474
 18 O s       :     3.808648  s :     3.808648
      pz      :     1.546315  p :     4.824030
      px      :     1.792415
      py      :     1.485299
      dz2     :     0.015573  d :     0.050092
      dxz     :     0.008475
      dyz     :     0.006564
      dx2y2   :     0.007564
      dxy     :     0.011917
      f0      :     0.000610  f :     0.003977
      f+1     :     0.000530
      f-1     :     0.000718
      f+2     :     0.000415
      f-2     :     0.000419
      f+3     :     0.000847
      f-3     :     0.000438
 19 H s       :     0.572483  s :     0.572483
      pz      :     0.023753  p :     0.050912
      px      :     0.014553
      py      :     0.012606
 20 H s       :     0.646590  s :     0.646590
      pz      :     0.012996  p :     0.048120
      px      :     0.017502
      py      :     0.017622


                     *******************************
                     * LOEWDIN POPULATION ANALYSIS *
                     *******************************

----------------------
LOEWDIN ATOMIC CHARGES
----------------------
   0 O :   -0.270972
   1 H :    0.157292
   2 H :    0.177103
   3 O :   -0.299088
   4 H :    0.154577
   5 H :    0.137870
   6 O :   -0.344383
   7 H :    0.163828
   8 H :    0.141821
   9 O :   -0.276278
  10 H :    0.178660
  11 H :    0.188819
  12 O :   -0.359192
  13 H :    0.150855
  14 H :    0.138790
  15 O :   -0.313183
  16 H :    0.159957
  17 H :    0.146569
  18 O :   -0.336389
  19 H :    0.152069
  20 H :    0.151276

-------------------------------
LOEWDIN REDUCED ORBITAL CHARGES
-------------------------------
  0 O s       :     3.449362  s :     3.449362
      pz      :     1.529480  p :     4.757230
      px      :     1.525485
      py      :     1.702265
      dz2     :     0.021044  d :     0.059465
      dxz     :     0.007131
      dyz     :     0.007434
      dx2y2   :     0.009274
      dxy     :     0.014582
      f0      :     0.000848  f :     0.004915
      f+1     :     0.000987
      f-1     :     0.000735
      f+2     :     0.000390
      f-2     :     0.000421
      f+3     :     0.000408
      f-3     :     0.001126
  1 H s       :     0.669278  s :     0.669278
      pz      :     0.093068  p :     0.173430
      px      :     0.037294
      py      :     0.043068
  2 H s       :     0.661442  s :     0.661442
      pz      :     0.031958  p :     0.161456
      px      :     0.073547
      py      :     0.055951
  3 O s       :     3.446850  s :     3.446850
      pz      :     1.552774  p :     4.789701
      px      :     1.764066
      py      :     1.472860
      dz2     :     0.019372  d :     0.057772
      dxz     :     0.006982
      dyz     :     0.008834
      dx2y2   :     0.010750
      dxy     :     0.011835
      f0      :     0.000758  f :     0.004765
      f+1     :     0.000587
      f-1     :     0.001142
      f+2     :     0.000413
      f-2     :     0.000418
      f+3     :     0.000991
      f-3     :     0.000455
  4 H s       :     0.667363  s :     0.667363
      pz      :     0.096329  p :     0.178060
      px      :     0.043784
      py      :     0.037947
  5 H s       :     0.673332  s :     0.673332
      pz      :     0.032473  p :     0.188799
      px      :     0.054160
      py      :     0.102165
  6 O s       :     3.460878  s :     3.460878
      pz      :     1.516045  p :     4.820794
      px      :     1.478615
      py      :     1.826135
      dz2     :     0.020302  d :     0.057883
      dxz     :     0.009408
      dyz     :     0.007192
      dx2y2   :     0.009412
      dxy     :     0.011570
      f0      :     0.000813  f :     0.004827
      f+1     :     0.001186
      f-1     :     0.000576
      f+2     :     0.000419
      f-2     :     0.000417
      f+3     :     0.000447
      f-3     :     0.000969
  7 H s       :     0.673995  s :     0.673995
      pz      :     0.079984  p :     0.162176
      px      :     0.037508
      py      :     0.044684
  8 H s       :     0.668623  s :     0.668623
      pz      :     0.030356  p :     0.189556
      px      :     0.104895
      py      :     0.054305
  9 O s       :     3.458718  s :     3.458718
      pz      :     1.527987  p :     4.753204
      px      :     1.457003
      py      :     1.768214
      dz2     :     0.020686  d :     0.059492
      dxz     :     0.009101
      dyz     :     0.007029
      dx2y2   :     0.010744
      dxy     :     0.011931
      f0      :     0.000790  f :     0.004864
      f+1     :     0.001173
      f-1     :     0.000598
      f+2     :     0.000414
      f-2     :     0.000415
      f+3     :     0.000453
      f-3     :     0.001021
 10 H s       :     0.659559  s :     0.659559
      pz      :     0.081391  p :     0.161781
      px      :     0.036191
      py      :     0.044199
 11 H s       :     0.653657  s :     0.653657
      pz      :     0.030177  p :     0.157523
      px      :     0.076721
      py      :     0.050626
 12 O s       :     3.457196  s :     3.457196
      pz      :     1.527747  p :     4.840142
      px      :     1.534310
      py      :     1.778084
      dz2     :     0.019996  d :     0.057042
      dxz     :     0.007165
      dyz     :     0.007642
      dx2y2   :     0.007676
      dxy     :     0.014563
      f0      :     0.000865  f :     0.004813
      f+1     :     0.000973
      f-1     :     0.000700
      f+2     :     0.000390
      f-2     :     0.000421
      f+3     :     0.000376
      f-3     :     0.001088
 13 H s       :     0.674960  s :     0.674960
      pz      :     0.092850  p :     0.174185
      px      :     0.037886
      py      :     0.043449
 14 H s       :     0.683513  s :     0.683513
      pz      :     0.032813  p :     0.177697
      px      :     0.085265
      py      :     0.059620
 15 O s       :     3.452945  s :     3.452945
      pz      :     1.664220  p :     4.798083
      px      :     1.734693
      py      :     1.399170
      dz2     :     0.010554  d :     0.057362
      dxz     :     0.011054
      dyz     :     0.011952
      dx2y2   :     0.009430
      dxy     :     0.014372
      f0      :     0.000472  f :     0.004792
      f+1     :     0.000651
      f-1     :     0.000855
      f+2     :     0.000412
      f-2     :     0.001020
      f+3     :     0.000903
      f-3     :     0.000480
 16 H s       :     0.671488  s :     0.671488
      pz      :     0.067102  p :     0.168555
      px      :     0.054808
      py      :     0.046645
 17 H s       :     0.653782  s :     0.653782
      pz      :     0.034672  p :     0.199649
      px      :     0.048940
      py      :     0.116037
 18 O s       :     3.466164  s :     3.466164
      pz      :     1.530411  p :     4.806127
      px      :     1.771043
      py      :     1.504674
      dz2     :     0.020630  d :     0.059170
      dxz     :     0.007784
      dyz     :     0.007002
      dx2y2   :     0.007928
      dxy     :     0.015826
      f0      :     0.000856  f :     0.004928
      f+1     :     0.000714
      f-1     :     0.000994
      f+2     :     0.000390
      f-2     :     0.000416
      f+3     :     0.001183
      f-3     :     0.000375
 19 H s       :     0.673441  s :     0.673441
      pz      :     0.094504  p :     0.174490
      px      :     0.043407
      py      :     0.036579
 20 H s       :     0.687672  s :     0.687672
      pz      :     0.033087  p :     0.161053
      px      :     0.056591
      py      :     0.071375


                      *****************************
                      * MAYER POPULATION ANALYSIS *
                      *****************************

  NA   - Mulliken gross atomic population
  ZA   - Total nuclear charge
  QA   - Mulliken gross atomic charge
  VA   - Mayer's total valence
  BVA  - Mayer's bonded valence
  FA   - Mayer's free valence

  ATOM       NA         ZA         QA         VA         BVA        FA
  0 O      8.6978     8.0000    -0.6978     2.1063     1.7239     0.3823
  1 H      0.6158     1.0000     0.3842     0.8818     0.8385     0.0433
  2 H      0.6363     1.0000     0.3637     0.8929     0.8473     0.0456
  3 O      8.7459     8.0000    -0.7459     2.0503     1.6607     0.3896
  4 H      0.6109     1.0000     0.3891     0.8967     0.8543     0.0424
  5 H      0.6516     1.0000     0.3484     0.9316     0.8841     0.0475
  6 O      8.7374     8.0000    -0.7374     2.0376     1.6494     0.3882
  7 H      0.6579     1.0000     0.3421     0.9058     0.8583     0.0475
  8 H      0.6386     1.0000     0.3614     0.9250     0.8793     0.0457
  9 O      8.7188     8.0000    -0.7188     2.1013     1.7158     0.3856
 10 H      0.6279     1.0000     0.3721     0.8832     0.8385     0.0447
 11 H      0.6191     1.0000     0.3809     0.8798     0.8346     0.0452
 12 O      8.7357     8.0000    -0.7357     2.0567     1.6705     0.3862
 13 H      0.6295     1.0000     0.3705     0.9013     0.8571     0.0442
 14 H      0.6555     1.0000     0.3445     0.9278     0.8814     0.0464
 15 O      8.7522     8.0000    -0.7522     2.0422     1.6520     0.3902
 16 H      0.6484     1.0000     0.3516     0.8984     0.8522     0.0461
 17 H      0.6158     1.0000     0.3842     0.8991     0.8545     0.0446
 18 O      8.6867     8.0000    -0.6867     2.0829     1.7006     0.3823
 19 H      0.6234     1.0000     0.3766     0.8958     0.8523     0.0435
 20 H      0.6947     1.0000     0.3053     0.9288     0.8782     0.0507

  Mayer bond orders larger than 0.100000
B(  0-O ,  1-H ) :   0.8101 B(  0-O ,  2-H ) :   0.8288 B(  3-O ,  4-H ) :   0.7887 
B(  3-O ,  5-H ) :   0.7908 B(  6-O ,  7-H ) :   0.8456 B(  6-O ,  8-H ) :   0.7762 
B(  9-O , 10-H ) :   0.8264 B(  9-O , 11-H ) :   0.8127 B( 12-O , 13-H ) :   0.8194 
B( 12-O , 14-H ) :   0.8288 B( 15-O , 16-H ) :   0.8399 B( 15-O , 17-H ) :   0.7442 
B( 18-O , 19-H ) :   0.8129 B( 18-O , 20-H ) :   0.8698 


----------------------------------
MP2 DERIVATIVE INTEGRAL GENERATION
----------------------------------


Input Wavefunction Amplitudes       ... 12h2o.su.etal.mol3,4,6,7,8,10,11-orca.engrad-mp2.def2tzvp.frozencore.mp2tsaa.tmp
Input Correlated Electron Density   ... 12h2o.su.etal.mol3,4,6,7,8,10,11-orca.engrad-mp2.def2tzvp.frozencore.pmp2re
Input Energy Weighted Density       ... 12h2o.su.etal.mol3,4,6,7,8,10,11-orca.engrad-mp2.def2tzvp.frozencore.wmp2.tmp
Input SCF Electron Density          ... 12h2o.su.etal.mol3,4,6,7,8,10,11-orca.engrad-mp2.def2tzvp.frozencore.scfp

One-Electron Terms    ...
                        ... One-Electron Terms done
Prescreening matrices              ... done

Batch handling in the gradient evaluation:
Memory available                      ... 8000.0 MB
Memory per occupied orbital in Q2     ...   19.4 MB
Memory per occupied orbital in Q3     ...    0.1 MB
Total memory requirement per |i>      ...   19.5 MB
Max. Number of orbitals possible      ...    410
Number of orbitals treated per batch  ...     28
Number of batches to be done          ...      1
Batch   0: i=    7 ...    34

---------------------------------------
MP2 TOTAL ENERGY:     -534.257525593 Eh
---------------------------------------

The final MP2 gradient
  0:  -0.00688686   0.00687134  -0.00437314
  1:   0.00166031   0.00066612   0.00298421
  2:   0.00582344  -0.00471747   0.00249281
  3:   0.00545465   0.00622783  -0.00113384
  4:  -0.00071515  -0.00034232   0.00303836
  5:  -0.00319171  -0.01092271   0.00235975
  6:   0.00257166  -0.00124230  -0.01163624
  7:   0.00176610   0.00049315   0.00943942
  8:  -0.00526825   0.00101133  -0.00135647
  9:  -0.01414866   0.00975041  -0.01123783
 10:   0.00125099   0.00180314   0.00751983
 11:   0.01121597  -0.00597799   0.00045610
 12:   0.00474658  -0.00177604  -0.00061107
 13:   0.00111322   0.00254657   0.00304009
 14:  -0.00671529   0.00150259  -0.00122874
 15:   0.00494303   0.00388781  -0.00271150
 16:   0.00052460  -0.00037359   0.00134824
 17:  -0.00301777  -0.00869003   0.00275923
 18:   0.00673996   0.01084622   0.00074295
 19:  -0.00191827   0.00008852  -0.00130319
 20:  -0.00594856  -0.01165259  -0.00058897

-----------------------------------
NORM OF THE MP2 GRADIENT:  0.043452
-----------------------------------

-------------------------   --------------------
FINAL SINGLE POINT ENERGY      -534.257525593197
-------------------------   --------------------


                            ***************************************
                            *     ORCA property calculations      *
                            ***************************************

                                    ---------------------
                                    Active property flags
                                    ---------------------
   (+) Dipole Moment


------------------------------------------------------------------------------
                       ORCA ELECTRIC PROPERTIES CALCULATION
------------------------------------------------------------------------------

Dipole Moment Calculation                       ... on
Quadrupole Moment Calculation                   ... off
Polarizability Calculation                      ... off
GBWName                                         ... 12h2o.su.etal.mol3,4,6,7,8,10,11-orca.engrad-mp2.def2tzvp.frozencore.gbw
Electron density file                           ... 12h2o.su.etal.mol3,4,6,7,8,10,11-orca.engrad-mp2.def2tzvp.frozencore.scfp
The origin for moment calculation is the CENTER OF MASS  = (-0.719352,  1.404482 -1.528441)

-------------
DIPOLE MOMENT
-------------
                                X             Y             Z
Electronic contribution:     -0.25452      -0.15025      -0.20326
Nuclear contribution   :     -1.69875      -1.21834       0.82779
                        -----------------------------------------
Total Dipole Moment    :     -1.95327      -1.36859       0.62453
                        -----------------------------------------
Magnitude (a.u.)       :      2.46543
Magnitude (Debye)      :      6.26663



--------------------
Rotational spectrum 
--------------------
 
Rotational constants in cm-1:     0.045126     0.026933     0.021416 
Rotational constants in MHz :  1352.845639   807.435925   642.043545 

 Dipole components along the rotational axes: 
x,y,z [a.u.] :     0.488700     2.358791     0.525005 
x,y,z [Debye]:     1.242176     5.995569     1.334458 

 

                         *** MP2 UNRELAXED DENSITY ***

------------------------------------------------------------------------------
                       ORCA ELECTRIC PROPERTIES CALCULATION
------------------------------------------------------------------------------

Dipole Moment Calculation                       ... on
Quadrupole Moment Calculation                   ... off
Polarizability Calculation                      ... off
GBWName                                         ... 12h2o.su.etal.mol3,4,6,7,8,10,11-orca.engrad-mp2.def2tzvp.frozencore.gbw
Electron density file                           ... 12h2o.su.etal.mol3,4,6,7,8,10,11-orca.engrad-mp2.def2tzvp.frozencore.pmp2ur
The origin for moment calculation is the CENTER OF MASS  = (-0.719352,  1.404482 -1.528441)

-------------
DIPOLE MOMENT
-------------
                                X             Y             Z
Electronic contribution:     -0.24232      -0.14152      -0.21372
Nuclear contribution   :     -1.69875      -1.21834       0.82779
                        -----------------------------------------
Total Dipole Moment    :     -1.94107      -1.35987       0.61407
                        -----------------------------------------
Magnitude (a.u.)       :      2.44828
Magnitude (Debye)      :      6.22303



--------------------
Rotational spectrum 
--------------------
 
Rotational constants in cm-1:     0.045126     0.026933     0.021416 
Rotational constants in MHz :  1352.845639   807.435925   642.043545 

 Dipole components along the rotational axes: 
x,y,z [a.u.] :     0.479250     2.343859     0.520294 
x,y,z [Debye]:     1.218156     5.957617     1.322483 

 

                           *** MP2 RELAXED DENSITY ***

------------------------------------------------------------------------------
                       ORCA ELECTRIC PROPERTIES CALCULATION
------------------------------------------------------------------------------

Dipole Moment Calculation                       ... on
Quadrupole Moment Calculation                   ... off
Polarizability Calculation                      ... off
GBWName                                         ... 12h2o.su.etal.mol3,4,6,7,8,10,11-orca.engrad-mp2.def2tzvp.frozencore.gbw
Electron density file                           ... 12h2o.su.etal.mol3,4,6,7,8,10,11-orca.engrad-mp2.def2tzvp.frozencore.pmp2re
The origin for moment calculation is the CENTER OF MASS  = (-0.719352,  1.404482 -1.528441)

-------------
DIPOLE MOMENT
-------------
                                X             Y             Z
Electronic contribution:     -0.24365      -0.15497      -0.23103
Nuclear contribution   :     -1.69875      -1.21834       0.82779
                        -----------------------------------------
Total Dipole Moment    :     -1.94240      -1.37331       0.59677
                        -----------------------------------------
Magnitude (a.u.)       :      2.45255
Magnitude (Debye)      :      6.23390



--------------------
Rotational spectrum 
--------------------
 
Rotational constants in cm-1:     0.045126     0.026933     0.021416 
Rotational constants in MHz :  1352.845639   807.435925   642.043545 

 Dipole components along the rotational axes: 
x,y,z [a.u.] :     0.459888     2.350405     0.528316 
x,y,z [Debye]:     1.168943     5.974256     1.342873 

 

Timings for individual modules:

Sum of individual times         ...      140.736 sec (=   2.346 min)
GTO integral calculation        ...        2.575 sec (=   0.043 min)   1.8 %
SCF iterations                  ...       28.950 sec (=   0.482 min)  20.6 %
MP2 module                      ...      109.211 sec (=   1.820 min)  77.6 %
                             ****ORCA TERMINATED NORMALLY****
TOTAL RUN TIME: 0 days 0 hours 2 minutes 21 seconds 599 msec
