
                                 *****************
                                 * O   R   C   A *
                                 *****************

           --- An Ab Initio, DFT and Semiempirical electronic structure package ---

                  #######################################################
                  #                        -***-                        #
                  #          Department of theory and spectroscopy      #
                  #               Directorship: Frank Neese             #
                  #        Max Planck Institute fuer Kohlenforschung    #
                  #                Kaiser Wilhelm Platz 1               #
                  #                 D-45470 Muelheim/Ruhr               #
                  #                      Germany                        #
                  #                                                     #
                  #                  All rights reserved                #
                  #                        -***-                        #
                  #######################################################


                         Program Version 4.2.0 -  RELEASE  -


 With contributions from (in alphabetic order):
   Daniel Aravena         : Magnetic Suceptibility
   Michael Atanasov       : Ab Initio Ligand Field Theory (pilot matlab implementation)
   Alexander A. Auer      : GIAO ZORA, VPT2
   Ute Becker             : Parallelization
   Giovanni Bistoni       : ED, misc. LED, open-shell LED, HFLED
   Martin Brehm           : Molecular dynamics
   Dmytro Bykov           : SCF Hessian
   Vijay G. Chilkuri      : MRCI spin determinant printing, contributions to CSF-ICE
   Dipayan Datta          : RHF DLPNO-CCSD density
   Achintya Kumar Dutta   : EOM-CC, STEOM-CC
   Dmitry Ganyushin       : Spin-Orbit,Spin-Spin,Magnetic field MRCI
   Miquel Garcia          : C-PCM Hessian, Gaussian charge scheme
   Yang Guo               : DLPNO-NEVPT2, CIM, IAO-localization
   Andreas Hansen         : Spin unrestricted coupled pair/coupled cluster methods
   Benjamin Helmich-Paris : CASSCF linear response (MC-RPA)
   Lee Huntington         : MR-EOM, pCC
   Robert Izsak           : Overlap fitted RIJCOSX, COSX-SCS-MP3, EOM
   Christian Kollmar      : KDIIS, OOCD, Brueckner-CCSD(T), CCSD density
   Simone Kossmann        : Meta GGA functionals, TD-DFT gradient, OOMP2, MP2 Hessian
   Martin Krupicka        : AUTO-CI
   Lucas Lang             : DCDCAS
   Dagmar Lenk            : GEPOL surface, SMD
   Dimitrios Liakos       : Extrapolation schemes; Compound Job, initial MDCI parallelization
   Dimitrios Manganas     : Further ROCIS development; embedding schemes
   Dimitrios Pantazis     : SARC Basis sets
   Taras Petrenko         : DFT Hessian,TD-DFT gradient, ASA, ECA, R-Raman, ABS, FL, XAS/XES, NRVS
   Peter Pinski           : DLPNO-MP2, DLPNO-MP2 Gradient
   Christoph Reimann      : Effective Core Potentials
   Marius Retegan         : Local ZFS, SOC
   Christoph Riplinger    : Optimizer, TS searches, QM/MM, DLPNO-CCSD(T), (RO)-DLPNO pert. Triples
   Tobias Risthaus        : Range-separated hybrids, TD-DFT gradient, RPA, STAB
   Michael Roemelt        : Original ROCIS implementation
   Masaaki Saitow         : Open-shell DLPNO-CCSD energy and density
   Barbara Sandhoefer     : DKH picture change effects
   Avijit Sen             : IP-ROCIS
   Kantharuban Sivalingam : CASSCF convergence, NEVPT2, FIC-MRCI
   Bernardo de Souza      : ESD, SOC TD-DFT
   Georgi Stoychev        : AutoAux, RI-MP2 NMR
   Willem Van den Heuvel  : Paramagnetic NMR
   Boris Wezisla          : Elementary symmetry handling
   Frank Wennmohs         : Technical directorship


 We gratefully acknowledge several colleagues who have allowed us to
 interface, adapt or use parts of their codes:
   Stefan Grimme, W. Hujo, H. Kruse,             : VdW corrections, initial TS optimization,
                  C. Bannwarth                     DFT functionals, gCP, sTDA/sTD-DF
   Ed Valeev, F. Pavosevic, A. Kumar             : LibInt (2-el integral package), F12 methods
   Garnet Chan, S. Sharma, J. Yang, R. Olivares  : DMRG
   Ulf Ekstrom                                   : XCFun DFT Library
   Mihaly Kallay                                 : mrcc  (arbitrary order and MRCC methods)
   Andreas Klamt, Michael Diedenhofen            : otool_cosmo (COSMO solvation model)
   Jiri Pittner, Ondrej Demel                    : Mk-CCSD
   Frank Weinhold                                : gennbo (NPA and NBO analysis)
   Christopher J. Cramer and Donald G. Truhlar   : smd solvation model
   Lars Goerigk                                  : TD-DFT with DH, B97 family of functionals
   V. Asgeirsson, H. Jonsson                     : NEB implementation
   FAccTs GmbH                                   : IRC, NEB, NEB-TS, Multilevel, MM, QM/MM, CI optimization
   S Lehtola, MJT Oliveira, MAL Marques          : LibXC Library


 Your calculation uses the libint2 library for the computation of 2-el integrals
 For citations please refer to: http://libint.valeyev.net

 Your ORCA version has been built with support for libXC version: 4.2.3
 For citations please refer to: https://tddft.org/programs/libxc/

 This ORCA versions uses:
   CBLAS   interface :  Fast vector & matrix operations
   LAPACKE interface :  Fast linear algebra routines
   SCALAPACK package :  Parallel linear algebra routines


----- Orbital basis set information -----
Your calculation utilizes the basis: def2-TZVP
   F. Weigend and R. Ahlrichs, Phys. Chem. Chem. Phys. 7, 3297 (2005).

================================================================================
                                        WARNINGS
                       Please study these warnings very carefully!
================================================================================


WARNING: The frozen-core approximation for MP2-gradient calculations is turned on by default.

INFO   : the flag for use of LIBINT has been found!

================================================================================
                                       INPUT FILE
================================================================================
NAME = 12meoh.boyd.etal.mol0,5-orca.engrad-mp2.def2tzvp.frozencore.inp
|  1> # 12meoh.boyd.etal.mol0,5
|  2> ! MP2 def2-TZVP EnGrad TightSCF
|  3> 
|  4> %pal
|  5>     nprocs 6
|  6> end
|  7> 
|  8> %maxcore 8000
|  9> 
| 10> %scf
| 11>     ConvForced true
| 12> end
| 13> 
| 14> *xyz 0 1
| 15> O  -1.776108874  -2.741384797  -1.019308298
| 16> H  -2.520094035  -2.452295987  -0.420778302
| 17> C  -2.174025166  -3.952700964  -1.647004581
| 18> H  -1.359803895  -4.272673416  -2.304149236
| 19> H  -3.075973971  -3.808692420  -2.256751112
| 20> H  -2.370225393  -4.752784761  -0.918966137
| 21> O  -0.662721750   1.449094618  -1.383082065
| 22> H   0.064188300   2.119867608  -1.465650660
| 23> C  -0.353319239   0.341218776  -2.229326771
| 24> H  -1.072358530  -0.454743281  -2.019906495
| 25> H   0.657636746  -0.044472139  -2.042736771
| 26> H  -0.434616607   0.624733901  -3.287793021
| 27> *
| 28> 
| 29>                          ****END OF INPUT****
================================================================================

                     *******************************
                     * Energy+Gradient Calculation *
                     *******************************

---------------------------------
CARTESIAN COORDINATES (ANGSTROEM)
---------------------------------
  O     -1.776109   -2.741385   -1.019308
  H     -2.520094   -2.452296   -0.420778
  C     -2.174025   -3.952701   -1.647005
  H     -1.359804   -4.272673   -2.304149
  H     -3.075974   -3.808692   -2.256751
  H     -2.370225   -4.752785   -0.918966
  O     -0.662722    1.449095   -1.383082
  H      0.064188    2.119868   -1.465651
  C     -0.353319    0.341219   -2.229327
  H     -1.072359   -0.454743   -2.019906
  H      0.657637   -0.044472   -2.042737
  H     -0.434617    0.624734   -3.287793

----------------------------
CARTESIAN COORDINATES (A.U.)
----------------------------
  NO LB      ZA    FRAG     MASS         X           Y           Z
   0 O     8.0000    0    15.999   -3.356359   -5.180466   -1.926214
   1 H     1.0000    0     1.008   -4.762288   -4.634168   -0.795156
   2 C     6.0000    0    12.011   -4.108312   -7.469522   -3.112388
   3 H     1.0000    0     1.008   -2.569657   -8.074183   -4.354211
   4 H     1.0000    0     1.008   -5.812748   -7.197386   -4.264642
   5 H     1.0000    0     1.008   -4.479077   -8.981462   -1.736594
   6 O     8.0000    0    15.999   -1.252363    2.738392   -2.613646
   7 H     1.0000    0     1.008    0.121298    4.005969   -2.769678
   8 C     6.0000    0    12.011   -0.667677    0.644810   -4.212817
   9 H     1.0000    0     1.008   -2.026464   -0.859340   -3.817070
  10 H     1.0000    0     1.008    1.242753   -0.084040   -3.860213
  11 H     1.0000    0     1.008   -0.821306    1.180576   -6.213028

--------------------------------
INTERNAL COORDINATES (ANGSTROEM)
--------------------------------
 O      0   0   0     0.000000000000     0.00000000     0.00000000
 H      1   0   0     0.997659468941     0.00000000     0.00000000
 C      1   2   0     1.421135762539   107.64775557     0.00000000
 H      3   1   2     1.094156179795   107.82879233   180.01581697
 H      3   1   2     1.098198952673   111.31077271    61.21076131
 H      3   1   2     1.099394645811   112.19621244   299.46622341
 O      1   2   3     4.351101006525    87.81704711   152.42356646
 H      7   1   2     0.992548335239   147.69541332   144.06995974
 C      7   1   2     1.428022723045    50.04497788   200.50994768
 H      9   7   1     1.092899789636   107.99441671    19.46078141
 H      9   7   1     1.098000598188   111.79589191   260.16800768
 H      9   7   1     1.098790649094   110.77151416   138.62744864

---------------------------
INTERNAL COORDINATES (A.U.)
---------------------------
 O      0   0   0     0.000000000000     0.00000000     0.00000000
 H      1   0   0     1.885303171211     0.00000000     0.00000000
 C      1   2   0     2.685557390320   107.64775557     0.00000000
 H      3   1   2     2.067655527549   107.82879233   180.01581697
 H      3   1   2     2.075295261111   111.31077271    61.21076131
 H      3   1   2     2.077554793683   112.19621244   299.46622341
 O      1   2   3     8.222389283362    87.81704711   152.42356646
 H      7   1   2     1.875644528280   147.69541332   144.06995974
 C      7   1   2     2.698571859572    50.04497788   200.50994768
 H      9   7   1     2.065281294231   107.99441671    19.46078141
 H      9   7   1     2.074920425457   111.79589191   260.16800768
 H      9   7   1     2.076413405301   110.77151416   138.62744864

---------------------
BASIS SET INFORMATION
---------------------
There are 3 groups of distinct atoms

 Group   1 Type O   : 11s6p2d1f contracted to 5s3p2d1f pattern {62111/411/11/1}
 Group   2 Type H   : 5s1p contracted to 3s1p pattern {311/1}
 Group   3 Type C   : 11s6p2d1f contracted to 5s3p2d1f pattern {62111/411/11/1}

Atom   0O    basis set group =>   1
Atom   1H    basis set group =>   2
Atom   2C    basis set group =>   3
Atom   3H    basis set group =>   2
Atom   4H    basis set group =>   2
Atom   5H    basis set group =>   2
Atom   6O    basis set group =>   1
Atom   7H    basis set group =>   2
Atom   8C    basis set group =>   3
Atom   9H    basis set group =>   2
Atom  10H    basis set group =>   2
Atom  11H    basis set group =>   2


           ************************************************************
           *        Program running with 6 parallel MPI-processes     *
           *              working on a common directory               *
           ************************************************************
------------------------------------------------------------------------------
                           ORCA GTO INTEGRAL CALCULATION
------------------------------------------------------------------------------

                         BASIS SET STATISTICS AND STARTUP INFO

 # of primitive gaussian shells          ...  128
 # of primitive gaussian functions       ...  248
 # of contracted shells                  ...   76
 # of contracted basis functions         ...  172
 Highest angular momentum                ...    3
 Maximum contraction depth               ...    6
 Integral package used                   ... LIBINT
 Integral threshhold            Thresh   ...  2.500e-11
 Primitive cut-off              TCut     ...  2.500e-12


------------------------------ INTEGRAL EVALUATION ----------------------------


 * One electron integrals 
 Pre-screening matrix                    ... done
 Shell pair data                         ... done (   0.001 sec)



           ************************************************************
           *        Program running with 6 parallel MPI-processes     *
           *              working on a common directory               *
           ************************************************************
-------------------------------------------------------------------------------
                                 ORCA SCF
-------------------------------------------------------------------------------

------------
SCF SETTINGS
------------
Hamiltonian:
 Ab initio Hamiltonian  Method          .... Hartree-Fock(GTOs)


General Settings:
 Integral files         IntName         .... 12meoh.boyd.etal.mol0,5-orca.engrad-mp2.def2tzvp.frozencore
 Hartree-Fock type      HFTyp           .... RHF
 Total Charge           Charge          ....    0
 Multiplicity           Mult            ....    1
 Number of Electrons    NEL             ....   36
 Basis Dimension        Dim             ....  172
 Nuclear Repulsion      ENuc            ....    118.0791954705 Eh

Convergence Acceleration:
 DIIS                   CNVDIIS         .... on
   Start iteration      DIISMaxIt       ....    12
   Startup error        DIISStart       ....  0.200000
   # of expansion vecs  DIISMaxEq       ....     5
   Bias factor          DIISBfac        ....   1.050
   Max. coefficient     DIISMaxC        ....  10.000
 Newton-Raphson         CNVNR           .... off
 SOSCF                  CNVSOSCF        .... on
   Start iteration      SOSCFMaxIt      ....   150
   Startup grad/error   SOSCFStart      ....  0.003300
 Level Shifting         CNVShift        .... on
   Level shift para.    LevelShift      ....    0.2500
   Turn off err/grad.   ShiftErr        ....    0.0010
 Zerner damping         CNVZerner       .... off
 Static damping         CNVDamp         .... on
   Fraction old density DampFac         ....    0.7000
   Max. Damping (<1)    DampMax         ....    0.9800
   Min. Damping (>=0)   DampMin         ....    0.0000
   Turn off err/grad.   DampErr         ....    0.1000
 Fernandez-Rico         CNVRico         .... off

SCF Procedure:
 Maximum # iterations   MaxIter         ....   125
 SCF integral mode      SCFMode         .... Direct
   Integral package                     .... LIBINT
 Reset frequency        DirectResetFreq ....    20
 Integral Threshold     Thresh          ....  2.500e-11 Eh
 Primitive CutOff       TCut            ....  2.500e-12 Eh

Convergence Tolerance:
 Convergence Check Mode ConvCheckMode   .... Total+1el-Energy
 Convergence forced     ConvForced      .... 1
 Energy Change          TolE            ....  1.000e-08 Eh
 1-El. energy change                    ....  1.000e-05 Eh
 Orbital Gradient       TolG            ....  1.000e-05
 Orbital Rotation angle TolX            ....  1.000e-05
 DIIS Error             TolErr          ....  5.000e-07


Diagonalization of the overlap matrix:
Smallest eigenvalue                        ... 1.256e-03
Time for diagonalization                   ...    0.005 sec
Threshold for overlap eigenvalues          ... 1.000e-08
Number of eigenvalues below threshold      ... 0
Time for construction of square roots      ...    0.002 sec
Total time needed                          ...    0.007 sec

-------------------
DFT GRID GENERATION
-------------------

General Integration Accuracy     IntAcc      ...  4.340
Radial Grid Type                 RadialGrid  ... Gauss-Chebyshev
Angular Grid (max. acc.)         AngularGrid ... Lebedev-110
Angular grid pruning method      GridPruning ... 3 (G Style)
Weight generation scheme         WeightScheme... Becke
Basis function cutoff            BFCut       ...    1.0000e-11
Integration weight cutoff        WCut        ...    1.0000e-14
Grids for H and He will be reduced by one unit

# of grid points (after initial pruning)     ...  13096 (   0.0 sec)
# of grid points (after weights+screening)   ...  12579 (   0.0 sec)
nearest neighbour list constructed           ...    0.0 sec
Grid point re-assignment to atoms done       ...    0.0 sec
Grid point division into batches done        ...    0.0 sec
Reduced shell lists constructed in    0.0 sec

Total number of grid points                  ...    12579
Total number of batches                      ...      201
Average number of points per batch           ...       62
Average number of grid points per atom       ...     1048
Average number of shells per batch           ...    51.89 (68.27%)
Average number of basis functions per batch  ...   115.31 (67.04%)
Average number of large shells per batch     ...    41.49 (79.96%)
Average number of large basis fcns per batch ...    92.57 (80.28%)
Maximum spatial batch extension              ...  17.18, 14.31, 13.54 au
Average spatial batch extension              ...   0.70,  0.55,  0.58 au

Time for grid setup =    0.030 sec

------------------------------
INITIAL GUESS: MODEL POTENTIAL
------------------------------
Loading Hartree-Fock densities                     ... done
Calculating cut-offs                               ... done
Setting up the integral package                    ... done
Initializing the effective Hamiltonian             ... done
Starting the Coulomb interaction                   ... done (   0.0 sec)
Reading the grid                                   ... done
Mapping shells                                     ... done
Starting the XC term evaluation                    ... done (   0.0 sec)
Transforming the Hamiltonian                       ... done (   0.0 sec)
Diagonalizing the Hamiltonian                      ... done (   0.0 sec)
Back transforming the eigenvectors                 ... done (   0.0 sec)
Now organizing SCF variables                       ... done
                      ------------------
                      INITIAL GUESS DONE (   0.1 sec)
                      ------------------
--------------
SCF ITERATIONS
--------------
ITER       Energy         Delta-E        Max-DP      RMS-DP      [F,P]     Damp
               ***  Starting incremental Fock matrix formation  ***
  0   -229.9414395021   0.000000000000 0.03644407  0.00094719  0.2891312 0.7000
  1   -230.0278655354  -0.086426033364 0.02480091  0.00070336  0.2179475 0.7000
                               ***Turning on DIIS***
  2   -230.0777861284  -0.049920592988 0.01437500  0.00043376  0.1628423 0.7000
  3   -230.6646376976  -0.586851569193 0.00743629  0.00024187  0.1199932 0.7000
  4   -230.5630043845   0.101633313123 0.01583550  0.00057955  0.0845830 0.0000
  5   -230.1996326943   0.363371690204 0.00183591  0.00008020  0.0053559 0.0000
                      *** Initiating the SOSCF procedure ***
                           *** Shutting down DIIS ***
                      *** Re-Reading the Fockian *** 
                      *** Removing any level shift *** 
ITER      Energy       Delta-E        Grad      Rot      Max-DP    RMS-DP
  6   -230.18296942   0.0166632693  0.000573  0.000573  0.000938  0.000042
               *** Restarting incremental Fock matrix formation ***
  7   -230.17936761   0.0036018188  0.000313  0.000384  0.000504  0.000023
  8   -230.17937243  -0.0000048207  0.000141  0.000220  0.000384  0.000017
  9   -230.17937361  -0.0000011801  0.000027  0.000029  0.000076  0.000003
 10   -230.17937364  -0.0000000368  0.000006  0.000012  0.000016  0.000001
                 **** Energy Check signals convergence ****
              ***Rediagonalizing the Fockian in SOSCF/NRSCF***

               *****************************************************
               *                     SUCCESS                       *
               *           SCF CONVERGED AFTER  11 CYCLES          *
               *****************************************************


----------------
TOTAL SCF ENERGY
----------------

Total Energy       :         -230.17937365 Eh           -6263.49919 eV

Components:
Nuclear Repulsion  :          118.07919547 Eh            3213.09826 eV
Electronic Energy  :         -348.25856912 Eh           -9476.59745 eV
One Electron Energy:         -548.96569244 Eh          -14938.11593 eV
Two Electron Energy:          200.70712332 Eh            5461.51848 eV

Virial components:
Potential Energy   :         -459.92715820 Eh          -12515.25424 eV
Kinetic Energy     :          229.74778456 Eh            6251.75505 eV
Virial Ratio       :            2.00187853


---------------
SCF CONVERGENCE
---------------

  Last Energy change         ...   -2.9054e-09  Tolerance :   1.0000e-08
  Last MAX-Density change    ...    4.4880e-06  Tolerance :   1.0000e-07
  Last RMS-Density change    ...    1.7581e-07  Tolerance :   5.0000e-09
  Last Orbital Gradient      ...    1.5882e-06  Tolerance :   1.0000e-05
  Last Orbital Rotation      ...    4.5783e-06  Tolerance :   1.0000e-05

             **** THE GBW FILE WAS UPDATED (12meoh.boyd.etal.mol0,5-orca.engrad-mp2.def2tzvp.frozencore.gbw) ****
             **** DENSITY FILE WAS UPDATED (12meoh.boyd.etal.mol0,5-orca.engrad-mp2.def2tzvp.frozencore.scfp) ****
             **** ENERGY FILE WAS UPDATED (12meoh.boyd.etal.mol0,5-orca.engrad-mp2.def2tzvp.frozencore.en.tmp) ****
             **** THE GBW FILE WAS UPDATED (12meoh.boyd.etal.mol0,5-orca.engrad-mp2.def2tzvp.frozencore.gbw) ****
             **** DENSITY FILE WAS UPDATED (12meoh.boyd.etal.mol0,5-orca.engrad-mp2.def2tzvp.frozencore.scfp) ****
----------------
ORBITAL ENERGIES
----------------

  NO   OCC          E(Eh)            E(eV) 
   0   2.0000     -20.561209      -559.4989 
   1   2.0000     -20.545863      -559.0814 
   2   2.0000     -11.273831      -306.7765 
   3   2.0000     -11.255814      -306.2863 
   4   2.0000      -1.350502       -36.7490 
   5   2.0000      -1.333856       -36.2961 
   6   2.0000      -0.921761       -25.0824 
   7   2.0000      -0.905534       -24.6408 
   8   2.0000      -0.684601       -18.6289 
   9   2.0000      -0.668826       -18.1997 
  10   2.0000      -0.620336       -16.8802 
  11   2.0000      -0.603875       -16.4323 
  12   2.0000      -0.595602       -16.2071 
  13   2.0000      -0.575203       -15.6521 
  14   2.0000      -0.504226       -13.7207 
  15   2.0000      -0.486044       -13.2259 
  16   2.0000      -0.451280       -12.2800 
  17   2.0000      -0.437354       -11.9010 
  18   0.0000       0.131114         3.5678 
  19   0.0000       0.146039         3.9739 
  20   0.0000       0.173549         4.7225 
  21   0.0000       0.191799         5.2191 
  22   0.0000       0.225062         6.1242 
  23   0.0000       0.227653         6.1947 
  24   0.0000       0.241197         6.5633 
  25   0.0000       0.249470         6.7884 
  26   0.0000       0.270607         7.3636 
  27   0.0000       0.280856         7.6425 
  28   0.0000       0.328280         8.9329 
  29   0.0000       0.335506         9.1296 
  30   0.0000       0.358143         9.7456 
  31   0.0000       0.386140        10.5074 
  32   0.0000       0.461494        12.5579 
  33   0.0000       0.489603        13.3228 
  34   0.0000       0.528139        14.3714 
  35   0.0000       0.543750        14.7962 
  36   0.0000       0.579850        15.7785 
  37   0.0000       0.583639        15.8816 
  38   0.0000       0.612537        16.6680 
  39   0.0000       0.623547        16.9676 
  40   0.0000       0.634670        17.2702 
  41   0.0000       0.650425        17.6990 
  42   0.0000       0.662776        18.0351 
  43   0.0000       0.691098        18.8057 
  44   0.0000       0.694690        18.9035 
  45   0.0000       0.722093        19.6491 
  46   0.0000       0.753919        20.5152 
  47   0.0000       0.763018        20.7628 
  48   0.0000       0.766797        20.8656 
  49   0.0000       0.812091        22.0981 
  50   0.0000       0.893043        24.3009 
  51   0.0000       0.912075        24.8188 
  52   0.0000       0.924133        25.1469 
  53   0.0000       0.943080        25.6625 
  54   0.0000       0.943864        25.6838 
  55   0.0000       1.005614        27.3641 
  56   0.0000       1.088836        29.6287 
  57   0.0000       1.114434        30.3253 
  58   0.0000       1.142569        31.0909 
  59   0.0000       1.150000        31.2931 
  60   0.0000       1.247294        33.9406 
  61   0.0000       1.271133        34.5893 
  62   0.0000       1.545266        42.0488 
  63   0.0000       1.557135        42.3718 
  64   0.0000       1.658872        45.1402 
  65   0.0000       1.676062        45.6080 
  66   0.0000       1.702580        46.3296 
  67   0.0000       1.738517        47.3075 
  68   0.0000       1.775037        48.3012 
  69   0.0000       1.789889        48.7054 
  70   0.0000       1.791945        48.7613 
  71   0.0000       1.796527        48.8860 
  72   0.0000       1.809629        49.2425 
  73   0.0000       1.812155        49.3112 
  74   0.0000       1.848009        50.2869 
  75   0.0000       1.872494        50.9531 
  76   0.0000       1.875269        51.0287 
  77   0.0000       1.885164        51.2979 
  78   0.0000       1.970312        53.6149 
  79   0.0000       1.984330        53.9964 
  80   0.0000       2.158248        58.7289 
  81   0.0000       2.166475        58.9528 
  82   0.0000       2.216703        60.3196 
  83   0.0000       2.220626        60.4263 
  84   0.0000       2.244816        61.0845 
  85   0.0000       2.267189        61.6934 
  86   0.0000       2.302608        62.6572 
  87   0.0000       2.308959        62.8300 
  88   0.0000       2.319063        63.1049 
  89   0.0000       2.345880        63.8346 
  90   0.0000       2.440042        66.3969 
  91   0.0000       2.466368        67.1133 
  92   0.0000       2.548410        69.3458 
  93   0.0000       2.558155        69.6109 
  94   0.0000       2.561016        69.6888 
  95   0.0000       2.584088        70.3166 
  96   0.0000       2.597926        70.6932 
  97   0.0000       2.616144        71.1889 
  98   0.0000       2.631847        71.6162 
  99   0.0000       2.669191        72.6324 
 100   0.0000       2.711123        73.7734 
 101   0.0000       2.732397        74.3523 
 102   0.0000       2.781795        75.6965 
 103   0.0000       2.799799        76.1864 
 104   0.0000       2.837317        77.2073 
 105   0.0000       2.860034        77.8255 
 106   0.0000       2.898674        78.8769 
 107   0.0000       2.930533        79.7439 
 108   0.0000       3.050120        82.9980 
 109   0.0000       3.073251        83.6274 
 110   0.0000       3.113771        84.7300 
 111   0.0000       3.123466        84.9938 
 112   0.0000       3.138126        85.3928 
 113   0.0000       3.167862        86.2019 
 114   0.0000       3.259517        88.6960 
 115   0.0000       3.268614        88.9435 
 116   0.0000       3.370006        91.7025 
 117   0.0000       3.389833        92.2420 
 118   0.0000       3.428006        93.2808 
 119   0.0000       3.439767        93.6008 
 120   0.0000       3.538997        96.3010 
 121   0.0000       3.562578        96.9427 
 122   0.0000       3.635031        98.9142 
 123   0.0000       3.663527        99.6896 
 124   0.0000       3.673865        99.9710 
 125   0.0000       3.685509       100.2878 
 126   0.0000       3.724667       101.3533 
 127   0.0000       3.741408       101.8089 
 128   0.0000       3.864707       105.1640 
 129   0.0000       3.876650       105.4890 
 130   0.0000       3.889316       105.8337 
 131   0.0000       3.900484       106.1376 
 132   0.0000       3.906394       106.2984 
 133   0.0000       3.940137       107.2166 
 134   0.0000       4.248219       115.5999 
 135   0.0000       4.264522       116.0436 
 136   0.0000       4.501111       122.4815 
 137   0.0000       4.514167       122.8367 
 138   0.0000       4.535442       123.4157 
 139   0.0000       4.568352       124.3112 
 140   0.0000       4.711132       128.1964 
 141   0.0000       4.734902       128.8432 
 142   0.0000       4.874709       132.6476 
 143   0.0000       4.887294       132.9900 
 144   0.0000       5.695522       154.9830 
 145   0.0000       5.701631       155.1493 
 146   0.0000       5.769203       156.9880 
 147   0.0000       5.775334       157.1548 
 148   0.0000       5.873631       159.8296 
 149   0.0000       5.892364       160.3394 
 150   0.0000       6.161666       167.6675 
 151   0.0000       6.173024       167.9765 
 152   0.0000       6.177094       168.0873 
 153   0.0000       6.179894       168.1635 
 154   0.0000       6.324557       172.0999 
 155   0.0000       6.326837       172.1620 
 156   0.0000       6.650886       180.9798 
 157   0.0000       6.678378       181.7279 
 158   0.0000       6.946115       189.0134 
 159   0.0000       6.959317       189.3727 
 160   0.0000       7.158530       194.7935 
 161   0.0000       7.163329       194.9241 
 162   0.0000       7.218997       196.4389 
 163   0.0000       7.228268       196.6912 
 164   0.0000       7.461561       203.0394 
 165   0.0000       7.475667       203.4232 
 166   0.0000       7.596993       206.7247 
 167   0.0000       7.606377       206.9801 
 168   0.0000      23.368884       635.8997 
 169   0.0000      23.370734       635.9500 
 170   0.0000      45.161212      1228.8991 
 171   0.0000      45.173977      1229.2464 

                    ********************************
                    * MULLIKEN POPULATION ANALYSIS *
                    ********************************

-----------------------
MULLIKEN ATOMIC CHARGES
-----------------------
   0 O :   -0.544456
   1 H :    0.335291
   2 C :   -0.075645
   3 H :    0.108164
   4 H :    0.092776
   5 H :    0.092652
   6 O :   -0.553912
   7 H :    0.326087
   8 C :   -0.076774
   9 H :    0.130342
  10 H :    0.085644
  11 H :    0.079831
Sum of atomic charges:   -0.0000000

--------------------------------
MULLIKEN REDUCED ORBITAL CHARGES
--------------------------------
  0 O s       :     3.809062  s :     3.809062
      pz      :     1.633543  p :     4.700954
      px      :     1.582191
      py      :     1.485219
      dz2     :     0.002609  d :     0.032716
      dxz     :     0.009537
      dyz     :     0.004622
      dx2y2   :     0.008375
      dxy     :     0.007572
      f0      :     0.000293  f :     0.001725
      f+1     :     0.000125
      f-1     :     0.000212
      f+2     :     0.000473
      f-2     :     0.000321
      f+3     :     0.000153
      f-3     :     0.000148
  1 H s       :     0.622272  s :     0.622272
      pz      :     0.015888  p :     0.042437
      px      :     0.015003
      py      :     0.011546
  2 C s       :     3.192798  s :     3.192798
      pz      :     0.966724  p :     2.758437
      px      :     1.025354
      py      :     0.766359
      dz2     :     0.013059  d :     0.115453
      dxz     :     0.026201
      dyz     :     0.029329
      dx2y2   :     0.025749
      dxy     :     0.021114
      f0      :     0.000502  f :     0.008957
      f+1     :     0.000225
      f-1     :     0.002006
      f+2     :     0.002338
      f-2     :     0.001507
      f+3     :     0.001118
      f-3     :     0.001260
  3 H s       :     0.870678  s :     0.870678
      pz      :     0.007718  p :     0.021157
      px      :     0.009686
      py      :     0.003753
  4 H s       :     0.887082  s :     0.887082
      pz      :     0.006902  p :     0.020142
      px      :     0.010793
      py      :     0.002447
  5 H s       :     0.887234  s :     0.887234
      pz      :     0.007585  p :     0.020114
      px      :     0.003650
      py      :     0.008879
  6 O s       :     3.802844  s :     3.802844
      pz      :     1.735926  p :     4.717289
      px      :     1.611030
      py      :     1.370334
      dz2     :     0.005420  d :     0.032057
      dxz     :     0.003694
      dyz     :     0.007526
      dx2y2   :     0.003418
      dxy     :     0.012000
      f0      :     0.000199  f :     0.001722
      f+1     :     0.000163
      f-1     :     0.000324
      f+2     :     0.000275
      f-2     :     0.000191
      f+3     :     0.000218
      f-3     :     0.000352
  7 H s       :     0.630920  s :     0.630920
      pz      :     0.012233  p :     0.042993
      px      :     0.015438
      py      :     0.015322
  8 C s       :     3.192902  s :     3.192902
      pz      :     0.891811  p :     2.761608
      px      :     1.046617
      py      :     0.823180
      dz2     :     0.038329  d :     0.113416
      dxz     :     0.006700
      dyz     :     0.018097
      dx2y2   :     0.017381
      dxy     :     0.032910
      f0      :     0.001285  f :     0.008847
      f+1     :     0.000398
      f-1     :     0.002520
      f+2     :     0.001020
      f-2     :     0.001274
      f+3     :     0.001208
      f-3     :     0.001143
  9 H s       :     0.847797  s :     0.847797
      pz      :     0.003414  p :     0.021861
      px      :     0.008343
      py      :     0.010104
 10 H s       :     0.894202  s :     0.894202
      pz      :     0.003168  p :     0.020154
      px      :     0.012717
      py      :     0.004269
 11 H s       :     0.900122  s :     0.900122
      pz      :     0.013560  p :     0.020047
      px      :     0.003475
      py      :     0.003012


                     *******************************
                     * LOEWDIN POPULATION ANALYSIS *
                     *******************************

----------------------
LOEWDIN ATOMIC CHARGES
----------------------
   0 O :   -0.124477
   1 H :    0.194115
   2 C :   -0.338793
   3 H :    0.101248
   4 H :    0.088230
   5 H :    0.089416
   6 O :   -0.137280
   7 H :    0.185281
   8 C :   -0.334144
   9 H :    0.103902
  10 H :    0.088006
  11 H :    0.084496

-------------------------------
LOEWDIN REDUCED ORBITAL CHARGES
-------------------------------
  0 O s       :     3.395118  s :     3.395118
      pz      :     1.578880  p :     4.656422
      px      :     1.569918
      py      :     1.507623
      dz2     :     0.006991  d :     0.068803
      dxz     :     0.016242
      dyz     :     0.014162
      dx2y2   :     0.015020
      dxy     :     0.016388
      f0      :     0.000464  f :     0.004134
      f+1     :     0.000225
      f-1     :     0.000626
      f+2     :     0.000953
      f-2     :     0.000590
      f+3     :     0.000610
      f-3     :     0.000665
  1 H s       :     0.663065  s :     0.663065
      pz      :     0.050147  p :     0.142820
      px      :     0.061532
      py      :     0.031142
  2 C s       :     2.861348  s :     2.861348
      pz      :     1.029046  p :     2.993664
      px      :     1.075498
      py      :     0.889120
      dz2     :     0.041995  d :     0.425970
      dxz     :     0.092476
      dyz     :     0.112196
      dx2y2   :     0.102996
      dxy     :     0.076307
      f0      :     0.006046  f :     0.057810
      f+1     :     0.002267
      f-1     :     0.014285
      f+2     :     0.007674
      f-2     :     0.007640
      f+3     :     0.010025
      f-3     :     0.009874
  3 H s       :     0.840091  s :     0.840091
      pz      :     0.021011  p :     0.058661
      px      :     0.026779
      py      :     0.010871
  4 H s       :     0.853172  s :     0.853172
      pz      :     0.020230  p :     0.058598
      px      :     0.029514
      py      :     0.008853
  5 H s       :     0.852120  s :     0.852120
      pz      :     0.021969  p :     0.058465
      px      :     0.012618
      py      :     0.023878
  6 O s       :     3.395639  s :     3.395639
      pz      :     1.699035  p :     4.669567
      px      :     1.588128
      py      :     1.382404
      dz2     :     0.013766  d :     0.068016
      dxz     :     0.005533
      dyz     :     0.014991
      dx2y2   :     0.008686
      dxy     :     0.025040
      f0      :     0.000349  f :     0.004058
      f+1     :     0.000356
      f-1     :     0.000809
      f+2     :     0.000611
      f-2     :     0.000611
      f+3     :     0.000433
      f-3     :     0.000889
  7 H s       :     0.669529  s :     0.669529
      pz      :     0.035900  p :     0.145191
      px      :     0.061620
      py      :     0.047671
  8 C s       :     2.863227  s :     2.863227
      pz      :     0.987193  p :     2.996492
      px      :     1.087411
      py      :     0.921888
      dz2     :     0.139751  d :     0.417747
      dxz     :     0.024838
      dyz     :     0.083470
      dx2y2   :     0.058160
      dxy     :     0.111528
      f0      :     0.004820  f :     0.056678
      f+1     :     0.003187
      f-1     :     0.015075
      f+2     :     0.010027
      f-2     :     0.010626
      f+3     :     0.007169
      f-3     :     0.005775
  9 H s       :     0.834498  s :     0.834498
      pz      :     0.011362  p :     0.061600
      px      :     0.024350
      py      :     0.025888
 10 H s       :     0.853409  s :     0.853409
      pz      :     0.011003  p :     0.058584
      px      :     0.033963
      py      :     0.013618
 11 H s       :     0.857320  s :     0.857320
      pz      :     0.035155  p :     0.058184
      px      :     0.012314
      py      :     0.010716


                      *****************************
                      * MAYER POPULATION ANALYSIS *
                      *****************************

  NA   - Mulliken gross atomic population
  ZA   - Total nuclear charge
  QA   - Mulliken gross atomic charge
  VA   - Mayer's total valence
  BVA  - Mayer's bonded valence
  FA   - Mayer's free valence

  ATOM       NA         ZA         QA         VA         BVA        FA
  0 O      8.5445     8.0000    -0.5445     1.7960     1.7960    -0.0000
  1 H      0.6647     1.0000     0.3353     0.8936     0.8936     0.0000
  2 C      6.0756     6.0000    -0.0756     3.8936     3.8936     0.0000
  3 H      0.8918     1.0000     0.1082     0.9641     0.9641     0.0000
  4 H      0.9072     1.0000     0.0928     0.9618     0.9618     0.0000
  5 H      0.9073     1.0000     0.0927     0.9613     0.9613     0.0000
  6 O      8.5539     8.0000    -0.5539     1.7865     1.7865    -0.0000
  7 H      0.6739     1.0000     0.3261     0.9006     0.9006    -0.0000
  8 C      6.0768     6.0000    -0.0768     3.8819     3.8819     0.0000
  9 H      0.8697     1.0000     0.1303     0.9734     0.9734     0.0000
 10 H      0.9144     1.0000     0.0856     0.9654     0.9654    -0.0000
 11 H      0.9202     1.0000     0.0798     0.9606     0.9606    -0.0000

  Mayer bond orders larger than 0.100000
B(  0-O ,  1-H ) :   0.8826 B(  0-O ,  2-C ) :   0.9281 B(  2-C ,  3-H ) :   0.9848 
B(  2-C ,  4-H ) :   0.9886 B(  2-C ,  5-H ) :   0.9836 B(  6-O ,  7-H ) :   0.8906 
B(  6-O ,  8-C ) :   0.9276 B(  8-C ,  9-H ) :   0.9773 B(  8-C , 10-H ) :   0.9912 
B(  8-C , 11-H ) :   0.9880 

-------
TIMINGS
-------

Total SCF time: 0 days 0 hours 0 min 5 sec 

Total time                  ....       5.491 sec
Sum of individual times     ....       5.280 sec  ( 96.2%)

Fock matrix formation       ....       5.073 sec  ( 92.4%)
Diagonalization             ....       0.030 sec  (  0.5%)
Density matrix formation    ....       0.004 sec  (  0.1%)
Population analysis         ....       0.012 sec  (  0.2%)
Initial guess               ....       0.111 sec  (  2.0%)
Orbital Transformation      ....       0.000 sec  (  0.0%)
Orbital Orthonormalization  ....       0.000 sec  (  0.0%)
DIIS solution               ....       0.010 sec  (  0.2%)
SOSCF solution              ....       0.011 sec  (  0.2%)


           ************************************************************
           *        Program running with 6 parallel MPI-processes     *
           *              working on a common directory               *
           ************************************************************

------------------------------------------------------------------------------
                                ORCA  MP2 
------------------------------------------------------------------------------

Freezing NCore=8 chemical core electrons
MP2 will be done in the AO integral direct mode
The Q1-step will be done using symmetric double matrices
Dimension of the basis                    ...  172
Memory devoted for MP2                    ... 8000 MB   
Memory needed for all in one shot         ...   60 MB
Number of MOs that can be treated together...  408      
MP2 density construction                  ... relaxed
The MP2 gradient is requested => amplitudes will be stored on disk
Total number of MOs              ...   14
Number of MOs treated per batch  ...    3 
Number of batches necessary      ...    1 
OPERATORS   0/  0 PASS   0
-----------------------------------------------
 MP2 CORRELATION ENERGY   :     -0.835708550 Eh
-----------------------------------------------


---------------------
MP2 DENSITY FORMATION
---------------------

Completing the external part of the density      ... done
Storing the unrelaxed density                    ... done

Calculating G(D)                                 ... done
Completing the Lagrangian                        ... done
Solving the Z-vector equations                   ... 

------------------------------------------------------------------------------
                           ORCA CP-SCF CALCULATION
------------------------------------------------------------------------------

Input orbitals are from        ... 12meoh.boyd.etal.mol0,5-orca.engrad-mp2.def2tzvp.frozencore.gbw
Input Perturbation             ... 12meoh.boyd.etal.mol0,5-orca.engrad-mp2.def2tzvp.frozencore.pin.tmp
Wavefunction output            ... 12meoh.boyd.etal.mol0,5-orca.engrad-mp2.def2tzvp.frozencore.pout.tmp
Perturbation mode              ... Real perturbation (singlet)
Solver                         ... POPLE
Max. number of iterations      ... 128
Convergence tolerance          ... 1.000e-08
Integral handling              ... Direct
Number of perturbations        ... 1
Number of operators            ... 1
Orbital ranges used for CP-SCF:
 Operator 0:  Orbitals   0... 17  to  18...171
Variables per vector in CP-SCF ... 2772
Number of vectors sought       ... 1
     CP-SCF ITERATION   0: 
     CP-SCF ITERATION   1:      0.000245034957
     CP-SCF ITERATION   2:      0.000012388218
     CP-SCF ITERATION   3:      0.000002013339
     CP-SCF ITERATION   4:      0.000000105793
     CP-SCF ITERATION   5:      0.000000003257
                                                 ... done
Finalizing the relaxed density                   ... done
Transforming P to the AO basis                   ... done
Storing the relaxed density                      ... done

------------------------------------
ENERGY WEIGHTED DENSITY FINALIZATION
------------------------------------

Gathering the parts of the W-matrix              ...                                                      done
Forming the Z-density                            ... done
Transforming Z to the AO basis                   ... done
Calculating G(Z)                                 ... done
Finalizing the W-matrix                          ...                                                      done
Transforming W to the AO basis and storing       ... done

                *********************************************
                * UNRELAXED MP2 DENSITY POPULATION ANALYSIS *
                *********************************************

------------------------------------------------------------------------------
                           ORCA POPULATION ANALYSIS
------------------------------------------------------------------------------
Input electron density              ... 12meoh.boyd.etal.mol0,5-orca.engrad-mp2.def2tzvp.frozencore.pmp2ur
BaseName (.gbw .S,...)              ... 12meoh.boyd.etal.mol0,5-orca.engrad-mp2.def2tzvp.frozencore

                    ********************************
                    * MULLIKEN POPULATION ANALYSIS *
                    ********************************

-----------------------
MULLIKEN ATOMIC CHARGES
-----------------------
   0 O :   -0.533269
   1 H :    0.332560
   2 C :   -0.091478
   3 H :    0.110946
   4 H :    0.095201
   5 H :    0.095069
   6 O :   -0.542819
   7 H :    0.323426
   8 C :   -0.092585
   9 H :    0.132476
  10 H :    0.088103
  11 H :    0.082371
Sum of atomic charges:   -0.0000000

--------------------------------
MULLIKEN REDUCED ORBITAL CHARGES
--------------------------------
  0 O s       :     3.803923  s :     3.803923
      pz      :     1.621767  p :     4.664878
      px      :     1.570046
      py      :     1.473065
      dz2     :     0.008314  d :     0.060086
      dxz     :     0.014852
      dyz     :     0.010193
      dx2y2   :     0.013753
      dxy     :     0.012974
      f0      :     0.000660  f :     0.004383
      f+1     :     0.000504
      f-1     :     0.000591
      f+2     :     0.000848
      f-2     :     0.000699
      f+3     :     0.000543
      f-3     :     0.000539
  1 H s       :     0.623306  s :     0.623306
      pz      :     0.016403  p :     0.044134
      px      :     0.015437
      py      :     0.012294
  2 C s       :     3.190841  s :     3.190841
      pz      :     0.963906  p :     2.752275
      px      :     1.021070
      py      :     0.767299
      dz2     :     0.018382  d :     0.136073
      dxz     :     0.030196
      dyz     :     0.032420
      dx2y2   :     0.029337
      dxy     :     0.025738
      f0      :     0.000954  f :     0.012289
      f+1     :     0.000765
      f-1     :     0.002489
      f+2     :     0.002739
      f-2     :     0.002010
      f+3     :     0.001590
      f-3     :     0.001741
  3 H s       :     0.864813  s :     0.864813
      pz      :     0.008739  p :     0.024240
      px      :     0.010624
      py      :     0.004878
  4 H s       :     0.881467  s :     0.881467
      pz      :     0.007956  p :     0.023332
      px      :     0.011759
      py      :     0.003618
  5 H s       :     0.881640  s :     0.881640
      pz      :     0.008615  p :     0.023291
      px      :     0.004799
      py      :     0.009877
  6 O s       :     3.797548  s :     3.797548
      pz      :     1.722331  p :     4.681529
      px      :     1.598994
      py      :     1.360205
      dz2     :     0.010982  d :     0.059366
      dxz     :     0.009212
      dyz     :     0.012970
      dx2y2   :     0.008986
      dxy     :     0.017216
      f0      :     0.000576  f :     0.004375
      f+1     :     0.000537
      f-1     :     0.000706
      f+2     :     0.000648
      f-2     :     0.000579
      f+3     :     0.000600
      f-3     :     0.000730
  7 H s       :     0.631847  s :     0.631847
      pz      :     0.013163  p :     0.044728
      px      :     0.015890
      py      :     0.015674
  8 C s       :     3.190940  s :     3.190940
      pz      :     0.890102  p :     2.755304
      px      :     1.041983
      py      :     0.823219
      dz2     :     0.041937  d :     0.134166
      dxz     :     0.011958
      dyz     :     0.021606
      dx2y2   :     0.021710
      dxy     :     0.036956
      f0      :     0.001772  f :     0.012174
      f+1     :     0.000906
      f-1     :     0.002986
      f+2     :     0.001427
      f-2     :     0.001751
      f+3     :     0.001711
      f-3     :     0.001622
  9 H s       :     0.842678  s :     0.842678
      pz      :     0.004509  p :     0.024846
      px      :     0.009303
      py      :     0.011034
 10 H s       :     0.888548  s :     0.888548
      pz      :     0.004327  p :     0.023348
      px      :     0.013639
      py      :     0.005382
 11 H s       :     0.894348  s :     0.894348
      pz      :     0.014469  p :     0.023281
      px      :     0.004640
      py      :     0.004172


                     *******************************
                     * LOEWDIN POPULATION ANALYSIS *
                     *******************************

----------------------
LOEWDIN ATOMIC CHARGES
----------------------
   0 O :   -0.116278
   1 H :    0.192204
   2 C :   -0.349388
   3 H :    0.103014
   4 H :    0.089692
   5 H :    0.090888
   6 O :   -0.129496
   7 H :    0.183439
   8 C :   -0.344922
   9 H :    0.105434
  10 H :    0.089482
  11 H :    0.085932

-------------------------------
LOEWDIN REDUCED ORBITAL CHARGES
-------------------------------
  0 O s       :     3.391648  s :     3.391648
      pz      :     1.567204  p :     4.619981
      px      :     1.557971
      py      :     1.494806
      dz2     :     0.012601  d :     0.097602
      dxz     :     0.022091
      dyz     :     0.020198
      dx2y2   :     0.020776
      dxy     :     0.021935
      f0      :     0.000872  f :     0.007048
      f+1     :     0.000620
      f-1     :     0.001023
      f+2     :     0.001397
      f-2     :     0.001022
      f+3     :     0.001032
      f-3     :     0.001081
  1 H s       :     0.661416  s :     0.661416
      pz      :     0.051313  p :     0.146380
      px      :     0.063046
      py      :     0.032022
  2 C s       :     2.860213  s :     2.860213
      pz      :     1.023843  p :     2.979784
      px      :     1.069235
      py      :     0.886705
      dz2     :     0.046698  d :     0.446697
      dxz     :     0.096964
      dyz     :     0.115682
      dx2y2   :     0.106914
      dxy     :     0.080440
      f0      :     0.006722  f :     0.062694
      f+1     :     0.002906
      f-1     :     0.014760
      f+2     :     0.008717
      f-2     :     0.008431
      f+3     :     0.010699
      f-3     :     0.010459
  3 H s       :     0.833312  s :     0.833312
      pz      :     0.022721  p :     0.063675
      px      :     0.028644
      py      :     0.012310
  4 H s       :     0.846463  s :     0.846463
      pz      :     0.021929  p :     0.063845
      px      :     0.031698
      py      :     0.010218
  5 H s       :     0.845423  s :     0.845423
      pz      :     0.023768  p :     0.063690
      px      :     0.013926
      py      :     0.025996
  6 O s       :     3.392177  s :     3.392177
      pz      :     1.685632  p :     4.633646
      px      :     1.576335
      py      :     1.371679
      dz2     :     0.019416  d :     0.096712
      dxz     :     0.011124
      dyz     :     0.021125
      dx2y2   :     0.014252
      dxy     :     0.030795
      f0      :     0.000752  f :     0.006962
      f+1     :     0.000749
      f-1     :     0.001234
      f+2     :     0.001029
      f-2     :     0.001027
      f+3     :     0.000856
      f-3     :     0.001314
  7 H s       :     0.667760  s :     0.667760
      pz      :     0.036787  p :     0.148801
      px      :     0.063127
      py      :     0.048888
  8 C s       :     2.862095  s :     2.862095
      pz      :     0.982837  p :     2.982642
      px      :     1.080947
      py      :     0.918857
      dz2     :     0.143301  d :     0.438632
      dxz     :     0.029796
      dyz     :     0.087512
      dx2y2   :     0.062444
      dxy     :     0.115578
      f0      :     0.005696  f :     0.061553
      f+1     :     0.003843
      f-1     :     0.015719
      f+2     :     0.010658
      f-2     :     0.011205
      f+3     :     0.007895
      f-3     :     0.006537
  9 H s       :     0.828088  s :     0.828088
      pz      :     0.012642  p :     0.066478
      px      :     0.026036
      py      :     0.027800
 10 H s       :     0.846680  s :     0.846680
      pz      :     0.012324  p :     0.063839
      px      :     0.036374
      py      :     0.015141
 11 H s       :     0.850580  s :     0.850580
      pz      :     0.037790  p :     0.063489
      px      :     0.013575
      py      :     0.012124


                      *****************************
                      * MAYER POPULATION ANALYSIS *
                      *****************************

  NA   - Mulliken gross atomic population
  ZA   - Total nuclear charge
  QA   - Mulliken gross atomic charge
  VA   - Mayer's total valence
  BVA  - Mayer's bonded valence
  FA   - Mayer's free valence

  ATOM       NA         ZA         QA         VA         BVA        FA
  0 O      8.5333     8.0000    -0.5333     2.0950     1.6892     0.4059
  1 H      0.6674     1.0000     0.3326     0.9000     0.8472     0.0528
  2 C      6.0915     6.0000    -0.0915     3.9983     3.7198     0.2786
  3 H      0.8891     1.0000     0.1109     0.9730     0.9260     0.0470
  4 H      0.9048     1.0000     0.0952     0.9717     0.9226     0.0491
  5 H      0.9049     1.0000     0.0951     0.9711     0.9220     0.0492
  6 O      8.5428     8.0000    -0.5428     2.0870     1.6810     0.4059
  7 H      0.6766     1.0000     0.3234     0.9071     0.8540     0.0531
  8 C      6.0926     6.0000    -0.0926     3.9875     3.7091     0.2784
  9 H      0.8675     1.0000     0.1325     0.9822     0.9353     0.0469
 10 H      0.9119     1.0000     0.0881     0.9755     0.9261     0.0494
 11 H      0.9176     1.0000     0.0824     0.9709     0.9211     0.0497

  Mayer bond orders larger than 0.100000
B(  0-O ,  1-H ) :   0.8371 B(  0-O ,  2-C ) :   0.8689 B(  2-C ,  3-H ) :   0.9473 
B(  2-C ,  4-H ) :   0.9503 B(  2-C ,  5-H ) :   0.9454 B(  6-O ,  7-H ) :   0.8450 
B(  6-O ,  8-C ) :   0.8692 B(  8-C ,  9-H ) :   0.9402 B(  8-C , 10-H ) :   0.9528 
B(  8-C , 11-H ) :   0.9495 


                *******************************************
                * RELAXED MP2 DENSITY POPULATION ANALYSIS *
                *******************************************

------------------------------------------------------------------------------
                           ORCA POPULATION ANALYSIS
------------------------------------------------------------------------------
Input electron density              ... 12meoh.boyd.etal.mol0,5-orca.engrad-mp2.def2tzvp.frozencore.pmp2re
BaseName (.gbw .S,...)              ... 12meoh.boyd.etal.mol0,5-orca.engrad-mp2.def2tzvp.frozencore

                    ********************************
                    * MULLIKEN POPULATION ANALYSIS *
                    ********************************

-----------------------
MULLIKEN ATOMIC CHARGES
-----------------------
   0 O :   -0.492286
   1 H :    0.327399
   2 C :   -0.173833
   3 H :    0.129183
   4 H :    0.111537
   5 H :    0.111018
   6 O :   -0.505114
   7 H :    0.318342
   8 C :   -0.173956
   9 H :    0.144472
  10 H :    0.104614
  11 H :    0.098625
Sum of atomic charges:   -0.0000000

--------------------------------
MULLIKEN REDUCED ORBITAL CHARGES
--------------------------------
  0 O s       :     3.807461  s :     3.807461
      pz      :     1.610623  p :     4.622560
      px      :     1.552234
      py      :     1.459703
      dz2     :     0.008398  d :     0.057940
      dxz     :     0.013992
      dyz     :     0.009882
      dx2y2   :     0.013018
      dxy     :     0.012649
      f0      :     0.000645  f :     0.004326
      f+1     :     0.000501
      f-1     :     0.000599
      f+2     :     0.000827
      f-2     :     0.000688
      f+3     :     0.000531
      f-3     :     0.000535
  1 H s       :     0.627810  s :     0.627810
      pz      :     0.016655  p :     0.044791
      px      :     0.015300
      py      :     0.012837
  2 C s       :     3.212349  s :     3.212349
      pz      :     0.989029  p :     2.823099
      px      :     1.048318
      py      :     0.785752
      dz2     :     0.020508  d :     0.126659
      dxz     :     0.025613
      dyz     :     0.028152
      dx2y2   :     0.025596
      dxy     :     0.026790
      f0      :     0.000907  f :     0.011726
      f+1     :     0.000739
      f-1     :     0.002361
      f+2     :     0.002562
      f-2     :     0.001956
      f+3     :     0.001555
      f-3     :     0.001647
  3 H s       :     0.847724  s :     0.847724
      pz      :     0.008307  p :     0.023093
      px      :     0.009865
      py      :     0.004921
  4 H s       :     0.866235  s :     0.866235
      pz      :     0.007579  p :     0.022228
      px      :     0.010783
      py      :     0.003865
  5 H s       :     0.866815  s :     0.866815
      pz      :     0.008106  p :     0.022167
      px      :     0.004988
      py      :     0.009074
  6 O s       :     3.798956  s :     3.798956
      pz      :     1.709463  p :     4.644531
      px      :     1.582668
      py      :     1.352400
      dz2     :     0.011007  d :     0.057305
      dxz     :     0.009285
      dyz     :     0.012034
      dx2y2   :     0.008836
      dxy     :     0.016143
      f0      :     0.000573  f :     0.004321
      f+1     :     0.000530
      f-1     :     0.000703
      f+2     :     0.000634
      f-2     :     0.000574
      f+3     :     0.000591
      f-3     :     0.000716
  7 H s       :     0.636338  s :     0.636338
      pz      :     0.014124  p :     0.045320
      px      :     0.015817
      py      :     0.015379
  8 C s       :     3.213361  s :     3.213361
      pz      :     0.915030  p :     2.824788
      px      :     1.068473
      py      :     0.841285
      dz2     :     0.037572  d :     0.124210
      dxz     :     0.013021
      dyz     :     0.019675
      dx2y2   :     0.019766
      dxy     :     0.034175
      f0      :     0.001688  f :     0.011597
      f+1     :     0.000867
      f-1     :     0.002846
      f+2     :     0.001336
      f-2     :     0.001712
      f+3     :     0.001631
      f-3     :     0.001518
  9 H s       :     0.831737  s :     0.831737
      pz      :     0.004675  p :     0.023791
      px      :     0.008824
      py      :     0.010292
 10 H s       :     0.873146  s :     0.873146
      pz      :     0.004550  p :     0.022240
      px      :     0.012366
      py      :     0.005324
 11 H s       :     0.879146  s :     0.879146
      pz      :     0.013026  p :     0.022229
      px      :     0.004877
      py      :     0.004326


                     *******************************
                     * LOEWDIN POPULATION ANALYSIS *
                     *******************************

----------------------
LOEWDIN ATOMIC CHARGES
----------------------
   0 O :   -0.101902
   1 H :    0.194943
   2 C :   -0.384001
   3 H :    0.110408
   4 H :    0.095862
   5 H :    0.097013
   6 O :   -0.116373
   7 H :    0.186207
   8 C :   -0.380424
   9 H :    0.110393
  10 H :    0.095752
  11 H :    0.092120

-------------------------------
LOEWDIN REDUCED ORBITAL CHARGES
-------------------------------
  0 O s       :     3.394774  s :     3.394774
      pz      :     1.562878  p :     4.602830
      px      :     1.551657
      py      :     1.488295
      dz2     :     0.012921  d :     0.097141
      dxz     :     0.021621
      dyz     :     0.020138
      dx2y2   :     0.020496
      dxy     :     0.021965
      f0      :     0.000880  f :     0.007157
      f+1     :     0.000625
      f-1     :     0.001048
      f+2     :     0.001420
      f-2     :     0.001039
      f+3     :     0.001042
      f-3     :     0.001103
  1 H s       :     0.658132  s :     0.658132
      pz      :     0.051397  p :     0.146925
      px      :     0.063350
      py      :     0.032177
  2 C s       :     2.866146  s :     2.866146
      pz      :     1.038407  p :     3.019671
      px      :     1.084216
      py      :     0.897047
      dz2     :     0.047423  d :     0.437054
      dxz     :     0.093858
      dyz     :     0.111040
      dx2y2   :     0.104595
      dxy     :     0.080138
      f0      :     0.006690  f :     0.061131
      f+1     :     0.002826
      f-1     :     0.014356
      f+2     :     0.008396
      f-2     :     0.008148
      f+3     :     0.010592
      f-3     :     0.010123
  3 H s       :     0.825535  s :     0.825535
      pz      :     0.022840  p :     0.064057
      px      :     0.028508
      py      :     0.012708
  4 H s       :     0.839515  s :     0.839515
      pz      :     0.022205  p :     0.064623
      px      :     0.031636
      py      :     0.010782
  5 H s       :     0.838543  s :     0.838543
      pz      :     0.023820  p :     0.064444
      px      :     0.014388
      py      :     0.026236
  6 O s       :     3.395114  s :     3.395114
      pz      :     1.676045  p :     4.617934
      px      :     1.570528
      py      :     1.371361
      dz2     :     0.019589  d :     0.096252
      dxz     :     0.011396
      dyz     :     0.020720
      dx2y2   :     0.014291
      dxy     :     0.030256
      f0      :     0.000761  f :     0.007073
      f+1     :     0.000755
      f-1     :     0.001263
      f+2     :     0.001054
      f-2     :     0.001040
      f+3     :     0.000872
      f-3     :     0.001328
  7 H s       :     0.664313  s :     0.664313
      pz      :     0.037690  p :     0.149480
      px      :     0.063461
      py      :     0.048330
  8 C s       :     2.868288  s :     2.868288
      pz      :     0.996923  p :     3.023204
      px      :     1.096000
      py      :     0.930282
      dz2     :     0.142316  d :     0.428900
      dxz     :     0.029501
      dyz     :     0.084087
      dx2y2   :     0.059209
      dxy     :     0.113787
      f0      :     0.005428  f :     0.060032
      f+1     :     0.003773
      f-1     :     0.015236
      f+2     :     0.010489
      f-2     :     0.011079
      f+3     :     0.007678
      f-3     :     0.006349
  9 H s       :     0.822801  s :     0.822801
      pz      :     0.013076  p :     0.066805
      px      :     0.026009
      py      :     0.027721
 10 H s       :     0.839629  s :     0.839629
      pz      :     0.012809  p :     0.064618
      px      :     0.036142
      py      :     0.015668
 11 H s       :     0.843549  s :     0.843549
      pz      :     0.037660  p :     0.064330
      px      :     0.014044
      py      :     0.012626


                      *****************************
                      * MAYER POPULATION ANALYSIS *
                      *****************************

  NA   - Mulliken gross atomic population
  ZA   - Total nuclear charge
  QA   - Mulliken gross atomic charge
  VA   - Mayer's total valence
  BVA  - Mayer's bonded valence
  FA   - Mayer's free valence

  ATOM       NA         ZA         QA         VA         BVA        FA
  0 O      8.4923     8.0000    -0.4923     2.1562     1.7574     0.3988
  1 H      0.6726     1.0000     0.3274     0.9025     0.8495     0.0530
  2 C      6.1738     6.0000    -0.1738     4.0173     3.7410     0.2763
  3 H      0.8708     1.0000     0.1292     0.9651     0.9186     0.0464
  4 H      0.8885     1.0000     0.1115     0.9647     0.9162     0.0485
  5 H      0.8890     1.0000     0.1110     0.9637     0.9152     0.0485
  6 O      8.5051     8.0000    -0.5051     2.1412     1.7418     0.3994
  7 H      0.6817     1.0000     0.3183     0.9093     0.8560     0.0532
  8 C      6.1740     6.0000    -0.1740     4.0049     3.7286     0.2762
  9 H      0.8555     1.0000     0.1445     0.9847     0.9387     0.0460
 10 H      0.8954     1.0000     0.1046     0.9690     0.9202     0.0488
 11 H      0.9014     1.0000     0.0986     0.9628     0.9137     0.0491

  Mayer bond orders larger than 0.100000
B(  0-O ,  1-H ) :   0.8369 B(  0-O ,  2-C ) :   0.9178 B(  2-C ,  3-H ) :   0.9393 
B(  2-C ,  4-H ) :   0.9399 B(  2-C ,  5-H ) :   0.9340 B(  6-O ,  7-H ) :   0.8449 
B(  6-O ,  8-C ) :   0.9221 B(  8-C ,  9-H ) :   0.9303 B(  8-C , 10-H ) :   0.9431 
B(  8-C , 11-H ) :   0.9379 


----------------------------------
MP2 DERIVATIVE INTEGRAL GENERATION
----------------------------------


Input Wavefunction Amplitudes       ... 12meoh.boyd.etal.mol0,5-orca.engrad-mp2.def2tzvp.frozencore.mp2tsaa.tmp
Input Correlated Electron Density   ... 12meoh.boyd.etal.mol0,5-orca.engrad-mp2.def2tzvp.frozencore.pmp2re
Input Energy Weighted Density       ... 12meoh.boyd.etal.mol0,5-orca.engrad-mp2.def2tzvp.frozencore.wmp2.tmp
Input SCF Electron Density          ... 12meoh.boyd.etal.mol0,5-orca.engrad-mp2.def2tzvp.frozencore.scfp

One-Electron Terms    ...
                        ... One-Electron Terms done
Prescreening matrices              ... done

Batch handling in the gradient evaluation:
Memory available                      ... 8000.0 MB
Memory per occupied orbital in Q2     ...    3.2 MB
Memory per occupied orbital in Q3     ...    0.1 MB
Total memory requirement per |i>      ...    3.2 MB
Max. Number of orbitals possible      ...   2481
Number of orbitals treated per batch  ...     14
Number of batches to be done          ...      1
Batch   0: i=    4 ...    17

---------------------------------------
MP2 TOTAL ENERGY:     -231.015082197 Eh
---------------------------------------

The final MP2 gradient
  0:   0.01983448  -0.00812082  -0.01730004
  1:  -0.02248575   0.00928373   0.01835473
  2:   0.00469758   0.00273861   0.00098893
  3:   0.00214531  -0.00279257  -0.00340715
  4:  -0.00260680   0.00139374  -0.00080894
  5:  -0.00149551  -0.00264725   0.00229726
  6:  -0.01708743  -0.01459675   0.00027782
  7:   0.01914178   0.01965115  -0.00025201
  8:  -0.00216159  -0.00301037   0.00274364
  9:  -0.00272091  -0.00372433  -0.00084145
 10:   0.00340909  -0.00022107   0.00030328
 11:  -0.00067026   0.00204592  -0.00235607

-----------------------------------
NORM OF THE MP2 GRADIENT:  0.055577
-----------------------------------

-------------------------   --------------------
FINAL SINGLE POINT ENERGY      -231.015082196741
-------------------------   --------------------


                            ***************************************
                            *     ORCA property calculations      *
                            ***************************************

                                    ---------------------
                                    Active property flags
                                    ---------------------
   (+) Dipole Moment


------------------------------------------------------------------------------
                       ORCA ELECTRIC PROPERTIES CALCULATION
------------------------------------------------------------------------------

Dipole Moment Calculation                       ... on
Quadrupole Moment Calculation                   ... off
Polarizability Calculation                      ... off
GBWName                                         ... 12meoh.boyd.etal.mol0,5-orca.engrad-mp2.def2tzvp.frozencore.gbw
Electron density file                           ... 12meoh.boyd.etal.mol0,5-orca.engrad-mp2.def2tzvp.frozencore.scfp
The origin for moment calculation is the CENTER OF MASS  = (-2.346291, -2.276443 -2.943782)

-------------
DIPOLE MOMENT
-------------
                                X             Y             Z
Electronic contribution:      0.08569       2.67547       1.82850
Nuclear contribution   :     -0.16673      -3.17697      -2.10455
                        -----------------------------------------
Total Dipole Moment    :     -0.08105      -0.50149      -0.27604
                        -----------------------------------------
Magnitude (a.u.)       :      0.57816
Magnitude (Debye)      :      1.46956



--------------------
Rotational spectrum 
--------------------
 
Rotational constants in cm-1:     0.740372     0.047137     0.045366 
Rotational constants in MHz : 22195.784527  1413.137795  1360.033014 

 Dipole components along the rotational axes: 
x,y,z [a.u.] :     0.482336     0.312026    -0.065244 
x,y,z [Debye]:     1.226001     0.793107    -0.165837 

 

                         *** MP2 UNRELAXED DENSITY ***

------------------------------------------------------------------------------
                       ORCA ELECTRIC PROPERTIES CALCULATION
------------------------------------------------------------------------------

Dipole Moment Calculation                       ... on
Quadrupole Moment Calculation                   ... off
Polarizability Calculation                      ... off
GBWName                                         ... 12meoh.boyd.etal.mol0,5-orca.engrad-mp2.def2tzvp.frozencore.gbw
Electron density file                           ... 12meoh.boyd.etal.mol0,5-orca.engrad-mp2.def2tzvp.frozencore.pmp2ur
The origin for moment calculation is the CENTER OF MASS  = (-2.346291, -2.276443 -2.943782)

-------------
DIPOLE MOMENT
-------------
                                X             Y             Z
Electronic contribution:      0.08685       2.68897       1.83902
Nuclear contribution   :     -0.16673      -3.17697      -2.10455
                        -----------------------------------------
Total Dipole Moment    :     -0.07988      -0.48800      -0.26552
                        -----------------------------------------
Magnitude (a.u.)       :      0.56127
Magnitude (Debye)      :      1.42664



--------------------
Rotational spectrum 
--------------------
 
Rotational constants in cm-1:     0.740372     0.047137     0.045366 
Rotational constants in MHz : 22195.784527  1413.137795  1360.033014 

 Dipole components along the rotational axes: 
x,y,z [a.u.] :     0.469877     0.300461    -0.062955 
x,y,z [Debye]:     1.194331     0.763712    -0.160018 

 

                           *** MP2 RELAXED DENSITY ***

------------------------------------------------------------------------------
                       ORCA ELECTRIC PROPERTIES CALCULATION
------------------------------------------------------------------------------

Dipole Moment Calculation                       ... on
Quadrupole Moment Calculation                   ... off
Polarizability Calculation                      ... off
GBWName                                         ... 12meoh.boyd.etal.mol0,5-orca.engrad-mp2.def2tzvp.frozencore.gbw
Electron density file                           ... 12meoh.boyd.etal.mol0,5-orca.engrad-mp2.def2tzvp.frozencore.pmp2re
The origin for moment calculation is the CENTER OF MASS  = (-2.346291, -2.276443 -2.943782)

-------------
DIPOLE MOMENT
-------------
                                X             Y             Z
Electronic contribution:      0.08908       2.71216       1.85868
Nuclear contribution   :     -0.16673      -3.17697      -2.10455
                        -----------------------------------------
Total Dipole Moment    :     -0.07766      -0.46481      -0.24586
                        -----------------------------------------
Magnitude (a.u.)       :      0.53153
Magnitude (Debye)      :      1.35105



--------------------
Rotational spectrum 
--------------------
 
Rotational constants in cm-1:     0.740372     0.047137     0.045366 
Rotational constants in MHz : 22195.784527  1413.137795  1360.033014 

 Dipole components along the rotational axes: 
x,y,z [a.u.] :     0.448503     0.279273    -0.058116 
x,y,z [Debye]:     1.140004     0.709855    -0.147720 

 

Timings for individual modules:

Sum of individual times         ...       20.595 sec (=   0.343 min)
GTO integral calculation        ...        0.994 sec (=   0.017 min)   4.8 %
SCF iterations                  ...        6.212 sec (=   0.104 min)  30.2 %
MP2 module                      ...       13.390 sec (=   0.223 min)  65.0 %
                             ****ORCA TERMINATED NORMALLY****
TOTAL RUN TIME: 0 days 0 hours 0 minutes 21 seconds 482 msec
