19
Energy:   -515.57290337
O    0.96436266   1.27887304   1.38122774
H    0.33337381   1.82883217   1.84558738
H    1.80800051   1.70757847   1.52516759
O   -0.96435901  -1.27887152  -1.38122812
H   -1.80799208  -1.70758337  -1.52517684
H   -0.33336130  -1.82882497  -1.84558245
O    0.08844310  -1.51476730   1.47341604
H    0.01364966  -2.46509660   1.56008792
H    0.63267321  -1.24829926   2.21438852
O    1.83726455  -0.60430336  -0.85590433
H    2.14287299   0.02788304  -1.50642388
H    2.61101885  -1.12822041  -0.64842652
O   -1.83726423   0.60430514   0.85590507
H   -2.61101738   1.12822691   0.64843483
H   -2.14287332  -0.02788791   1.50641786
O   -0.08844637   1.51476699  -1.47341648
H   -0.01366341   2.46509644  -1.56009566
H   -0.63268326   1.24828861  -2.21438026
Li   0.00000072   0.00000253   0.00000180
