19
Energy:   -542.01445791
O   -0.04994470   0.02619214   3.62824353
H   -0.07812967   0.76468008   4.23657980
H   -0.04509886  -0.74817041   4.19088996
O    0.10810096   1.65300663  -1.20627426
H    0.17636503   2.59442591  -1.04720951
H    0.02939051   1.57535251  -2.15706675
O    1.53556317   0.14089276   1.31148712
H    2.49011824   0.15301911   1.38155439
H    1.22942058   0.07129318   2.21573513
O    0.09754794  -1.43525043  -1.22582282
H   -0.00225005  -1.24283289  -2.15815736
H    0.25501620  -2.37876730  -1.19101605
O   -1.46510713   0.09305739   1.21764763
H   -1.19850146   0.02328128   2.13431799
H   -2.42175211   0.07360957   1.24380122
O   -0.22151590  -0.48144041  -3.78644061
H    0.46942315  -0.68277294  -4.41755097
H   -0.98726595  -0.28111203  -4.32470379
Li   0.08582359   0.09415510  -0.01423309
