19
Energy:   -528.79363261
O    0.13108809   1.12119132  -1.39894033
H    0.50443172   1.43226480  -0.57427090
H    0.08369130   1.90201599  -1.95057266
O    1.50989458  -1.61378302  -1.91448138
H    1.89392142  -2.37699435  -1.48289860
H    2.25210461  -1.17355838  -2.32867746
O   -0.58239497  -1.21156728   0.48172088
H   -1.12953917  -1.72725468   1.07411566
H   -0.11312180  -0.60545903   1.05499859
O   -1.66664401  -1.74008571  -2.46900722
H   -1.61601101  -2.38735734  -3.17236174
H   -2.60287627  -1.56851335  -2.36769617
O   -0.39164277   2.45712247   3.29901683
H   -1.11875028   2.33515473   3.90948418
H   -0.08525839   3.34850571   3.46573931
O    0.95532497   0.77925802   1.58861028
H    0.48536168   1.38619369   2.16044544
H    1.71938658   0.51136594   2.09917422
Li  -0.23094389  -0.85164113  -1.40869685
