19
Energy:   -527.30387172
O   -0.16428864  -1.09608703   3.46260886
H    0.54121978  -1.41208943   4.02708402
H   -0.95716329  -1.19929478   3.98885005
O   -0.00853857   0.47690886  -1.85630246
H    0.64263124   1.11112315  -2.15627240
H   -0.47551374   0.21835586  -2.65085666
O    1.74848985   0.99321243   1.95470425
H    1.81599868   1.85743915   2.36064339
H    2.62584109   0.81892938   1.61395206
O    0.79628107  -1.29250468   0.16876642
H    1.07591224  -2.16232861  -0.11661855
H    0.58783661  -0.82924442  -0.64251201
O   -1.34366810   0.80579156   0.99557343
H   -2.14515566   1.26593264   1.24481171
H   -1.31361465   0.87574138   0.04140591
O   -1.08822699  -0.03791575  -4.34886578
H   -1.73198221   0.51555086  -4.79100352
H   -0.76492048  -0.62372537  -5.03335964
Li   0.21612584  -0.22961958   1.72789698
