19
Energy:   -541.05136720
O   -2.80495986   2.27686594  -0.61374701
H   -2.93992457   3.18916486  -0.35737413
H   -3.50922133   2.09580386  -1.23621321
O   -0.18393301   1.35528624  -1.03267169
H   -1.01997512   1.82057670  -1.06042457
H    0.32774527   1.73847998  -1.74511800
O    2.86971213  -2.43006564  -0.33046367
H    3.47333134  -2.25194775  -1.05167772
H    3.27791079  -3.14886427   0.15216894
O    1.61267219   0.10573506   1.43400766
H    2.34773029  -0.47292138   1.23133015
H    1.87579626   0.55578045   2.23678827
O   -1.72684913   0.40645188   1.26993821
H   -2.28345411   0.09295271   1.98277832
H   -2.27196366   1.03704655   0.79937222
O    0.20581427  -1.77201993  -0.53849799
H   -0.29057431  -2.42821883  -1.02761273
H    1.09738263  -2.11902847  -0.50812060
Li  -0.04760175  -0.02204683   0.33002160
