19
Energy:   -527.39515001
O    0.94125334  -1.32332628   3.02221758
H    0.22338767  -1.60401975   3.58976662
H    1.68222817  -1.86956509   3.28453670
O    0.00751683  -1.44617803  -0.06988883
H    0.05385338  -2.33645737  -0.41843937
H   -0.69590969  -1.02977993  -0.56792055
O   -0.48417300   0.84158237  -3.73212736
H   -0.67945090   0.39143756  -4.55399599
H   -0.14428939   1.69510083  -4.00085998
O    2.33927460   0.64875929   1.01381722
H    2.67494016   0.80257222   0.13069658
H    2.86631645   1.21896448   1.57357143
O   -0.88626027   0.99807409   1.55759474
H   -1.49180825   1.13930778   0.82986091
H   -1.15513428   1.63414756   2.22042893
O   -1.81126989   0.09943298  -1.41521441
H   -1.33857262   0.39720005  -2.19246850
H   -2.73030292   0.08893800  -1.68260922
Li   0.64334089  -0.27861409   1.35981471
