
                                 *****************
                                 * O   R   C   A *
                                 *****************

           --- An Ab Initio, DFT and Semiempirical electronic structure package ---

                  #######################################################
                  #                        -***-                        #
                  #  Department of molecular theory and spectroscopy    #
                  #              Directorship: Frank Neese              #
                  # Max Planck Institute for Chemical Energy Conversion #
                  #                  D-45470 Muelheim/Ruhr              #
                  #                       Germany                       #
                  #                                                     #
                  #                  All rights reserved                #
                  #                        -***-                        #
                  #######################################################


                         Program Version 3.0.3 - RELEASE   -


 With contributions from (in alphabetic order):
   Ute Becker             : Parallelization
   Dmytro Bykov           : SCF Hessian
   Dmitry Ganyushin       : Spin-Orbit,Spin-Spin,Magnetic field MRCI
   Andreas Hansen         : Spin unrestricted coupled pair/coupled cluster methods
   Dimitrios Liakos       : Extrapolation schemes; parallel MDCI
   Robert Izsak           : Overlap fitted RIJCOSX, COSX-SCS-MP3
   Christian Kollmar      : KDIIS, OOCD, Brueckner-CCSD(T), CCSD density
   Simone Kossmann        : Meta GGA functionals, TD-DFT gradient, OOMP2, MP2 Hessian
   Taras Petrenko         : DFT Hessian,TD-DFT gradient, ASA and ECA modules, normal mode analysis, Resonance Raman, ABS, FL, XAS/XES, NRVS
   Christoph Reimann      : Effective Core Potentials
   Michael Roemelt        : Restricted open shell CIS
   Christoph Riplinger    : Improved optimizer, TS searches, QM/MM, DLPNO-CCSD
   Barbara Sandhoefer     : DKH picture change effects
   Igor Schapiro          : Molecular dynamics
   Kantharuban Sivalingam : CASSCF convergence, NEVPT2
   Boris Wezisla          : Elementary symmetry handling
   Frank Wennmohs         : Technical directorship


 We gratefully acknowledge several colleagues who have allowed us to
 interface, adapt or use parts of their codes:
   Stefan Grimme, W. Hujo, H. Kruse, T. Risthaus : VdW corrections, initial TS optimization,
                                                   DFT functionals, gCP
   Ed Valeev                                     : LibInt (2-el integral package), F12 methods
   Garnet Chan, S. Sharma, R. Olivares           : DMRG
   Ulf Ekstrom                                   : XCFun DFT Library
   Mihaly Kallay                                 : mrcc  (arbitrary order and MRCC methods)
   Andreas Klamt, Michael Diedenhofen            : otool_cosmo (COSMO solvation model)
   Frank Weinhold                                : gennbo (NPA and NBO analysis)
   Christopher J. Cramer and Donald G. Truhlar   : smd solvation model


 Your calculation uses the libint2 library for the computation of 2-el integrals
 For citations please refer to: http://libint.valeyev.net

 This ORCA versions uses:
   CBLAS   interface :  Fast vector & matrix operations
   LAPACKE interface :  Fast linear algebra routines
   SCALAPACK package :  Parallel linear algebra routines


Your calculation utilizes the basis: ma-def2-TZVP
Cite in your paper:
        def2-TZVP: F. Weigend, R. Ahlrichs, Phys. Chem. Chem. Phys. 2005, 7, 3297.
        Minimal augmentation of diffuse functions: J. Zheng, X. Xu, D. G. Truhlar, Theor. Chem. Acc. 2011, 128, 295.

Your calculation utilizes the atom-pairwise dispersion correction
with the zero-damping scheme (D30)
Cite in your paper:
S.Grimme, J.Antony, S.Ehrlich and H.Krieg, J.Chem.Phys., 132, (2010), 154104 
   

XCFun DFT library Copyright 2009-2010 Ulf Ekstrom and contributors.
See http://admol.org/xcfun for more information. This is free soft-
ware; see the source code for copying conditions. There is ABSOLUTELY
NO WARRANTY; not even for MERCHANTABILITY or FITNESS FOR A PARTICULAR
PURPOSE. For details see the documentation. Scientific users of this 
library should cite U. Ekstrom, L. Visscher, R. Bast, A. J. Thorvald-
sen and K. Ruud; J.Chem.Theor.Comp. 2010, DOI: 10.1021/ct100117s
XCFun Version 0.99 
================================================================================
                                        WARNINGS
                       Please study these warnings very carefully!
================================================================================
Now building the actual basis set


INFO   : the flag for use of LIBINT has been found!

================================================================================
                                       INPUT FILE
================================================================================
NAME = 2_wb98x-ma-def2-TZVP-GasPhase_onBP86_20_waters.inp
|  1> ! wB97X-D3 MA-Def2-TZVP def2-TZVP/J RIJCOSX TightSCF Grid4 
|  2> 
|  3> %pal nprocs 1 end
|  4> 
|  5> %scf
|  6>         maxiter 400
|  7> end
|  8> 
|  9> * xyz  0  1
| 10> O  1.721954	-2.305473	2.392663
| 11> H  1.219857	-2.670177	1.588750
| 12> H  2.020551	-3.089126	2.889575
| 13> O  2.545625	0.343066	-0.590298
| 14> H  2.448955	1.349685	-0.627682
| 15> H  3.062467	0.087768	0.270575
| 16> O  1.202126	-3.153472	-2.258121
| 17> H  1.554641	-2.197008	-2.534214
| 18> H  1.796261	-3.798773	-2.682343
| 19> O  1.019933	3.389170	1.559137
| 20> H  1.380253	2.681582	2.171358
| 21> H  0.022434	3.275092	1.580345
| 22> O  2.046450	1.434702	3.120721
| 23> H  2.418149	1.779293	3.954185
| 24> H  1.317172	0.726696	3.418622
| 25> O  -3.238308	0.610319	-1.587170
| 26> H  -3.866183	0.551317	-2.331293
| 27> H  -2.323877	0.366829	-1.985193
| 28> O  1.883259	-0.799969	-2.891893
| 29> H  2.280366	-0.372556	-2.068805
| 30> H  0.992900	-0.372749	-2.962269
| 31> O  -1.477961	0.316229	1.904879
| 32> H  -1.614992	1.317927	1.842213
| 33> H  -0.803033	0.128828	1.173302
| 34> O  -3.316606	-1.060224	0.557346
| 35> H  -2.708021	-0.548318	1.182583
| 36> H  -3.414855	-0.443371	-0.222234
| 37> O  -1.625363	2.918787	1.483541
| 38> H  -2.206863	3.502209	2.005322
| 39> H  -1.962811	3.020994	0.463012
| 40> O  1.852187	2.864881	-0.748293
| 41> H  1.496125	3.113818	0.226269
| 42> H  2.459164	3.586022	-0.998515
| 43> O  0.149599	-0.388859	-0.022630
| 44> H  0.256670	-1.386301	0.090492
| 45> H  1.115597	-0.050249	-0.165551
| 46> O  0.419493	-3.030281	0.254260
| 47> H  -0.576945	-3.189452	0.143453
| 48> H  0.822173	-3.192821	-0.658163
| 49> O  -1.387567	-2.548144	-2.861074
| 50> H  -1.781193	-2.807905	-1.979214
| 51> H  -0.471535	-2.935591	-2.805731
| 52> O  -0.855873	-0.063887	-2.423572
| 53> H  -1.087253	-1.042820	-2.690907
| 54> H  -0.483934	-0.170371	-1.480620
| 55> O  3.540515	-0.317893	1.687183
| 56> H  3.001220	-1.118900	1.921531
| 57> H  3.111771	0.390087	2.251619
| 58> O  -0.311677	2.727416	-2.405786
| 59> H  -0.410862	1.771948	-2.627746
| 60> H  0.510339	2.775858	-1.838829
| 61> O  0.345285	-0.329354	3.743546
| 62> H  -0.446629	-0.119870	3.155116
| 63> H  0.753707	-1.134261	3.324860
| 64> O  -2.407773	3.129169	-0.876114
| 65> H  -1.588450	3.081756	-1.486452
| 66> H  -2.872793	2.277716	-1.095957
| 67> O  -2.136202	-3.093027	-0.298860
| 68> H  -2.734844	-3.841401	-0.118996
| 69> H  -2.640126	-2.223761	0.088366
| 70> **                         ****END OF INPUT****
================================================================================

                       ****************************
                       * Single Point Calculation *
                       ****************************

---------------------------------
CARTESIAN COORDINATES (ANGSTROEM)
---------------------------------
  O      1.721954   -2.305473    2.392663
  H      1.219857   -2.670177    1.588750
  H      2.020551   -3.089126    2.889575
  O      2.545625    0.343066   -0.590298
  H      2.448955    1.349685   -0.627682
  H      3.062467    0.087768    0.270575
  O      1.202126   -3.153472   -2.258121
  H      1.554641   -2.197008   -2.534214
  H      1.796261   -3.798773   -2.682343
  O      1.019933    3.389170    1.559137
  H      1.380253    2.681582    2.171358
  H      0.022434    3.275092    1.580345
  O      2.046450    1.434702    3.120721
  H      2.418149    1.779293    3.954185
  H      1.317172    0.726696    3.418622
  O     -3.238308    0.610319   -1.587170
  H     -3.866183    0.551317   -2.331293
  H     -2.323877    0.366829   -1.985193
  O      1.883259   -0.799969   -2.891893
  H      2.280366   -0.372556   -2.068805
  H      0.992900   -0.372749   -2.962269
  O     -1.477961    0.316229    1.904879
  H     -1.614992    1.317927    1.842213
  H     -0.803033    0.128828    1.173302
  O     -3.316606   -1.060224    0.557346
  H     -2.708021   -0.548318    1.182583
  H     -3.414855   -0.443371   -0.222234
  O     -1.625363    2.918787    1.483541
  H     -2.206863    3.502209    2.005322
  H     -1.962811    3.020994    0.463012
  O      1.852187    2.864881   -0.748293
  H      1.496125    3.113818    0.226269
  H      2.459164    3.586022   -0.998515
  O      0.149599   -0.388859   -0.022630
  H      0.256670   -1.386301    0.090492
  H      1.115597   -0.050249   -0.165551
  O      0.419493   -3.030281    0.254260
  H     -0.576945   -3.189452    0.143453
  H      0.822173   -3.192821   -0.658163
  O     -1.387567   -2.548144   -2.861074
  H     -1.781193   -2.807905   -1.979214
  H     -0.471535   -2.935591   -2.805731
  O     -0.855873   -0.063887   -2.423572
  H     -1.087253   -1.042820   -2.690907
  H     -0.483934   -0.170371   -1.480620
  O      3.540515   -0.317893    1.687183
  H      3.001220   -1.118900    1.921531
  H      3.111771    0.390087    2.251619
  O     -0.311677    2.727416   -2.405786
  H     -0.410862    1.771948   -2.627746
  H      0.510339    2.775858   -1.838829
  O      0.345285   -0.329354    3.743546
  H     -0.446629   -0.119870    3.155116
  H      0.753707   -1.134261    3.324860
  O     -2.407773    3.129169   -0.876114
  H     -1.588450    3.081756   -1.486452
  H     -2.872793    2.277716   -1.095957
  O     -2.136202   -3.093027   -0.298860
  H     -2.734844   -3.841401   -0.118996
  H     -2.640126   -2.223761    0.088366

----------------------------
CARTESIAN COORDINATES (A.U.)
----------------------------
  NO LB      ZA    FRAG    MASS        X           Y           Z
   0 O     8.0000    0    15.999          3.254021475210235         -4.356712579149830          4.521477800766424
   1 H     1.0000    0     1.008          2.305195652546776         -5.045903259095446          3.002302395267389
   2 H     1.0000    0     1.008          3.818288029620720         -5.837602133175620          5.460505393425501
   3 O     8.0000    0    15.999          4.810534089663286          0.648300785859828         -1.115501557401447
   4 H     1.0000    0     1.008          4.627854264297119          2.550535017061505         -1.186147079191959
   5 H     1.0000    0     1.008          5.787223924171413          0.165857483322000          0.511312648685743
   6 O     8.0000    0    15.999          2.271688918466219         -5.959198450988917         -4.267230267256391
   7 H     1.0000    0     1.008          2.937845726565468         -4.151743434034061         -4.788970424749110
   8 H     1.0000    0     1.008          3.394441355043522         -7.178640614934436         -5.068893667240732
   9 O     8.0000    0    15.999          1.927394044948704          6.404603121301888          2.946341935263578
  10 H     1.0000    0     1.008          2.608300165523209          5.067455585652819          4.103271958698981
  11 H     1.0000    0     1.008          0.042394116088389          6.189026943396420          2.986419247111781
  12 O     8.0000    0    15.999          3.867230046763146          2.711193863789088          5.897308030376863
  13 H     1.0000    0     1.008          4.569639361015541          3.362376482003146          7.472326732859404
  14 H     1.0000    0     1.008          2.489094351269323          1.373256422616038          6.460259335398137
  15 O     8.0000    0    15.999         -6.119515257286261          1.153335764328684         -2.999316627975793
  16 H     1.0000    0     1.008         -7.306027053622066          1.041838142975062         -4.405505307927677
  17 H     1.0000    0     1.008         -4.391491098918516          0.693206347980199         -3.751471092977531
  18 O     8.0000    0    15.999          3.558843749242402         -1.511722325626850         -5.464885778603930
  19 H     1.0000    0     1.008          4.309267225105469         -0.704028809549166         -3.909474874486955
  20 H     1.0000    0     1.008          1.876309078370411         -0.704393526693013         -5.597877145004772
  21 O     8.0000    0    15.999         -2.792941526616387          0.597586205603784          3.599699628257780
  22 H     1.0000    0     1.008         -3.051892588473750          2.490521094500433          3.481278050349471
  23 H     1.0000    0     1.008         -1.517512446501184          0.243449638380807          2.217219452382073
  24 O     8.0000    0    15.999         -6.267477034120027         -2.003533000610525          1.053231301836474
  25 H     1.0000    0     1.008         -5.117418054907562         -1.036170854299433          2.234758000630996
  26 H     1.0000    0     1.008         -6.453140737051656         -0.837849765722799         -0.419961397645855
  27 O     8.0000    0    15.999         -3.071490938208647          5.515708073249608          2.803486198443668
  28 H     1.0000    0     1.008         -4.170366685083855          6.618215873754213          3.789509390327232
  29 H     1.0000    0     1.008         -3.709175242648106          5.708851312219298          0.874965876719146
  30 O     8.0000    0    15.999          3.500126178809202          5.413840496274450         -1.414068837930335
  31 H     1.0000    0     1.008          2.827266512112932          5.884263250874405          0.427586442596228
  32 H     1.0000    0     1.008          4.647146478398321          6.776599490216554         -1.886919890612379
  33 O     8.0000    0    15.999          0.282701139908485         -0.734837014710484         -0.042764502410638
  34 H     1.0000    0     1.008          0.485036006793568         -2.619729229181165          0.171005097310802
  35 H     1.0000    0     1.008          2.108172805824147         -0.094956848503409         -0.312846051196797
  36 O     8.0000    0    15.999          0.792726885097028         -5.726401198825024          0.480481766810817
  37 H     1.0000    0     1.008         -1.090268044335197         -6.027190797287404          0.271086883089405
  38 H     1.0000    0     1.008          1.553681804704437         -6.033557284632584         -1.243747821480013
  39 O     8.0000    0    15.999         -2.622121622466709         -4.815294309794634         -5.406646308882611
  40 H     1.0000    0     1.008         -3.365966961657596         -5.306171460068152         -3.740172420422816
  41 H     1.0000    0     1.008         -0.891072012558557         -5.547463031204021         -5.302063195453008
  42 O     8.0000    0    15.999         -1.617365575417584         -0.120728933517827         -4.579887345839796
  43 H     1.0000    0     1.008         -2.054610408284283         -1.970644206975760         -5.085077281851634
  44 H     1.0000    0     1.008         -0.914502726893047         -0.321954531162298         -2.797966308406484
  45 O     8.0000    0    15.999          6.690603723040200         -0.600730709890628          3.188313807807659
  46 H     1.0000    0     1.008          5.671483867647139         -2.114414571244489          3.631167347839837
  47 H     1.0000    0     1.008          5.880394981478267          0.737157598402939          4.254943267933634
  48 O     8.0000    0    15.999         -0.588984172242174          5.154069293274964         -4.546276676821872
  49 H     1.0000    0     1.008         -0.776416658835153          3.348496443549494         -4.965720289507034
  50 H     1.0000    0     1.008          0.964400945459238          5.245611406654378         -3.474883217112281
  51 O     8.0000    0    15.999          0.652494088150999         -0.622388861111500          7.074276709736366
  52 H     1.0000    0     1.008         -0.844006493467115         -0.226521471673140          5.962305160753083
  53 H     1.0000    0     1.008          1.424299815219385         -2.143442654387653          6.283074833629413
  54 O     8.0000    0    15.999         -4.550031562649974          5.913272436756229         -1.655615522094283
  55 H     1.0000    0     1.008         -3.001735477427212          5.823674851568621         -2.808987191219513
  56 H     1.0000    0     1.008         -5.428792009446035          4.304259450850577         -2.071058584553934
  57 O     8.0000    0    15.999         -4.036836746734846         -5.844973954824048         -0.564763552383705
  58 H     1.0000    0     1.008         -5.168106178997731         -7.259195860571229         -0.224869851032093
  59 H     1.0000    0     1.008         -4.989115099044978         -4.202299277294856          0.166987539550085

--------------------------------
INTERNAL COORDINATES (ANGSTROEM)
--------------------------------
 O      0   0   0   0.000000     0.000     0.000
 H      1   0   0   1.015572     0.000     0.000
 H      1   2   0   0.974779   105.442     0.000
 O      2   1   3   3.947853    89.816   214.647
 H      4   2   1   1.011941   138.379   294.777
 H      4   2   1   1.036053    61.368    21.360
 O      2   1   3   3.877152   146.349   249.698
 H      7   2   1   1.056086    98.335   317.463
 H      7   2   1   0.974358   120.781    72.269
 O      5   4   2   3.314179   128.973     9.365
 H     10   5   4   1.002659    79.261    32.849
 H     10   5   4   1.004225   111.859   290.532
 O     11  10   5   1.702885   176.140     7.929
 H     13  11  10   0.975482   111.515   133.900
 H     13  11  10   1.059181   112.141   251.288
 O     12  10   5   5.269403   131.255   349.724
 H     16  12  10   0.975411   152.560   262.549
 H     16  12  10   1.026593    78.569     3.700
 O      8   7   2   1.479068   173.132   281.082
 H     19   8   7   1.008885   106.877    96.803
 H     19   8   7   0.990055   103.001   348.393
 O     15  13  11   3.205101   123.589    21.235
 H     22  15  13   1.012968    91.177   315.756
 H     22  15  13   1.012843    77.508    59.021
 O     22  15  13   2.662909   155.141   120.289
 H     25  22  15   1.011605     8.223   106.073
 H     25  22  15   0.998952    98.258   233.932
 O     23  22  15   1.640581   168.325    79.657
 H     28  23  22   0.975079   118.075   177.375
 H     28  23  22   1.079721   107.517    58.649
 O      5   4   2   1.632942   163.874   299.870
 H     31   5   4   1.067015   105.722    83.536
 H     31   5   4   0.975231   118.531   201.683
 O     24  22  15   1.614237   171.011   126.139
 H     34  24  22   1.009530   107.244   323.690
 H     34  24  22   1.033555   123.295   203.387
 O      2   1   3   1.597223   171.923   186.582
 H     37   2   1   1.015137   128.201   261.814
 H     37   2   1   1.010488   126.228    85.127
 O      7   2   1   2.726992   101.306   222.344
 H     40   7   2   1.000047    96.959   332.643
 H     40   7   2   0.996139    13.614   218.870
 O     18  16  12   1.591455   173.043    52.893
 H     43  18  16   1.040824    96.906    92.522
 H     43  18  16   1.019233    96.318   348.820
 O      6   4   2   1.549151   168.040   316.614
 H     46   6   4   0.993665   105.027    49.575
 H     46   6   4   1.001821   101.425   303.892
 O     31   5   4   2.729192   106.731   329.200
 H     49  31   5   0.985912   105.385     2.833
 H     49  31   5   0.999749     2.856   281.969
 O     15  13  11   1.471524   175.252   100.983
 H     52  15  13   1.008594   103.927   271.556
 H     52  15  13   0.994978   102.506    19.819
 O     30  28  23   1.415257   178.949     0.778
 H     55  30  28   1.022766   108.014   269.697
 H     55  30  28   0.994760   106.898    18.468
 O     38  37   2   1.623644   164.382   118.164
 H     58  38  37   0.975083   119.588   166.150
 H     58  38  37   1.076804   113.541   291.666

---------------------------
INTERNAL COORDINATES (A.U.)
---------------------------
 O      0   0   0   0.000000     0.000     0.000
 H      1   0   0   1.919153     0.000     0.000
 H      1   2   0   1.842065   105.442     0.000
 O      2   1   3   7.460361    89.816   214.647
 H      4   2   1   1.912291   138.379   294.777
 H      4   2   1   1.957856    61.368    21.360
 O      2   1   3   7.326755   146.349   249.698
 H      7   2   1   1.995713    98.335   317.463
 H      7   2   1   1.841270   120.781    72.269
 O      5   4   2   6.262890   128.973     9.365
 H     10   5   4   1.894752    79.261    32.849
 H     10   5   4   1.897710   111.859   290.532
 O     11  10   5   3.217987   176.140     7.929
 H     13  11  10   1.843394   111.515   133.900
 H     13  11  10   2.001562   112.141   251.288
 O     12  10   5   9.957728   131.255   349.724
 H     16  12  10   1.843260   152.560   262.549
 H     16  12  10   1.939980    78.569     3.700
 O      8   7   2   2.795033   173.132   281.082
 H     19   8   7   1.906517   106.877    96.803
 H     19   8   7   1.870933   103.001   348.393
 O     15  13  11   6.056762   123.589    21.235
 H     22  15  13   1.914231    91.177   315.756
 H     22  15  13   1.913997    77.508    59.021
 O     22  15  13   5.032168   155.141   120.289
 H     25  22  15   1.911656     8.223   106.073
 H     25  22  15   1.887746    98.258   233.932
 O     23  22  15   3.100249   168.325    79.657
 H     28  23  22   1.842632   118.075   177.375
 H     28  23  22   2.040376   107.517    58.649
 O      5   4   2   3.085812   163.874   299.870
 H     31   5   4   2.016366   105.722    83.536
 H     31   5   4   1.842920   118.531   201.683
 O     24  22  15   3.050466   171.011   126.139
 H     34  24  22   1.907736   107.244   323.690
 H     34  24  22   1.953135   123.295   203.387
 O      2   1   3   3.018314   171.923   186.582
 H     37   2   1   1.918330   128.201   261.814
 H     37   2   1   1.909546   126.228    85.127
 O      7   2   1   5.153268   101.306   222.344
 H     40   7   2   1.889815    96.959   332.643
 H     40   7   2   1.882430    13.614   218.870
 O     18  16  12   3.007414   173.043    52.893
 H     43  18  16   1.966872    96.906    92.522
 H     43  18  16   1.926071    96.318   348.820
 O      6   4   2   2.927471   168.040   316.614
 H     46   6   4   1.877755   105.027    49.575
 H     46   6   4   1.893167   101.425   303.892
 O     31   5   4   5.157425   106.731   329.200
 H     49  31   5   1.863104   105.385     2.833
 H     49  31   5   1.889251     2.856   281.969
 O     15  13  11   2.780777   175.252   100.983
 H     52  15  13   1.905966   103.927   271.556
 H     52  15  13   1.880236   102.506    19.819
 O     30  28  23   2.674448   178.949     0.778
 H     55  30  28   1.932748   108.014   269.697
 H     55  30  28   1.879823   106.898    18.468
 O     38  37   2   3.068243   164.382   118.164
 H     58  38  37   1.842640   119.588   166.150
 H     58  38  37   2.034865   113.541   291.666

---------------------
BASIS SET INFORMATION
---------------------
There are 2 groups of distinct atoms

 Group   1 Type O   : 12s7p2d1f contracted to 6s4p2d1f pattern {621111/4111/11/1}
 Group   2 Type H   : 5s1p contracted to 3s1p pattern {311/1}

Atom   0O    basis set group =>   1
Atom   1H    basis set group =>   2
Atom   2H    basis set group =>   2
Atom   3O    basis set group =>   1
Atom   4H    basis set group =>   2
Atom   5H    basis set group =>   2
Atom   6O    basis set group =>   1
Atom   7H    basis set group =>   2
Atom   8H    basis set group =>   2
Atom   9O    basis set group =>   1
Atom  10H    basis set group =>   2
Atom  11H    basis set group =>   2
Atom  12O    basis set group =>   1
Atom  13H    basis set group =>   2
Atom  14H    basis set group =>   2
Atom  15O    basis set group =>   1
Atom  16H    basis set group =>   2
Atom  17H    basis set group =>   2
Atom  18O    basis set group =>   1
Atom  19H    basis set group =>   2
Atom  20H    basis set group =>   2
Atom  21O    basis set group =>   1
Atom  22H    basis set group =>   2
Atom  23H    basis set group =>   2
Atom  24O    basis set group =>   1
Atom  25H    basis set group =>   2
Atom  26H    basis set group =>   2
Atom  27O    basis set group =>   1
Atom  28H    basis set group =>   2
Atom  29H    basis set group =>   2
Atom  30O    basis set group =>   1
Atom  31H    basis set group =>   2
Atom  32H    basis set group =>   2
Atom  33O    basis set group =>   1
Atom  34H    basis set group =>   2
Atom  35H    basis set group =>   2
Atom  36O    basis set group =>   1
Atom  37H    basis set group =>   2
Atom  38H    basis set group =>   2
Atom  39O    basis set group =>   1
Atom  40H    basis set group =>   2
Atom  41H    basis set group =>   2
Atom  42O    basis set group =>   1
Atom  43H    basis set group =>   2
Atom  44H    basis set group =>   2
Atom  45O    basis set group =>   1
Atom  46H    basis set group =>   2
Atom  47H    basis set group =>   2
Atom  48O    basis set group =>   1
Atom  49H    basis set group =>   2
Atom  50H    basis set group =>   2
Atom  51O    basis set group =>   1
Atom  52H    basis set group =>   2
Atom  53H    basis set group =>   2
Atom  54O    basis set group =>   1
Atom  55H    basis set group =>   2
Atom  56H    basis set group =>   2
Atom  57O    basis set group =>   1
Atom  58H    basis set group =>   2
Atom  59H    basis set group =>   2
-------------------------------
AUXILIARY BASIS SET INFORMATION
-------------------------------
There are 2 groups of distinct atoms

 Group   1 Type O   : 12s5p4d2f1g contracted to 6s4p3d1f1g pattern {711111/2111/211/2/1}
 Group   2 Type H   : 5s2p1d contracted to 3s1p1d pattern {311/2/1}

Atom   0O    basis set group =>   1
Atom   1H    basis set group =>   2
Atom   2H    basis set group =>   2
Atom   3O    basis set group =>   1
Atom   4H    basis set group =>   2
Atom   5H    basis set group =>   2
Atom   6O    basis set group =>   1
Atom   7H    basis set group =>   2
Atom   8H    basis set group =>   2
Atom   9O    basis set group =>   1
Atom  10H    basis set group =>   2
Atom  11H    basis set group =>   2
Atom  12O    basis set group =>   1
Atom  13H    basis set group =>   2
Atom  14H    basis set group =>   2
Atom  15O    basis set group =>   1
Atom  16H    basis set group =>   2
Atom  17H    basis set group =>   2
Atom  18O    basis set group =>   1
Atom  19H    basis set group =>   2
Atom  20H    basis set group =>   2
Atom  21O    basis set group =>   1
Atom  22H    basis set group =>   2
Atom  23H    basis set group =>   2
Atom  24O    basis set group =>   1
Atom  25H    basis set group =>   2
Atom  26H    basis set group =>   2
Atom  27O    basis set group =>   1
Atom  28H    basis set group =>   2
Atom  29H    basis set group =>   2
Atom  30O    basis set group =>   1
Atom  31H    basis set group =>   2
Atom  32H    basis set group =>   2
Atom  33O    basis set group =>   1
Atom  34H    basis set group =>   2
Atom  35H    basis set group =>   2
Atom  36O    basis set group =>   1
Atom  37H    basis set group =>   2
Atom  38H    basis set group =>   2
Atom  39O    basis set group =>   1
Atom  40H    basis set group =>   2
Atom  41H    basis set group =>   2
Atom  42O    basis set group =>   1
Atom  43H    basis set group =>   2
Atom  44H    basis set group =>   2
Atom  45O    basis set group =>   1
Atom  46H    basis set group =>   2
Atom  47H    basis set group =>   2
Atom  48O    basis set group =>   1
Atom  49H    basis set group =>   2
Atom  50H    basis set group =>   2
Atom  51O    basis set group =>   1
Atom  52H    basis set group =>   2
Atom  53H    basis set group =>   2
Atom  54O    basis set group =>   1
Atom  55H    basis set group =>   2
Atom  56H    basis set group =>   2
Atom  57O    basis set group =>   1
Atom  58H    basis set group =>   2
Atom  59H    basis set group =>   2
------------------------------------------------------------------------------
                           ORCA GTO INTEGRAL CALCULATION
                           -- RI-GTO INTEGRALS CHOSEN --
------------------------------------------------------------------------------

                         BASIS SET STATISTICS AND STARTUP INFO

Gaussian basis set:
 # of primitive gaussian shells          ...  680
 # of primitive gaussian functions       ... 1320
 # of contracted shells                  ...  420
 # of contracted basis functions         ...  940
 Highest angular momentum                ...    3
 Maximum contraction depth               ...    6
Auxiliary gaussian basis set:
 # of primitive gaussian shells          ...  800
 # of primitive gaussian functions       ... 2040
 # of contracted shells                  ...  500
 # of contracted aux-basis functions     ... 1420
 Highest angular momentum                ...    4
 Maximum contraction depth               ...    7
Ratio of auxiliary to basis functions    ...  1.51
Integral package used                  ... LIBINT
 One Electron integrals                  ... done
 Ordering auxiliary basis shells         ... done
 Integral threshhold             Thresh  ...  2.500e-11
 Primitive cut-off               TCut    ...  2.500e-12
 Pre-screening matrix                    ... done
 Shell pair data                         ... 
 Ordering of the shell pairs             ... done (   0.010 sec) 62718 of 88410 pairs
 Determination of significant pairs      ... done (   0.000 sec)
 Creation of shell pair data             ... done (   0.014 sec)
 Storage of shell pair data              ... done (   0.009 sec)
 Shell pair data done in (   0.033 sec)
 Computing two index integrals           ... done
 Cholesky decomposition of the V-matrix  ... done


Timings:
 Total evaluation time                   ...   1.263 sec (  0.021 min)
 One electron matrix time                ...   0.493 sec (  0.008 min) = 39.1%
 Schwartz matrix evaluation time         ...   0.622 sec (  0.010 min) = 49.2%
 Two index repulsion integral time       ...   0.048 sec (  0.001 min) =  3.8%
 Cholesky decomposition of V             ...   0.052 sec (  0.001 min) =  4.2%
 Three index repulsion integral time     ...   0.000 sec (  0.000 min) =  0.0%

-------------------------------------------------------------------------------
                                 ORCA SCF
-------------------------------------------------------------------------------

------------
SCF SETTINGS
------------
Hamiltonian:
 Density Functional     Method          .... DFT(GTOs)
 Exchange Functional    Exchange        .... WB97X-D3
 Correlation Functional Correlation     .... WB97X-D3
 Gradients option       PostSCFGGA      .... off
 Hybrid DFT is turned on
   Fraction HF Exchange ScalHFX         ....  0.195728
   Scaling of DF-GGA-X  ScalDFX         ....  0.000000
   Scaling of DF-GGA-C  ScalDFC         ....  1.000000
   Scaling of DF-LDA-C  ScalLDAC        ....  1.000000
   Perturbative correction              ....  0.000000
 Long-range corrected/Screened/Range-Separated Hybrid DFT is turned on
   Amount of maximum screened exact exchange              ....  0.804272
   Range separation parameter mu (erf(mu*r12)/r12)        ....  0.250000
 RI-approximation to the Coulomb term is turned on
   Number of auxiliary basis functions  .... 1420
   RIJ-COSX (HFX calculated with COS-X)).... on


General Settings:
 Integral files         IntName         .... 2_wb98x-ma-def2-TZVP-GasPhase_onBP86_20_waters
 Hartree-Fock type      HFTyp           .... RHF
 Total Charge           Charge          ....    0
 Multiplicity           Mult            ....    1
 Number of Electrons    NEL             ....  200
 Basis Dimension        Dim             ....  940
 Nuclear Repulsion      ENuc            ....   2502.7438744966 Eh

Convergence Acceleration:
 DIIS                   CNVDIIS         .... on
   Start iteration      DIISMaxIt       ....    12
   Startup error        DIISStart       ....  0.200000
   # of expansion vecs  DIISMaxEq       ....     5
   Bias factor          DIISBfac        ....   1.050
   Max. coefficient     DIISMaxC        ....  10.000
 Newton-Raphson         CNVNR           .... off
 SOSCF                  CNVSOSCF        .... on
   Start iteration      SOSCFMaxIt      ....   150
   Startup grad/error   SOSCFStart      ....  0.003300
 Level Shifting         CNVShift        .... on
   Level shift para.    LevelShift      ....    0.2500
   Turn off err/grad.   ShiftErr        ....    0.0010
 Zerner damping         CNVZerner       .... off
 Static damping         CNVDamp         .... on
   Fraction old density DampFac         ....    0.7000
   Max. Damping (<1)    DampMax         ....    0.9800
   Min. Damping (>=0)   DampMin         ....    0.0000
   Turn off err/grad.   DampErr         ....    0.1000
 Fernandez-Rico         CNVRico         .... off

SCF Procedure:
 Maximum # iterations   MaxIter         ....   400
 SCF integral mode      SCFMode         .... Direct
   Integral package                     .... LIBINT
 Reset frequeny         DirectResetFreq ....    20
 Integral Threshold     Thresh          ....  2.500e-11 Eh
 Primitive CutOff       TCut            ....  2.500e-12 Eh

Convergence Tolerance:
 Convergence Check Mode ConvCheckMode   .... Total+1el-Energy
 Energy Change          TolE            ....  1.000e-08 Eh
 1-El. energy change                    ....  1.000e-05 Eh
 Orbital Gradient       TolG            ....  1.000e-05
 Orbital Rotation angle TolX            ....  1.000e-05
 DIIS Error             TolErr          ....  5.000e-07


Diagonalization of the overlap matrix:
Smallest eigenvalue                        ... 6.307e-05
Time for diagonalization                   ...    0.218 sec
Threshold for overlap eigenvalues          ... 1.000e-08
Number of eigenvalues below threshold      ... 0
Time for construction of square roots      ...    0.115 sec
Total time needed                          ...    0.336 sec

-------------------
DFT GRID GENERATION
-------------------

General Integration Accuracy     IntAcc      ...  4.670
Radial Grid Type                 RadialGrid  ... Gauss-Chebyshev
Angular Grid (max. acc.)         AngularGrid ... Lebedev-302
Angular grid pruning method      GridPruning ... 3 (G Style)
Weight generation scheme         WeightScheme... Becke
Basis function cutoff            BFCut       ...    1.0000e-11
Integration weight cutoff        WCut        ...    1.0000e-14
Grids for H and He will be reduced by one unit

# of grid points (after initial pruning)     ... 260000 (   0.2 sec)
# of grid points (after weights+screening)   ... 223846 (   4.0 sec)
nearest neighbour list constructed           ...    0.0 sec
Grid point re-assignment to atoms done       ...    0.0 sec
Grid point division into batches done        ...    0.5 sec
Reduced shell lists constructed in   11.1 sec

Total number of grid points                  ...   223846
Total number of batches                      ...     3528
Average number of points per batch           ...       63
Average number of grid points per atom       ...     3731
Average number of shells per batch           ...   175.23 (41.72%)
Average number of basis functions per batch  ...   332.32 (35.35%)
Average number of large shells per batch     ...   115.91 (66.15%)
Average number of large basis fcns per batch ...   219.71 (66.12%)
Maximum spatial batch extension              ...  17.11, 18.64, 16.47 au
Average spatial batch extension              ...   1.93,  1.93,  1.96 au

Time for grid setup =   15.318 sec

------------------------------
INITIAL GUESS: MODEL POTENTIAL
------------------------------
Loading Hartree-Fock densities                     ... done
Calculating cut-offs                               ... done
Setting up the integral package                    ... done
Initializing the effective Hamiltonian             ... done
Starting the Coulomb interaction                   ... done (   8.0 sec)
Reading the grid                                   ... done
Mapping shells                                     ... done
Starting the XC term evaluation                    ... done (  14.5 sec)
  promolecular density results
     # of electrons  =    199.978855070
     EX              =   -174.912152274
     EC              =     -6.615989131
     EX+EC           =   -181.528141405
Transforming the Hamiltonian                       ... done (   0.1 sec)
Diagonalizing the Hamiltonian                      ... done (   0.2 sec)
Back transforming the eigenvectors                 ... done (   0.0 sec)
Now organizing SCF variables                       ... done
                      ------------------
                      INITIAL GUESS DONE (  38.3 sec)
                      ------------------
--------------------
COSX GRID GENERATION
--------------------

General Integration Accuracy     IntAcc      ...  3.340
Radial Grid Type                 RadialGrid  ... Gauss-Chebyshev
Angular Grid (max. acc.)         AngularGrid ... Lebedev-50
Angular grid pruning method      GridPruning ... 3 (G Style)
Weight generation scheme         WeightScheme... Becke
Basis function cutoff            BFCut       ...    1.0000e-11
Integration weight cutoff        WCut        ...    1.0000e-14
Grids for H and He will be reduced by one unit

# of grid points (after initial pruning)     ...  24400 (   0.0 sec)
# of grid points (after weights+screening)   ...  21505 (   0.4 sec)
nearest neighbour list constructed           ...    0.0 sec
Grid point re-assignment to atoms done       ...    0.0 sec
Grid point division into batches done        ...    0.0 sec
Reduced shell lists constructed in    1.3 sec

Total number of grid points                  ...    21505
Total number of batches                      ...      362
Average number of points per batch           ...       59
Average number of grid points per atom       ...      358
Average number of shells per batch           ...   201.87 (48.06%)
Average number of basis functions per batch  ...   394.72 (41.99%)
Average number of large shells per batch     ...   135.69 (67.22%)
Average number of large basis fcns per batch ...   259.08 (65.64%)
Maximum spatial batch extension              ...  16.92, 17.01, 16.55 au
Average spatial batch extension              ...   4.19,  4.18,  4.28 au

Overlap Fitting                  UseSFitting ... on
Constructing numerical overlap ... done (      0.9 sec)
Inverting numerical overlap    ... done (      0.0 sec)
Obtaining analytic overlap     ... done (      0.0 sec)
Final contraction and storage  ... done (      0.1 sec)


General Integration Accuracy     IntAcc      ...  3.670
Radial Grid Type                 RadialGrid  ... Gauss-Chebyshev
Angular Grid (max. acc.)         AngularGrid ... Lebedev-50
Angular grid pruning method      GridPruning ... 3 (G Style)
Weight generation scheme         WeightScheme... Becke
Basis function cutoff            BFCut       ...    1.0000e-11
Integration weight cutoff        WCut        ...    1.0000e-14
Grids for H and He will be reduced by one unit

# of grid points (after initial pruning)     ...  32040 (   0.0 sec)
# of grid points (after weights+screening)   ...  28170 (   0.5 sec)
nearest neighbour list constructed           ...    0.0 sec
Grid point re-assignment to atoms done       ...    0.0 sec
Grid point division into batches done        ...    0.0 sec
Reduced shell lists constructed in    1.7 sec

Total number of grid points                  ...    28170
Total number of batches                      ...      473
Average number of points per batch           ...       59
Average number of grid points per atom       ...      470
Average number of shells per batch           ...   198.18 (47.19%)
Average number of basis functions per batch  ...   385.14 (40.97%)
Average number of large shells per batch     ...   132.58 (66.90%)
Average number of large basis fcns per batch ...   252.97 (65.68%)
Maximum spatial batch extension              ...  18.51, 17.80, 16.08 au
Average spatial batch extension              ...   3.86,  3.80,  3.86 au

Overlap Fitting                  UseSFitting ... on
Constructing numerical overlap ... done (      1.2 sec)
Inverting numerical overlap    ... done (      0.0 sec)
Obtaining analytic overlap     ... done (      0.0 sec)
Final contraction and storage  ... done (      0.1 sec)


General Integration Accuracy     IntAcc      ...  4.010
Radial Grid Type                 RadialGrid  ... Gauss-Chebyshev
Angular Grid (max. acc.)         AngularGrid ... Lebedev-110
Angular grid pruning method      GridPruning ... 3 (G Style)
Weight generation scheme         WeightScheme... Becke
Basis function cutoff            BFCut       ...    1.0000e-11
Integration weight cutoff        WCut        ...    1.0000e-14
Grids for H and He will be reduced by one unit

# of grid points (after initial pruning)     ...  55160 (   0.0 sec)
# of grid points (after weights+screening)   ...  48761 (   0.8 sec)
nearest neighbour list constructed           ...    0.0 sec
Grid point re-assignment to atoms done       ...    0.0 sec
Grid point division into batches done        ...    0.0 sec
Reduced shell lists constructed in    2.7 sec

Total number of grid points                  ...    48761
Total number of batches                      ...      792
Average number of points per batch           ...       61
Average number of grid points per atom       ...      813
Average number of shells per batch           ...   191.60 (45.62%)
Average number of basis functions per batch  ...   370.00 (39.36%)
Average number of large shells per batch     ...   127.95 (66.78%)
Average number of large basis fcns per batch ...   243.73 (65.87%)
Maximum spatial batch extension              ...  19.83, 18.27, 17.17 au
Average spatial batch extension              ...   3.16,  3.18,  3.25 au

Overlap Fitting                  UseSFitting ... on
Constructing numerical overlap ... done (      1.9 sec)
Inverting numerical overlap    ... done (      0.0 sec)
Obtaining analytic overlap     ... done (      0.0 sec)
Final contraction and storage  ... done (      0.1 sec)

Time for X-Grid setup             =   11.667 sec
--------------
SCF ITERATIONS
--------------
ITER       Energy         Delta-E        Max-DP      RMS-DP      [F,P]     Damp
               ***  Starting incremental Fock matrix formation  ***
  0  -1527.8729550455   0.000000000000 0.15190745  0.00075133  0.2792170 0.7000
  1  -1528.4230201181  -0.550065072553 0.11076646  0.00053253  0.1398328 0.7000
                               ***Turning on DIIS***
  2  -1528.6590396115  -0.236019493446 0.16510072  0.00090046  0.0564925 0.0000
  3  -1529.0254009901  -0.366361378565 0.08698725  0.00034561  0.0697133 0.0000
  4  -1529.0968257249  -0.071424734802 0.02456416  0.00008082  0.0095292 0.0000
                      *** Initiating the SOSCF procedure ***
                           *** Shutting down DIIS ***
                      *** Re-Reading the Fockian *** 
                      *** Removing any level shift *** 
ITER      Energy       Delta-E        Grad      Rot      Max-DP    RMS-DP
  5  -1529.09816722  -0.0013414920  0.000300  0.000300  0.005296  0.000026
               *** Restarting incremental Fock matrix formation ***
  6  -1529.09825117  -0.0000839512  0.000138  0.000190  0.004396  0.000029
  7  -1529.09825532  -0.0000041566  0.000123  0.000070  0.000769  0.000007
  8  -1529.09826205  -0.0000067275  0.000014  0.000014  0.000393  0.000003
  9  -1529.09826214  -0.0000000863  0.000015  0.000007  0.000085  0.000001
                  ***Gradient check signals convergence***
              ***Rediagonalizing the Fockian in SOSCF/NRSCF***

               *****************************************************
               *                     SUCCESS                       *
               *           SCF CONVERGED AFTER  10 CYCLES          *
               *****************************************************

Setting up the final grid:

General Integration Accuracy     IntAcc      ...  5.010
Radial Grid Type                 RadialGrid  ... Gauss-Chebyshev
Angular Grid (max. acc.)         AngularGrid ... Lebedev-434
Angular grid pruning method      GridPruning ... 3 (G Style)
Weight generation scheme         WeightScheme... Becke
Basis function cutoff            BFCut       ...    1.0000e-11
Integration weight cutoff        WCut        ...    1.0000e-14
Grids for H and He will be reduced by one unit

# of grid points (after initial pruning)     ... 484520 (   0.4 sec)
# of grid points (after weights+screening)   ... 415636 (   7.3 sec)
nearest neighbour list constructed           ...    0.0 sec
Grid point re-assignment to atoms done       ...    0.1 sec
Grid point division into batches done        ...    1.9 sec
Reduced shell lists constructed in   20.5 sec

Total number of grid points                  ...   415636
Total number of batches                      ...     6524
Average number of points per batch           ...       63
Average number of grid points per atom       ...     6927
Average number of shells per batch           ...   170.49 (40.59%)
Average number of basis functions per batch  ...   321.34 (34.18%)
Average number of large shells per batch     ...   112.69 (66.10%)
Average number of large basis fcns per batch ...   213.36 (66.40%)
Maximum spatial batch extension              ...  17.41, 17.24, 18.49 au
Average spatial batch extension              ...   1.55,  1.54,  1.57 au

Final grid set up in   28.2 sec
Final integration                            ... done (  29.0 sec)
Change in XC energy                          ...    -0.002177741
Integrated number of electrons               ...   200.000261363
Previous integrated no of electrons          ...   199.999116645
Old exchange energy                            =    -56.561675499 Eh
New exchange energy                            =    -56.560091996 Eh
Exchange energy change after final integration =      0.001583503 Eh
Total energy after final integration           =  -1529.098856507 Eh
Final COS-X integration done in                =   426.428 sec

----------------
TOTAL SCF ENERGY
----------------

Total Energy       :        -1529.09885651 Eh          -41608.89524 eV

Components:
Nuclear Repulsion  :         2502.74387450 Eh           68103.12312 eV
Electronic Energy  :        -4031.84273100 Eh         -109712.01836 eV

One Electron Energy:        -7098.84958244 Eh         -193169.51769 eV
Two Electron Energy:         3067.00685143 Eh           83457.49932 eV

Virial components:
Potential Energy   :        -3051.28059785 Eh          -83029.56621 eV
Kinetic Energy     :         1522.18174135 Eh           41420.67097 eV
Virial Ratio       :            2.00454421


DFT components:
N(Alpha)           :      100.000130681333 electrons
N(Beta)            :      100.000130681333 electrons
N(Total)           :      200.000261362666 electrons
E(XC)              :     -129.875181054900 Eh       

---------------
SCF CONVERGENCE
---------------

  Last Energy change         ...   -1.3007e-07  Tolerance :   1.0000e-08
  Last MAX-Density change    ...    1.3434e-14  Tolerance :   1.0000e-07
  Last RMS-Density change    ...    1.3911e-16  Tolerance :   5.0000e-09
  Last Orbital Gradient      ...    1.1560e-06  Tolerance :   1.0000e-05
  Last Orbital Rotation      ...    2.4715e-06  Tolerance :   1.0000e-05

             **** THE GBW FILE WAS UPDATED (2_wb98x-ma-def2-TZVP-GasPhase_onBP86_20_waters.gbw) ****
             **** DENSITY FILE WAS UPDATED (2_wb98x-ma-def2-TZVP-GasPhase_onBP86_20_waters.scfp.tmp) ****
             **** ENERGY FILE WAS UPDATED (2_wb98x-ma-def2-TZVP-GasPhase_onBP86_20_waters.en.tmp) ****
----------------
ORBITAL ENERGIES
----------------

  NO   OCC          E(Eh)            E(eV) 
   0   2.0000     -19.263419      -524.1843 
   1   2.0000     -19.259793      -524.0856 
   2   2.0000     -19.256280      -523.9900 
   3   2.0000     -19.251389      -523.8569 
   4   2.0000     -19.249882      -523.8159 
   5   2.0000     -19.245064      -523.6848 
   6   2.0000     -19.243855      -523.6519 
   7   2.0000     -19.242900      -523.6259 
   8   2.0000     -19.241937      -523.5997 
   9   2.0000     -19.240472      -523.5598 
  10   2.0000     -19.238948      -523.5184 
  11   2.0000     -19.234425      -523.3953 
  12   2.0000     -19.234350      -523.3933 
  13   2.0000     -19.231536      -523.3167 
  14   2.0000     -19.231024      -523.3028 
  15   2.0000     -19.230712      -523.2943 
  16   2.0000     -19.227599      -523.2096 
  17   2.0000     -19.226634      -523.1833 
  18   2.0000     -19.225575      -523.1545 
  19   2.0000     -19.224018      -523.1121 
  20   2.0000      -1.163403       -31.6578 
  21   2.0000      -1.153682       -31.3933 
  22   2.0000      -1.149919       -31.2909 
  23   2.0000      -1.145801       -31.1788 
  24   2.0000      -1.142822       -31.0978 
  25   2.0000      -1.139058       -30.9953 
  26   2.0000      -1.135689       -30.9037 
  27   2.0000      -1.134142       -30.8616 
  28   2.0000      -1.130095       -30.7514 
  29   2.0000      -1.129738       -30.7417 
  30   2.0000      -1.123260       -30.5655 
  31   2.0000      -1.118734       -30.4423 
  32   2.0000      -1.116680       -30.3864 
  33   2.0000      -1.110854       -30.2279 
  34   2.0000      -1.107423       -30.1345 
  35   2.0000      -1.102738       -30.0070 
  36   2.0000      -1.099259       -29.9123 
  37   2.0000      -1.096756       -29.8442 
  38   2.0000      -1.093259       -29.7491 
  39   2.0000      -1.089682       -29.6518 
  40   2.0000      -0.668355       -18.1869 
  41   2.0000      -0.663096       -18.0438 
  42   2.0000      -0.658213       -17.9109 
  43   2.0000      -0.655734       -17.8434 
  44   2.0000      -0.647076       -17.6078 
  45   2.0000      -0.646516       -17.5926 
  46   2.0000      -0.645226       -17.5575 
  47   2.0000      -0.642314       -17.4783 
  48   2.0000      -0.640150       -17.4194 
  49   2.0000      -0.638942       -17.3865 
  50   2.0000      -0.638008       -17.3611 
  51   2.0000      -0.634784       -17.2734 
  52   2.0000      -0.633436       -17.2367 
  53   2.0000      -0.631108       -17.1733 
  54   2.0000      -0.630569       -17.1587 
  55   2.0000      -0.627458       -17.0740 
  56   2.0000      -0.624834       -17.0026 
  57   2.0000      -0.621911       -16.9231 
  58   2.0000      -0.620727       -16.8908 
  59   2.0000      -0.618260       -16.8237 
  60   2.0000      -0.585307       -15.9270 
  61   2.0000      -0.569576       -15.4990 
  62   2.0000      -0.562938       -15.3183 
  63   2.0000      -0.557678       -15.1752 
  64   2.0000      -0.550328       -14.9752 
  65   2.0000      -0.549259       -14.9461 
  66   2.0000      -0.535777       -14.5792 
  67   2.0000      -0.525535       -14.3005 
  68   2.0000      -0.523789       -14.2530 
  69   2.0000      -0.515477       -14.0269 
  70   2.0000      -0.507637       -13.8135 
  71   2.0000      -0.502253       -13.6670 
  72   2.0000      -0.496142       -13.5007 
  73   2.0000      -0.495250       -13.4764 
  74   2.0000      -0.490214       -13.3394 
  75   2.0000      -0.486557       -13.2399 
  76   2.0000      -0.476511       -12.9665 
  77   2.0000      -0.475006       -12.9256 
  78   2.0000      -0.469100       -12.7649 
  79   2.0000      -0.452358       -12.3093 
  80   2.0000      -0.442693       -12.0463 
  81   2.0000      -0.439922       -11.9709 
  82   2.0000      -0.437023       -11.8920 
  83   2.0000      -0.435244       -11.8436 
  84   2.0000      -0.434647       -11.8273 
  85   2.0000      -0.430247       -11.7076 
  86   2.0000      -0.426670       -11.6103 
  87   2.0000      -0.425360       -11.5746 
  88   2.0000      -0.424367       -11.5476 
  89   2.0000      -0.423200       -11.5159 
  90   2.0000      -0.421674       -11.4743 
  91   2.0000      -0.418749       -11.3947 
  92   2.0000      -0.416132       -11.3235 
  93   2.0000      -0.415039       -11.2938 
  94   2.0000      -0.413878       -11.2622 
  95   2.0000      -0.412562       -11.2264 
  96   2.0000      -0.409844       -11.1524 
  97   2.0000      -0.406731       -11.0677 
  98   2.0000      -0.404606       -11.0099 
  99   2.0000      -0.401661       -10.9297 
 100   0.0000       0.043604         1.1865 
 101   0.0000       0.063196         1.7196 
 102   0.0000       0.064543         1.7563 
 103   0.0000       0.072318         1.9679 
 104   0.0000       0.083976         2.2851 
 105   0.0000       0.085978         2.3396 
 106   0.0000       0.091941         2.5018 
 107   0.0000       0.110223         2.9993 
 108   0.0000       0.114155         3.1063 
 109   0.0000       0.118139         3.2147 
 110   0.0000       0.121656         3.3104 
 111   0.0000       0.128328         3.4920 
 112   0.0000       0.133421         3.6306 
 113   0.0000       0.136733         3.7207 
 114   0.0000       0.137461         3.7405 
 115   0.0000       0.140606         3.8261 
 116   0.0000       0.145452         3.9579 
 117   0.0000       0.151181         4.1138 
 118   0.0000       0.156330         4.2540 
 119   0.0000       0.160467         4.3665 
 120   0.0000       0.162597         4.4245 
 121   0.0000       0.164687         4.4814 
 122   0.0000       0.172573         4.6960 
 123   0.0000       0.174131         4.7384 
 124   0.0000       0.176632         4.8064 
 125   0.0000       0.179142         4.8747 
 126   0.0000       0.183031         4.9805 
 127   0.0000       0.184438         5.0188 
 128   0.0000       0.190057         5.1717 
 129   0.0000       0.193038         5.2528 
 130   0.0000       0.194421         5.2905 
 131   0.0000       0.200343         5.4516 
 132   0.0000       0.207153         5.6369 
 133   0.0000       0.208248         5.6667 
 134   0.0000       0.210799         5.7361 
 135   0.0000       0.213635         5.8133 
 136   0.0000       0.215041         5.8516 
 137   0.0000       0.217290         5.9128 
 138   0.0000       0.220512         6.0004 
 139   0.0000       0.224204         6.1009 
 140   0.0000       0.226410         6.1609 
 141   0.0000       0.228097         6.2068 
 142   0.0000       0.231794         6.3074 
 143   0.0000       0.234743         6.3877 
 144   0.0000       0.236082         6.4241 
 145   0.0000       0.241678         6.5764 
 146   0.0000       0.245010         6.6671 
 147   0.0000       0.246275         6.7015 
 148   0.0000       0.250186         6.8079 
 149   0.0000       0.253560         6.8997 
 150   0.0000       0.256798         6.9878 
 151   0.0000       0.260015         7.0754 
 152   0.0000       0.266940         7.2638 
 153   0.0000       0.267722         7.2851 
 154   0.0000       0.270036         7.3481 
 155   0.0000       0.273366         7.4387 
 156   0.0000       0.274209         7.4616 
 157   0.0000       0.275188         7.4883 
 158   0.0000       0.278717         7.5843 
 159   0.0000       0.283520         7.7150 
 160   0.0000       0.285484         7.7684 
 161   0.0000       0.287281         7.8173 
 162   0.0000       0.290412         7.9025 
 163   0.0000       0.297174         8.0865 
 164   0.0000       0.299276         8.1437 
 165   0.0000       0.301894         8.2149 
 166   0.0000       0.303283         8.2528 
 167   0.0000       0.306138         8.3304 
 168   0.0000       0.308010         8.3814 
 169   0.0000       0.310689         8.4543 
 170   0.0000       0.315237         8.5780 
 171   0.0000       0.319629         8.6976 
 172   0.0000       0.319991         8.7074 
 173   0.0000       0.323493         8.8027 
 174   0.0000       0.326736         8.8909 
 175   0.0000       0.332240         9.0407 
 176   0.0000       0.335567         9.1312 
 177   0.0000       0.338099         9.2001 
 178   0.0000       0.340922         9.2770 
 179   0.0000       0.343733         9.3535 
 180   0.0000       0.346151         9.4192 
 181   0.0000       0.351842         9.5741 
 182   0.0000       0.352063         9.5801 
 183   0.0000       0.357866         9.7380 
 184   0.0000       0.362623         9.8675 
 185   0.0000       0.365344         9.9415 
 186   0.0000       0.368209        10.0195 
 187   0.0000       0.370261        10.0753 
 188   0.0000       0.373144        10.1538 
 189   0.0000       0.377724        10.2784 
 190   0.0000       0.379922        10.3382 
 191   0.0000       0.386839        10.5264 
 192   0.0000       0.388672        10.5763 
 193   0.0000       0.391513        10.6536 
 194   0.0000       0.394393        10.7320 
 195   0.0000       0.397305        10.8112 
 196   0.0000       0.400924        10.9097 
 197   0.0000       0.401516        10.9258 
 198   0.0000       0.404446        11.0055 
 199   0.0000       0.407446        11.0872 
 200   0.0000       0.414230        11.2718 
 201   0.0000       0.414607        11.2820 
 202   0.0000       0.417907        11.3718 
 203   0.0000       0.419628        11.4187 
 204   0.0000       0.428231        11.6527 
 205   0.0000       0.428521        11.6606 
 206   0.0000       0.432148        11.7593 
 207   0.0000       0.434211        11.8155 
 208   0.0000       0.438654        11.9364 
 209   0.0000       0.441517        12.0143 
 210   0.0000       0.443111        12.0577 
 211   0.0000       0.449555        12.2330 
 212   0.0000       0.453097        12.3294 
 213   0.0000       0.454075        12.3560 
 214   0.0000       0.464056        12.6276 
 215   0.0000       0.474887        12.9223 
 216   0.0000       0.478300        13.0152 
 217   0.0000       0.483161        13.1475 
 218   0.0000       0.491977        13.3874 
 219   0.0000       0.497072        13.5260 
 220   0.0000       0.507165        13.8007 
 221   0.0000       0.515208        14.0195 
 222   0.0000       0.518541        14.1102 
 223   0.0000       0.525196        14.2913 
 224   0.0000       0.533723        14.5233 
 225   0.0000       0.544929        14.8283 
 226   0.0000       0.547748        14.9050 
 227   0.0000       0.549526        14.9534 
 228   0.0000       0.552373        15.0308 
 229   0.0000       0.562321        15.3015 
 230   0.0000       0.566257        15.4086 
 231   0.0000       0.571579        15.5535 
 232   0.0000       0.574820        15.6417 
 233   0.0000       0.581544        15.8246 
 234   0.0000       0.588138        16.0040 
 235   0.0000       0.591775        16.1030 
 236   0.0000       0.595952        16.2167 
 237   0.0000       0.601753        16.3745 
 238   0.0000       0.609547        16.5866 
 239   0.0000       0.615557        16.7502 
 240   0.0000       0.624344        16.9893 
 241   0.0000       0.630789        17.1646 
 242   0.0000       0.633894        17.2491 
 243   0.0000       0.644691        17.5429 
 244   0.0000       0.648565        17.6484 
 245   0.0000       0.650386        17.6979 
 246   0.0000       0.656727        17.8705 
 247   0.0000       0.666571        18.1383 
 248   0.0000       0.671273        18.2663 
 249   0.0000       0.676847        18.4179 
 250   0.0000       0.683954        18.6113 
 251   0.0000       0.686051        18.6684 
 252   0.0000       0.689329        18.7576 
 253   0.0000       0.694975        18.9112 
 254   0.0000       0.697646        18.9839 
 255   0.0000       0.704761        19.1775 
 256   0.0000       0.706274        19.2187 
 257   0.0000       0.718125        19.5412 
 258   0.0000       0.721752        19.6399 
 259   0.0000       0.725881        19.7522 
 260   0.0000       0.726616        19.7722 
 261   0.0000       0.731454        19.9039 
 262   0.0000       0.736898        20.0520 
 263   0.0000       0.744000        20.2453 
 264   0.0000       0.746956        20.3257 
 265   0.0000       0.753727        20.5100 
 266   0.0000       0.756307        20.5802 
 267   0.0000       0.758505        20.6400 
 268   0.0000       0.764333        20.7986 
 269   0.0000       0.764660        20.8075 
 270   0.0000       0.768557        20.9135 
 271   0.0000       0.770997        20.9799 
 272   0.0000       0.772227        21.0134 
 273   0.0000       0.793789        21.6001 
 274   0.0000       0.794992        21.6328 
 275   0.0000       0.798953        21.7406 
 276   0.0000       0.801379        21.8066 
 277   0.0000       0.808084        21.9891 
 278   0.0000       0.814881        22.1740 
 279   0.0000       0.818034        22.2598 
 280   0.0000       0.821519        22.3547 
 281   0.0000       0.824312        22.4307 
 282   0.0000       0.828594        22.5472 
 283   0.0000       0.843473        22.9521 
 284   0.0000       0.845439        23.0056 
 285   0.0000       0.848573        23.0908 
 286   0.0000       0.859771        23.3956 
 287   0.0000       0.863200        23.4889 
 288   0.0000       0.866055        23.5666 
 289   0.0000       0.868118        23.6227 
 290   0.0000       0.876859        23.8606 
 291   0.0000       0.880272        23.9534 
 292   0.0000       0.885089        24.0845 
 293   0.0000       0.893261        24.3069 
 294   0.0000       0.898112        24.4389 
 295   0.0000       0.900033        24.4911 
 296   0.0000       0.902871        24.5684 
 297   0.0000       0.910196        24.7677 
 298   0.0000       0.916565        24.9410 
 299   0.0000       0.920181        25.0394 
 300   0.0000       0.921765        25.0825 
 301   0.0000       0.929157        25.2837 
 302   0.0000       0.932537        25.3756 
 303   0.0000       0.936262        25.4770 
 304   0.0000       0.938823        25.5467 
 305   0.0000       0.945868        25.7384 
 306   0.0000       0.948362        25.8062 
 307   0.0000       0.953924        25.9576 
 308   0.0000       0.962471        26.1902 
 309   0.0000       0.968004        26.3407 
 310   0.0000       0.968954        26.3666 
 311   0.0000       0.974401        26.5148 
 312   0.0000       0.978369        26.6228 
 313   0.0000       0.991083        26.9687 
 314   0.0000       0.995784        27.0967 
 315   0.0000       1.004388        27.3308 
 316   0.0000       1.013898        27.5896 
 317   0.0000       1.024183        27.8694 
 318   0.0000       1.031709        28.0742 
 319   0.0000       1.043356        28.3912 
 320   0.0000       1.051803        28.6210 
 321   0.0000       1.056617        28.7520 
 322   0.0000       1.059551        28.8318 
 323   0.0000       1.072340        29.1799 
 324   0.0000       1.077210        29.3124 
 325   0.0000       1.086404        29.5625 
 326   0.0000       1.091803        29.7095 
 327   0.0000       1.100501        29.9461 
 328   0.0000       1.109817        30.1996 
 329   0.0000       1.126939        30.6656 
 330   0.0000       1.130656        30.7667 
 331   0.0000       1.146240        31.1908 
 332   0.0000       1.156491        31.4697 
 333   0.0000       1.160648        31.5829 
 334   0.0000       1.187321        32.3086 
 335   0.0000       1.190703        32.4007 
 336   0.0000       1.196504        32.5585 
 337   0.0000       1.221970        33.2515 
 338   0.0000       1.234726        33.5986 
 339   0.0000       1.248955        33.9858 
 340   0.0000       1.256516        34.1915 
 341   0.0000       1.259498        34.2727 
 342   0.0000       1.272548        34.6278 
 343   0.0000       1.280841        34.8534 
 344   0.0000       1.284604        34.9558 
 345   0.0000       1.286073        34.9958 
 346   0.0000       1.287814        35.0432 
 347   0.0000       1.292850        35.1802 
 348   0.0000       1.302303        35.4375 
 349   0.0000       1.307461        35.5778 
 350   0.0000       1.317401        35.8483 
 351   0.0000       1.325659        36.0730 
 352   0.0000       1.329206        36.1695 
 353   0.0000       1.331502        36.2320 
 354   0.0000       1.335668        36.3454 
 355   0.0000       1.343138        36.5486 
 356   0.0000       1.349068        36.7100 
 357   0.0000       1.352283        36.7975 
 358   0.0000       1.360289        37.0153 
 359   0.0000       1.363559        37.1043 
 360   0.0000       1.365837        37.1663 
 361   0.0000       1.372126        37.3374 
 362   0.0000       1.379593        37.5406 
 363   0.0000       1.388083        37.7717 
 364   0.0000       1.397262        38.0214 
 365   0.0000       1.400571        38.1115 
 366   0.0000       1.404812        38.2269 
 367   0.0000       1.409866        38.3644 
 368   0.0000       1.416191        38.5365 
 369   0.0000       1.424726        38.7688 
 370   0.0000       1.429791        38.9066 
 371   0.0000       1.435847        39.0714 
 372   0.0000       1.443459        39.2785 
 373   0.0000       1.447929        39.4001 
 374   0.0000       1.450243        39.4631 
 375   0.0000       1.455052        39.5940 
 376   0.0000       1.462395        39.7938 
 377   0.0000       1.467496        39.9326 
 378   0.0000       1.470793        40.0223 
 379   0.0000       1.478232        40.2247 
 380   0.0000       1.487978        40.4899 
 381   0.0000       1.493305        40.6349 
 382   0.0000       1.502334        40.8806 
 383   0.0000       1.503662        40.9167 
 384   0.0000       1.510263        41.0963 
 385   0.0000       1.516250        41.2592 
 386   0.0000       1.525006        41.4975 
 387   0.0000       1.527821        41.5741 
 388   0.0000       1.532277        41.6954 
 389   0.0000       1.548782        42.1445 
 390   0.0000       1.555105        42.3166 
 391   0.0000       1.562919        42.5292 
 392   0.0000       1.566919        42.6380 
 393   0.0000       1.580287        43.0018 
 394   0.0000       1.598202        43.4893 
 395   0.0000       1.607776        43.7498 
 396   0.0000       1.626027        44.2465 
 397   0.0000       1.638978        44.5989 
 398   0.0000       1.641683        44.6725 
 399   0.0000       1.651274        44.9334 
 400   0.0000       1.728446        47.0334 
 401   0.0000       1.751026        47.6479 
 402   0.0000       1.772917        48.2435 
 403   0.0000       1.779472        48.4219 
 404   0.0000       1.787542        48.6415 
 405   0.0000       1.793293        48.7980 
 406   0.0000       1.794803        48.8391 
 407   0.0000       1.797165        48.9033 
 408   0.0000       1.799321        48.9620 
 409   0.0000       1.806780        49.1650 
 410   0.0000       1.811404        49.2908 
 411   0.0000       1.819643        49.5150 
 412   0.0000       1.820350        49.5343 
 413   0.0000       1.825558        49.6760 
 414   0.0000       1.830167        49.8014 
 415   0.0000       1.832305        49.8596 
 416   0.0000       1.846110        50.2352 
 417   0.0000       1.849512        50.3278 
 418   0.0000       1.856707        50.5236 
 419   0.0000       1.866140        50.7802 
 420   0.0000       1.870286        50.8931 
 421   0.0000       1.873769        50.9879 
 422   0.0000       1.877423        51.0873 
 423   0.0000       1.884193        51.2715 
 424   0.0000       1.887495        51.3613 
 425   0.0000       1.894719        51.5579 
 426   0.0000       1.898196        51.6525 
 427   0.0000       1.911353        52.0106 
 428   0.0000       1.917750        52.1846 
 429   0.0000       1.924455        52.3671 
 430   0.0000       1.933058        52.6012 
 431   0.0000       1.935080        52.6562 
 432   0.0000       1.946815        52.9755 
 433   0.0000       1.948358        53.0175 
 434   0.0000       1.954146        53.1750 
 435   0.0000       1.965854        53.4936 
 436   0.0000       1.972093        53.6634 
 437   0.0000       1.980670        53.8968 
 438   0.0000       1.988051        54.0976 
 439   0.0000       1.999765        54.4164 
 440   0.0000       2.005876        54.5827 
 441   0.0000       2.009431        54.6794 
 442   0.0000       2.018932        54.9379 
 443   0.0000       2.028764        55.2055 
 444   0.0000       2.037179        55.4345 
 445   0.0000       2.048957        55.7549 
 446   0.0000       2.052766        55.8586 
 447   0.0000       2.060217        56.0613 
 448   0.0000       2.064493        56.1777 
 449   0.0000       2.070160        56.3319 
 450   0.0000       2.079635        56.5897 
 451   0.0000       2.091669        56.9172 
 452   0.0000       2.095210        57.0136 
 453   0.0000       2.103487        57.2388 
 454   0.0000       2.109532        57.4033 
 455   0.0000       2.117488        57.6198 
 456   0.0000       2.126941        57.8770 
 457   0.0000       2.130649        57.9779 
 458   0.0000       2.138472        58.1908 
 459   0.0000       2.140859        58.2557 
 460   0.0000       2.150626        58.5215 
 461   0.0000       2.158644        58.7397 
 462   0.0000       2.166219        58.9458 
 463   0.0000       2.173815        59.1525 
 464   0.0000       2.177830        59.2618 
 465   0.0000       2.180431        59.3325 
 466   0.0000       2.190345        59.6023 
 467   0.0000       2.204792        59.9954 
 468   0.0000       2.212822        60.2139 
 469   0.0000       2.215837        60.2960 
 470   0.0000       2.217826        60.3501 
 471   0.0000       2.228727        60.6467 
 472   0.0000       2.235822        60.8398 
 473   0.0000       2.242613        61.0246 
 474   0.0000       2.251624        61.2698 
 475   0.0000       2.255999        61.3889 
 476   0.0000       2.264915        61.6315 
 477   0.0000       2.270104        61.7727 
 478   0.0000       2.280129        62.0455 
 479   0.0000       2.284787        62.1722 
 480   0.0000       2.293660        62.4137 
 481   0.0000       2.295377        62.4604 
 482   0.0000       2.305451        62.7345 
 483   0.0000       2.312215        62.9186 
 484   0.0000       2.321023        63.1582 
 485   0.0000       2.328265        63.3553 
 486   0.0000       2.336613        63.5825 
 487   0.0000       2.337422        63.6045 
 488   0.0000       2.345028        63.8115 
 489   0.0000       2.348429        63.9040 
 490   0.0000       2.362122        64.2766 
 491   0.0000       2.364631        64.3449 
 492   0.0000       2.365499        64.3685 
 493   0.0000       2.381770        64.8112 
 494   0.0000       2.394538        65.1587 
 495   0.0000       2.397031        65.2265 
 496   0.0000       2.409282        65.5599 
 497   0.0000       2.417388        65.7805 
 498   0.0000       2.426761        66.0355 
 499   0.0000       2.428452        66.0815 
 500   0.0000       2.433250        66.2121 
 501   0.0000       2.444593        66.5208 
 502   0.0000       2.448997        66.6406 
 503   0.0000       2.455601        66.8203 
 504   0.0000       2.466375        67.1135 
 505   0.0000       2.470603        67.2285 
 506   0.0000       2.474859        67.3443 
 507   0.0000       2.482461        67.5512 
 508   0.0000       2.486943        67.6732 
 509   0.0000       2.492583        67.8266 
 510   0.0000       2.495924        67.9175 
 511   0.0000       2.503567        68.1255 
 512   0.0000       2.508038        68.2472 
 513   0.0000       2.518837        68.5410 
 514   0.0000       2.525403        68.7197 
 515   0.0000       2.527671        68.7814 
 516   0.0000       2.529665        68.8357 
 517   0.0000       2.534455        68.9660 
 518   0.0000       2.539991        69.1167 
 519   0.0000       2.541561        69.1594 
 520   0.0000       2.547309        69.3158 
 521   0.0000       2.552272        69.4509 
 522   0.0000       2.563438        69.7547 
 523   0.0000       2.566404        69.8354 
 524   0.0000       2.571146        69.9644 
 525   0.0000       2.575476        70.0823 
 526   0.0000       2.578755        70.1715 
 527   0.0000       2.583005        70.2872 
 528   0.0000       2.590604        70.4939 
 529   0.0000       2.593997        70.5862 
 530   0.0000       2.596740        70.6609 
 531   0.0000       2.604797        70.8801 
 532   0.0000       2.608974        70.9938 
 533   0.0000       2.611867        71.0725 
 534   0.0000       2.616464        71.1976 
 535   0.0000       2.619093        71.2691 
 536   0.0000       2.625227        71.4361 
 537   0.0000       2.628499        71.5251 
 538   0.0000       2.631902        71.6177 
 539   0.0000       2.634560        71.6900 
 540   0.0000       2.641264        71.8725 
 541   0.0000       2.652943        72.1902 
 542   0.0000       2.655679        72.2647 
 543   0.0000       2.660039        72.3833 
 544   0.0000       2.669260        72.6343 
 545   0.0000       2.674157        72.7675 
 546   0.0000       2.676958        72.8437 
 547   0.0000       2.682815        73.0031 
 548   0.0000       2.689540        73.1861 
 549   0.0000       2.690793        73.2202 
 550   0.0000       2.699663        73.4616 
 551   0.0000       2.705830        73.6294 
 552   0.0000       2.708399        73.6993 
 553   0.0000       2.712629        73.8144 
 554   0.0000       2.720056        74.0165 
 555   0.0000       2.725248        74.1578 
 556   0.0000       2.733855        74.3920 
 557   0.0000       2.735609        74.4397 
 558   0.0000       2.741617        74.6032 
 559   0.0000       2.751607        74.8750 
 560   0.0000       2.760597        75.1197 
 561   0.0000       2.766117        75.2699 
 562   0.0000       2.770426        75.3871 
 563   0.0000       2.777076        75.5681 
 564   0.0000       2.778952        75.6191 
 565   0.0000       2.784290        75.7644 
 566   0.0000       2.789552        75.9076 
 567   0.0000       2.793964        76.0276 
 568   0.0000       2.803955        76.2995 
 569   0.0000       2.814293        76.5808 
 570   0.0000       2.821299        76.7715 
 571   0.0000       2.822066        76.7923 
 572   0.0000       2.829221        76.9870 
 573   0.0000       2.833092        77.0923 
 574   0.0000       2.841500        77.3211 
 575   0.0000       2.844002        77.3892 
 576   0.0000       2.849147        77.5292 
 577   0.0000       2.861473        77.8646 
 578   0.0000       2.865740        77.9808 
 579   0.0000       2.873349        78.1878 
 580   0.0000       2.888168        78.5910 
 581   0.0000       2.892834        78.7180 
 582   0.0000       2.898639        78.8760 
 583   0.0000       2.913527        79.2811 
 584   0.0000       2.916843        79.3713 
 585   0.0000       2.925860        79.6167 
 586   0.0000       2.931562        79.7719 
 587   0.0000       2.940313        80.0100 
 588   0.0000       2.944030        80.1111 
 589   0.0000       2.952067        80.3298 
 590   0.0000       2.973746        80.9197 
 591   0.0000       2.984653        81.2165 
 592   0.0000       2.996960        81.5514 
 593   0.0000       3.008366        81.8618 
 594   0.0000       3.013972        82.0144 
 595   0.0000       3.026336        82.3508 
 596   0.0000       3.033914        82.5570 
 597   0.0000       3.040216        82.7285 
 598   0.0000       3.064646        83.3933 
 599   0.0000       3.067977        83.4839 
 600   0.0000       3.096308        84.2548 
 601   0.0000       3.107811        84.5678 
 602   0.0000       3.118180        84.8500 
 603   0.0000       3.129176        85.1492 
 604   0.0000       3.132062        85.2277 
 605   0.0000       3.140740        85.4639 
 606   0.0000       3.149883        85.7127 
 607   0.0000       3.159705        85.9800 
 608   0.0000       3.170845        86.2831 
 609   0.0000       3.174348        86.3784 
 610   0.0000       3.180134        86.5358 
 611   0.0000       3.187152        86.7268 
 612   0.0000       3.205421        87.2239 
 613   0.0000       3.208827        87.3166 
 614   0.0000       3.217588        87.5550 
 615   0.0000       3.225870        87.7804 
 616   0.0000       3.239153        88.1418 
 617   0.0000       3.249715        88.4293 
 618   0.0000       3.259927        88.7071 
 619   0.0000       3.261772        88.7573 
 620   0.0000       3.270386        88.9917 
 621   0.0000       3.277725        89.1914 
 622   0.0000       3.290838        89.5483 
 623   0.0000       3.294989        89.6612 
 624   0.0000       3.307704        90.0072 
 625   0.0000       3.313528        90.1657 
 626   0.0000       3.323997        90.4506 
 627   0.0000       3.341269        90.9205 
 628   0.0000       3.356655        91.3392 
 629   0.0000       3.365287        91.5741 
 630   0.0000       3.387090        92.1674 
 631   0.0000       3.395355        92.3923 
 632   0.0000       3.407270        92.7165 
 633   0.0000       3.428209        93.2863 
 634   0.0000       3.459378        94.1345 
 635   0.0000       3.469603        94.4127 
 636   0.0000       3.478616        94.6580 
 637   0.0000       3.497183        95.1632 
 638   0.0000       3.552012        96.6552 
 639   0.0000       3.627248        98.7024 
 640   0.0000       3.907038       106.3159 
 641   0.0000       3.914648       106.5230 
 642   0.0000       3.925195       106.8100 
 643   0.0000       3.931165       106.9724 
 644   0.0000       3.935351       107.0863 
 645   0.0000       3.937630       107.1484 
 646   0.0000       3.939389       107.1962 
 647   0.0000       3.947717       107.4228 
 648   0.0000       3.951619       107.5290 
 649   0.0000       3.958491       107.7160 
 650   0.0000       3.974057       108.1396 
 651   0.0000       3.983206       108.3885 
 652   0.0000       4.001528       108.8871 
 653   0.0000       4.026461       109.5656 
 654   0.0000       4.030429       109.6736 
 655   0.0000       4.042945       110.0141 
 656   0.0000       4.048791       110.1732 
 657   0.0000       4.060871       110.5019 
 658   0.0000       4.071719       110.7971 
 659   0.0000       4.073959       110.8581 
 660   0.0000       4.087983       111.2397 
 661   0.0000       4.097360       111.4948 
 662   0.0000       4.099174       111.5442 
 663   0.0000       4.106381       111.7403 
 664   0.0000       4.110318       111.8474 
 665   0.0000       4.115936       112.0003 
 666   0.0000       4.118745       112.0767 
 667   0.0000       4.128445       112.3407 
 668   0.0000       4.147446       112.8578 
 669   0.0000       4.155853       113.0865 
 670   0.0000       4.162633       113.2710 
 671   0.0000       4.164136       113.3119 
 672   0.0000       4.171659       113.5166 
 673   0.0000       4.180483       113.7567 
 674   0.0000       4.187617       113.9508 
 675   0.0000       4.198208       114.2391 
 676   0.0000       4.204730       114.4165 
 677   0.0000       4.212009       114.6146 
 678   0.0000       4.215709       114.7153 
 679   0.0000       4.230253       115.1110 
 680   0.0000       5.178531       140.9150 
 681   0.0000       5.185704       141.1102 
 682   0.0000       5.189039       141.2009 
 683   0.0000       5.189667       141.2180 
 684   0.0000       5.193592       141.3248 
 685   0.0000       5.194913       141.3608 
 686   0.0000       5.197474       141.4305 
 687   0.0000       5.200012       141.4995 
 688   0.0000       5.203741       141.6010 
 689   0.0000       5.204739       141.6281 
 690   0.0000       5.207350       141.6992 
 691   0.0000       5.209365       141.7540 
 692   0.0000       5.214782       141.9014 
 693   0.0000       5.216347       141.9440 
 694   0.0000       5.224923       142.1774 
 695   0.0000       5.225862       142.2029 
 696   0.0000       5.233070       142.3991 
 697   0.0000       5.239489       142.5737 
 698   0.0000       5.241078       142.6170 
 699   0.0000       5.249467       142.8453 
 700   0.0000       5.287866       143.8901 
 701   0.0000       5.292111       144.0057 
 702   0.0000       5.296420       144.1229 
 703   0.0000       5.309192       144.4705 
 704   0.0000       5.313423       144.5856 
 705   0.0000       5.320848       144.7876 
 706   0.0000       5.322374       144.8292 
 707   0.0000       5.332971       145.1175 
[...]
      f+3     :     0.000190
      f-3     :     0.000249
 28 H s       :     0.645739  s :     0.645739
      pz      :     0.045128  p :     0.159944
      px      :     0.057105
      py      :     0.057711
 29 H s       :     0.570516  s :     0.570516
      pz      :     0.176122  p :     0.242568
      px      :     0.040125
      py      :     0.026320
 30 O s       :     3.495717  s :     3.495717
      pz      :     1.585455  p :     4.884076
      px      :     1.666903
      py      :     1.631718
      dz2     :     0.009644  d :     0.029353
      dxz     :     0.004332
      dyz     :     0.003235
      dx2y2   :     0.002556
      dxy     :     0.009586
      f0      :     0.000312  f :     0.002058
      f+1     :     0.000400
      f-1     :     0.000303
      f+2     :     0.000037
      f-2     :     0.000278
      f+3     :     0.000557
      f-3     :     0.000172
 31 H s       :     0.575131  s :     0.575131
      pz      :     0.161563  p :     0.236429
      px      :     0.044053
      py      :     0.030813
 32 H s       :     0.644307  s :     0.644307
      pz      :     0.036890  p :     0.159463
      px      :     0.057436
      py      :     0.065137
 33 O s       :     3.484198  s :     3.484198
      pz      :     1.814200  p :     4.897037
      px      :     1.593453
      py      :     1.489384
      dz2     :     0.006756  d :     0.030145
      dxz     :     0.004505
      dyz     :     0.001279
      dx2y2   :     0.014002
      dxy     :     0.003602
      f0      :     0.000100  f :     0.001954
      f+1     :     0.000399
      f-1     :     0.000364
      f+2     :     0.000090
      f-2     :     0.000073
      f+3     :     0.000194
      f-3     :     0.000735
 34 H s       :     0.608734  s :     0.608734
      pz      :     0.038163  p :     0.199507
      px      :     0.029365
      py      :     0.131979
 35 H s       :     0.590797  s :     0.590797
      pz      :     0.037938  p :     0.217805
      px      :     0.144058
      py      :     0.035808
 36 O s       :     3.478839  s :     3.478839
      pz      :     1.593697  p :     4.890381
      px      :     1.477530
      py      :     1.819155
      dz2     :     0.011095  d :     0.028156
      dxz     :     0.006091
      dyz     :     0.001338
      dx2y2   :     0.008625
      dxy     :     0.001007
      f0      :     0.000254  f :     0.001901
      f+1     :     0.000772
      f-1     :     0.000147
      f+2     :     0.000082
      f-2     :     0.000074
      f+3     :     0.000412
      f-3     :     0.000159
 37 H s       :     0.602018  s :     0.602018
      pz      :     0.029680  p :     0.199265
      px      :     0.132754
      py      :     0.036831
 38 H s       :     0.604672  s :     0.604672
      pz      :     0.118954  p :     0.195755
      px      :     0.039221
      py      :     0.037579
 39 O s       :     3.486385  s :     3.486385
      pz      :     1.629937  p :     4.850765
      px      :     1.496338
      py      :     1.724491
      dz2     :     0.011500  d :     0.030399
      dxz     :     0.003994
      dyz     :     0.002574
      dx2y2   :     0.006892
      dxy     :     0.005439
      f0      :     0.000141  f :     0.001998
      f+1     :     0.000657
      f-1     :     0.000351
      f+2     :     0.000026
      f-2     :     0.000125
      f+3     :     0.000101
      f-3     :     0.000598
 40 H s       :     0.620488  s :     0.620488
      pz      :     0.103925  p :     0.183294
      px      :     0.038623
      py      :     0.040746
 41 H s       :     0.623630  s :     0.623630
      pz      :     0.031686  p :     0.179246
      px      :     0.100642
      py      :     0.046918
 42 O s       :     3.510993  s :     3.510993
      pz      :     1.556545  p :     4.917902
      px      :     1.754167
      py      :     1.607190
      dz2     :     0.010859  d :     0.029168
      dxz     :     0.004449
      dyz     :     0.002228
      dx2y2   :     0.009066
      dxy     :     0.002565
      f0      :     0.000339  f :     0.001694
      f+1     :     0.000468
      f-1     :     0.000163
      f+2     :     0.000193
      f-2     :     0.000061
      f+3     :     0.000187
      f-3     :     0.000284
 43 H s       :     0.590243  s :     0.590243
      pz      :     0.030359  p :     0.214279
      px      :     0.036686
      py      :     0.147234
 44 H s       :     0.604583  s :     0.604583
      pz      :     0.126514  p :     0.206800
      px      :     0.051089
      py      :     0.029197
 45 O s       :     3.487269  s :     3.487269
      pz      :     1.685805  p :     4.852667
      px      :     1.760566
      py      :     1.406296
      dz2     :     0.004462  d :     0.030320
      dxz     :     0.004731
      dyz     :     0.007483
      dx2y2   :     0.000869
      dxy     :     0.012775
      f0      :     0.000278  f :     0.002006
      f+1     :     0.000148
      f-1     :     0.000215
      f+2     :     0.000117
      f-2     :     0.000632
      f+3     :     0.000598
      f-3     :     0.000018
 46 H s       :     0.627409  s :     0.627409
      pz      :     0.039316  p :     0.176067
      px      :     0.061693
      py      :     0.075059
 47 H s       :     0.619770  s :     0.619770
      pz      :     0.063263  p :     0.184358
      px      :     0.054163
      py      :     0.066932
 48 O s       :     3.480577  s :     3.480577
      pz      :     1.738771  p :     4.864909
      px      :     1.595199
      py      :     1.530939
      dz2     :     0.002956  d :     0.029200
      dxz     :     0.009534
      dyz     :     0.001487
      dx2y2   :     0.014612
      dxy     :     0.000611
      f0      :     0.000326  f :     0.002007
      f+1     :     0.000082
      f-1     :     0.000214
      f+2     :     0.000676
      f-2     :     0.000041
      f+3     :     0.000189
      f-3     :     0.000481
 49 H s       :     0.632397  s :     0.632397
      pz      :     0.039910  p :     0.169796
      px      :     0.032767
      py      :     0.097119
 50 H s       :     0.620029  s :     0.620029
      pz      :     0.065743  p :     0.185171
      px      :     0.092500
      py      :     0.026928
 51 O s       :     3.480767  s :     3.480767
      pz      :     1.751187  p :     4.842433
      px      :     1.536732
      py      :     1.554514
      dz2     :     0.002191  d :     0.030624
      dxz     :     0.010087
      dyz     :     0.006666
      dx2y2   :     0.004646
      dxy     :     0.007034
      f0      :     0.000338  f :     0.002050
      f+1     :     0.000133
      f-1     :     0.000042
      f+2     :     0.000583
      f-2     :     0.000337
      f+3     :     0.000472
      f-3     :     0.000145
 52 H s       :     0.610253  s :     0.610253
      pz      :     0.072226  p :     0.191215
      px      :     0.085794
      py      :     0.033195
 53 H s       :     0.625026  s :     0.625026
      pz      :     0.050572  p :     0.179053
      px      :     0.044742
      py      :     0.083739
 54 O s       :     3.479896  s :     3.479896
      pz      :     1.637341  p :     4.834970
      px      :     1.552853
      py      :     1.644776
      dz2     :     0.007299  d :     0.031409
      dxz     :     0.009282
      dyz     :     0.002013
      dx2y2   :     0.007588
      dxy     :     0.005228
      f0      :     0.000403  f :     0.002147
      f+1     :     0.000366
      f-1     :     0.000135
      f+2     :     0.000523
      f-2     :     0.000127
      f+3     :     0.000588
      f-3     :     0.000004
 55 H s       :     0.600229  s :     0.600229
      pz      :     0.069938  p :     0.198901
      px      :     0.100036
      py      :     0.028927
 56 H s       :     0.624548  s :     0.624548
      pz      :     0.038560  p :     0.179976
      px      :     0.044915
      py      :     0.096501
 57 O s       :     3.497301  s :     3.497301
      pz      :     1.815997  p :     4.896293
      px      :     1.652685
      py      :     1.427611
      dz2     :     0.005329  d :     0.029092
      dxz     :     0.002680
      dyz     :     0.003874
      dx2y2   :     0.003302
      dxy     :     0.013907
      f0      :     0.000289  f :     0.002084
      f+1     :     0.000153
      f-1     :     0.000239
      f+2     :     0.000078
      f-2     :     0.000361
      f+3     :     0.000840
      f-3     :     0.000123
 58 H s       :     0.645245  s :     0.645245
      pz      :     0.043226  p :     0.159601
      px      :     0.056627
      py      :     0.059748
 59 H s       :     0.570221  s :     0.570221
      pz      :     0.046992  p :     0.239514
      px      :     0.058928
      py      :     0.133593


                      *****************************
                      * MAYER POPULATION ANALYSIS *
                      *****************************

  NA   - Mulliken gross atomic population
  ZA   - Total nuclear charge
  QA   - Mulliken gross atomic charge
  VA   - Mayer's total valence
  BVA  - Mayer's bonded valence
  FA   - Mayer's free valence

  ATOM       NA         ZA         QA         VA         BVA        FA
  0 O      8.8329     8.0000    -0.8329     1.6848     1.6848    -0.0000
  1 H      0.5779     1.0000     0.4221     0.8409     0.8409     0.0000
  2 H      0.6356     1.0000     0.3644     0.8841     0.8841    -0.0000
  3 O      8.9260     8.0000    -0.9260     1.7985     1.7985     0.0000
  4 H      0.5567     1.0000     0.4433     0.8415     0.8415    -0.0000
  5 H      0.5174     1.0000     0.4826     0.8137     0.8137    -0.0000
  6 O      8.8782     8.0000    -0.8782     1.6366     1.6366     0.0000
  7 H      0.5721     1.0000     0.4279     0.8693     0.8693    -0.0000
  8 H      0.6325     1.0000     0.3675     0.8865     0.8865     0.0000
  9 O      8.7659     8.0000    -0.7659     1.7557     1.7557    -0.0000
 10 H      0.5890     1.0000     0.4110     0.8712     0.8712    -0.0000
 11 H      0.5842     1.0000     0.4158     0.8706     0.8706    -0.0000
 12 O      8.8367     8.0000    -0.8367     1.6438     1.6438    -0.0000
 13 H      0.6382     1.0000     0.3618     0.8879     0.8879     0.0000
 14 H      0.5853     1.0000     0.4147     0.8877     0.8877    -0.0000
 15 O      8.8001     8.0000    -0.8001     1.7264     1.7264     0.0000
 16 H      0.6288     1.0000     0.3712     0.8812     0.8812    -0.0000
 17 H      0.5741     1.0000     0.4259     0.8436     0.8436     0.0000
 18 O      8.7424     8.0000    -0.7424     1.9234     1.9234    -0.0000
 19 H      0.5558     1.0000     0.4442     0.8418     0.8418    -0.0000
 20 H      0.6165     1.0000     0.3835     0.8976     0.8976     0.0000
 21 O      8.8631     8.0000    -0.8631     1.8455     1.8455    -0.0000
 22 H      0.5464     1.0000     0.4536     0.8372     0.8372    -0.0000
 23 H      0.5996     1.0000     0.4004     0.8598     0.8598    -0.0000
 24 O      8.7787     8.0000    -0.7787     1.9074     1.9074    -0.0000
 25 H      0.5658     1.0000     0.4342     0.8607     0.8607    -0.0000
 26 H      0.5794     1.0000     0.4206     0.8499     0.8499     0.0000
 27 O      8.8441     8.0000    -0.8441     1.5799     1.5799    -0.0000
 28 H      0.6399     1.0000     0.3601     0.8907     0.8907    -0.0000
 29 H      0.5620     1.0000     0.4380     0.8686     0.8686    -0.0000
 30 O      8.8260     8.0000    -0.8260     1.5773     1.5773     0.0000
 31 H      0.5681     1.0000     0.4319     0.8727     0.8727     0.0000
 32 H      0.6371     1.0000     0.3629     0.8885     0.8885     0.0000
 33 O      8.7731     8.0000    -0.7731     1.3822     1.3822     0.0000
 34 H      0.6448     1.0000     0.3552     0.9344     0.9344    -0.0000
 35 H      0.6402     1.0000     0.3598     0.9528     0.9528     0.0000
 36 O      8.8311     8.0000    -0.8311     1.7073     1.7073    -0.0000
 37 H      0.5614     1.0000     0.4386     0.8514     0.8514     0.0000
 38 H      0.5545     1.0000     0.4455     0.8348     0.8348     0.0000
 39 O      8.7177     8.0000    -0.7177     1.8534     1.8534     0.0000
 40 H      0.5992     1.0000     0.4008     0.8820     0.8820     0.0000
 41 H      0.5954     1.0000     0.4046     0.8759     0.8759     0.0000
 42 O      9.0523     8.0000    -1.0523     1.8753     1.8753     0.0000
 43 H      0.5120     1.0000     0.4880     0.8271     0.8271     0.0000
 44 H      0.5819     1.0000     0.4181     0.8648     0.8648    -0.0000
 45 O      8.7577     8.0000    -0.7577     1.8598     1.8598    -0.0000
 46 H      0.6030     1.0000     0.3970     0.8742     0.8742     0.0000
 47 H      0.6004     1.0000     0.3996     0.8859     0.8859    -0.0000
 48 O      8.7827     8.0000    -0.7827     1.8227     1.8227     0.0000
 49 H      0.6016     1.0000     0.3984     0.8728     0.8728    -0.0000
 50 H      0.5918     1.0000     0.4082     0.8691     0.8691     0.0000
 51 O      8.7548     8.0000    -0.7548     1.8869     1.8869     0.0000
 52 H      0.5733     1.0000     0.4267     0.8649     0.8649    -0.0000
 53 H      0.6077     1.0000     0.3923     0.8831     0.8831     0.0000
 54 O      8.8003     8.0000    -0.8003     1.8793     1.8793     0.0000
 55 H      0.5335     1.0000     0.4665     0.8185     0.8185    -0.0000
 56 H      0.5999     1.0000     0.4001     0.8744     0.8744     0.0000
 57 O      8.8775     8.0000    -0.8775     1.5962     1.5962     0.0000
 58 H      0.6343     1.0000     0.3657     0.8843     0.8843     0.0000
 59 H      0.5613     1.0000     0.4387     0.8660     0.8660     0.0000

  Mayer bond orders larger than 0.1
B(  0-O ,  1-H ) :   0.7793 B(  0-O ,  2-H ) :   0.8727 B(  3-O ,  4-H ) :   0.7813 
B(  3-O ,  5-H ) :   0.7132 B(  3-O , 33-O ) :  -0.1486 B(  3-O , 35-H ) :   0.2559 
B(  5-H , 45-O ) :   0.1017 B(  6-O ,  7-H ) :   0.6853 B(  6-O ,  8-H ) :   0.8702 
B(  7-H , 18-O ) :   0.1936 B(  9-O , 10-H ) :   0.8236 B(  9-O , 11-H ) :   0.8150 
B(  9-O , 31-H ) :   0.1925 B( 12-O , 13-H ) :   0.8787 B( 12-O , 14-H ) :   0.6949 
B( 14-H , 51-O ) :   0.1992 B( 15-O , 16-H ) :   0.8751 B( 15-O , 17-H ) :   0.7718 
B( 18-O , 19-H ) :   0.7936 B( 18-O , 20-H ) :   0.8517 B( 21-O , 22-H ) :   0.7811 
B( 21-O , 23-H ) :   0.8204 B( 24-O , 25-H ) :   0.7931 B( 24-O , 26-H ) :   0.8372 
B( 24-O , 59-H ) :   0.2255 B( 27-O , 28-H ) :   0.8759 B( 27-O , 29-H ) :   0.6507 
B( 29-H , 54-O ) :   0.2256 B( 30-O , 31-H ) :   0.6763 B( 30-O , 32-H ) :   0.8750 
B( 33-O , 34-H ) :   0.7669 B( 33-O , 35-H ) :   0.7025 B( 33-O , 36-O ) :  -0.1063 
B( 33-O , 42-O ) :  -0.1253 B( 33-O , 44-H ) :   0.1408 B( 34-H , 36-O ) :   0.2005 
B( 36-O , 37-H ) :   0.7691 B( 36-O , 38-H ) :   0.7797 B( 39-O , 40-H ) :   0.8448 
B( 39-O , 41-H ) :   0.8480 B( 39-O , 42-O ) :   0.1492 B( 39-O , 43-H ) :   0.1069 
B( 42-O , 43-H ) :   0.7351 B( 42-O , 44-H ) :   0.7947 B( 45-O , 46-H ) :   0.8642 
B( 45-O , 47-H ) :   0.8347 B( 48-O , 49-H ) :   0.8525 B( 48-O , 50-H ) :   0.8353 
B( 51-O , 52-H ) :   0.8066 B( 51-O , 53-H ) :   0.8578 B( 54-O , 55-H ) :   0.7724 
B( 54-O , 56-H ) :   0.8466 B( 57-O , 58-H ) :   0.8735 B( 57-O , 59-H ) :   0.6478 


-------
TIMINGS
-------

Total SCF time: 0 days 0 hours 48 min 10 sec 

Total time                  ....    2890.774 sec
Sum of individual times     ....    2505.321 sec  ( 86.7%)

Fock matrix formation       ....    2404.858 sec  ( 83.2%)
  Coulomb formation         ....    2231.888 sec  ( 92.8% of F)
  Split-RI-J                ....     113.042 sec  (  4.7% of F)
  Chain of spheres X        ....    2544.994 sec  (105.8% of F)
  COS-X 1 center corr.      ....       0.000 sec  (  0.0% of F)
  XC integration            ....     172.791 sec  (  7.2% of F)
    Basis function eval.    ....      66.630 sec  ( 38.6% of XC)
    Density eval.           ....      34.254 sec  ( 19.8% of XC)
    XC-Functional eval.     ....       9.441 sec  (  5.5% of XC)
    XC-Potential eval.      ....      60.373 sec  ( 34.9% of XC)
Diagonalization             ....       2.224 sec  (  0.1%)
Density matrix formation    ....       0.377 sec  (  0.0%)
Population analysis         ....       2.350 sec  (  0.1%)
Initial guess               ....      38.336 sec  (  1.3%)
Orbital Transformation      ....       0.000 sec  (  0.0%)
Orbital Orthonormalization  ....       0.000 sec  (  0.0%)
DIIS solution               ....       0.736 sec  (  0.0%)
SOSCF solution              ....       1.287 sec  (  0.0%)
Grid generation             ....      55.152 sec  (  1.9%)

Entering the calculation of the dispersion correction...

Checking the input atom types...

Done


-------------------------------------------------------------------------------
                          DFT DISPERSION CORRECTION                            
                                                                               
                                DFTD3 V2.1  Rev 6                               
                              USING zero damping                               
-------------------------------------------------------------------------------
The omegaB97X-D3 functional is recognized. Fit by Chai et al.
Active option DFTDOPT                   ...         3   

molecular C6(AA) [au] = 17781.477357 


            DFT-D V3
 parameters
 s6 scaling factor         :     1.0000 
 rs6 scaling factor        :     1.2810 
 s8 scaling factor         :     1.0000 
 rs8 scaling factor        :     1.0940 
 Damping factor alpha6     :    14.0000 
 Damping factor alpha8     :    16.0000 
 ad hoc parameters k1-k3   :    16.0000     1.3333    -4.0000 

 Edisp/kcal,au: -26.667003403693  -0.042496570429 
 E6   /kcal   : -15.654408588 
 E8   /kcal   : -11.012594815 
 % E8         :  41.296709078 

-------------------------   ----------------
Dispersion correction           -0.042496570
-------------------------   ----------------


-------------------------   --------------------
FINAL SINGLE POINT ENERGY     -1529.141353077148
-------------------------   --------------------


                            ***************************************
                            *     ORCA property calculations      *
                            ***************************************

                                    ---------------------
                                    Active property flags
                                    ---------------------
   (+) Dipole Moment


------------------------------------------------------------------------------
                       ORCA ELECTRIC PROPERTIES CALCULATION
------------------------------------------------------------------------------

Dipole Moment Calculation                       ... on
Quadrupole Moment Calculation                   ... off
Polarizability Calculation                      ... off
GBWName                                         ... 2_wb98x-ma-def2-TZVP-GasPhase_onBP86_20_waters.gbw
Electron density file                           ... 2_wb98x-ma-def2-TZVP-GasPhase_onBP86_20_waters.scfp.tmp

-------------
DIPOLE MOMENT
-------------
                                X             Y             Z
Electronic contribution:     -0.06569       0.37700      -0.07447
Nuclear contribution   :      0.08938      -1.83674       0.75071
                        -----------------------------------------
Total Dipole Moment    :      0.02369      -1.45975       0.67624
                        -----------------------------------------
Magnitude (a.u.)       :      1.60895
Magnitude (Debye)      :      4.08962


Timings for individual modules:

Sum of individual times         ...     2930.795 sec (=  48.847 min)
GTO integral calculation        ...        1.293 sec (=   0.022 min)   0.0 %
SCF iterations                  ...     2929.503 sec (=  48.825 min) 100.0 %
                             ****ORCA TERMINATED NORMALLY****
TOTAL RUN TIME: 0 days 0 hours 48 minutes 51 seconds 260 msec
cp: cannot stat /scratch/slurm-2202316/*.{prop}: No such file or directory
