
                                 *****************
                                 * O   R   C   A *
                                 *****************

           --- An Ab Initio, DFT and Semiempirical electronic structure package ---

                  #######################################################
                  #                        -***-                        #
                  #          Department of theory and spectroscopy      #
                  #               Directorship: Frank Neese             #
                  #        Max Planck Institute fuer Kohlenforschung    #
                  #                Kaiser Wilhelm Platz 1               #
                  #                 D-45470 Muelheim/Ruhr               #
                  #                      Germany                        #
                  #                                                     #
                  #                  All rights reserved                #
                  #                        -***-                        #
                  #######################################################


                         Program Version 4.2.0 -  RELEASE  -


 With contributions from (in alphabetic order):
   Daniel Aravena         : Magnetic Suceptibility
   Michael Atanasov       : Ab Initio Ligand Field Theory (pilot matlab implementation)
   Alexander A. Auer      : GIAO ZORA, VPT2
   Ute Becker             : Parallelization
   Giovanni Bistoni       : ED, misc. LED, open-shell LED, HFLED
   Martin Brehm           : Molecular dynamics
   Dmytro Bykov           : SCF Hessian
   Vijay G. Chilkuri      : MRCI spin determinant printing, contributions to CSF-ICE
   Dipayan Datta          : RHF DLPNO-CCSD density
   Achintya Kumar Dutta   : EOM-CC, STEOM-CC
   Dmitry Ganyushin       : Spin-Orbit,Spin-Spin,Magnetic field MRCI
   Miquel Garcia          : C-PCM Hessian, Gaussian charge scheme
   Yang Guo               : DLPNO-NEVPT2, CIM, IAO-localization
   Andreas Hansen         : Spin unrestricted coupled pair/coupled cluster methods
   Benjamin Helmich-Paris : CASSCF linear response (MC-RPA)
   Lee Huntington         : MR-EOM, pCC
   Robert Izsak           : Overlap fitted RIJCOSX, COSX-SCS-MP3, EOM
   Christian Kollmar      : KDIIS, OOCD, Brueckner-CCSD(T), CCSD density
   Simone Kossmann        : Meta GGA functionals, TD-DFT gradient, OOMP2, MP2 Hessian
   Martin Krupicka        : AUTO-CI
   Lucas Lang             : DCDCAS
   Dagmar Lenk            : GEPOL surface, SMD
   Dimitrios Liakos       : Extrapolation schemes; Compound Job, initial MDCI parallelization
   Dimitrios Manganas     : Further ROCIS development; embedding schemes
   Dimitrios Pantazis     : SARC Basis sets
   Taras Petrenko         : DFT Hessian,TD-DFT gradient, ASA, ECA, R-Raman, ABS, FL, XAS/XES, NRVS
   Peter Pinski           : DLPNO-MP2, DLPNO-MP2 Gradient
   Christoph Reimann      : Effective Core Potentials
   Marius Retegan         : Local ZFS, SOC
   Christoph Riplinger    : Optimizer, TS searches, QM/MM, DLPNO-CCSD(T), (RO)-DLPNO pert. Triples
   Tobias Risthaus        : Range-separated hybrids, TD-DFT gradient, RPA, STAB
   Michael Roemelt        : Original ROCIS implementation
   Masaaki Saitow         : Open-shell DLPNO-CCSD energy and density
   Barbara Sandhoefer     : DKH picture change effects
   Avijit Sen             : IP-ROCIS
   Kantharuban Sivalingam : CASSCF convergence, NEVPT2, FIC-MRCI
   Bernardo de Souza      : ESD, SOC TD-DFT
   Georgi Stoychev        : AutoAux, RI-MP2 NMR
   Willem Van den Heuvel  : Paramagnetic NMR
   Boris Wezisla          : Elementary symmetry handling
   Frank Wennmohs         : Technical directorship


 We gratefully acknowledge several colleagues who have allowed us to
 interface, adapt or use parts of their codes:
   Stefan Grimme, W. Hujo, H. Kruse,             : VdW corrections, initial TS optimization,
                  C. Bannwarth                     DFT functionals, gCP, sTDA/sTD-DF
   Ed Valeev, F. Pavosevic, A. Kumar             : LibInt (2-el integral package), F12 methods
   Garnet Chan, S. Sharma, J. Yang, R. Olivares  : DMRG
   Ulf Ekstrom                                   : XCFun DFT Library
   Mihaly Kallay                                 : mrcc  (arbitrary order and MRCC methods)
   Andreas Klamt, Michael Diedenhofen            : otool_cosmo (COSMO solvation model)
   Jiri Pittner, Ondrej Demel                    : Mk-CCSD
   Frank Weinhold                                : gennbo (NPA and NBO analysis)
   Christopher J. Cramer and Donald G. Truhlar   : smd solvation model
   Lars Goerigk                                  : TD-DFT with DH, B97 family of functionals
   V. Asgeirsson, H. Jonsson                     : NEB implementation
   FAccTs GmbH                                   : IRC, NEB, NEB-TS, Multilevel, MM, QM/MM, CI optimization
   S Lehtola, MJT Oliveira, MAL Marques          : LibXC Library


 Your calculation uses the libint2 library for the computation of 2-el integrals
 For citations please refer to: http://libint.valeyev.net

 Your ORCA version has been built with support for libXC version: 4.2.3
 For citations please refer to: https://tddft.org/programs/libxc/

 This ORCA versions uses:
   CBLAS   interface :  Fast vector & matrix operations
   LAPACKE interface :  Fast linear algebra routines
   SCALAPACK package :  Parallel linear algebra routines


----- Orbital basis set information -----
Your calculation utilizes the basis: def2-TZVP
   F. Weigend and R. Ahlrichs, Phys. Chem. Chem. Phys. 7, 3297 (2005).

================================================================================
                                        WARNINGS
                       Please study these warnings very carefully!
================================================================================


WARNING: The frozen-core approximation for MP2-gradient calculations is turned on by default.

INFO   : the flag for use of LIBINT has been found!

================================================================================
                                       INPUT FILE
================================================================================
NAME = 12h2o.su.etal.mol2,3,4,5,9-orca.engrad-mp2.def2tzvp.frozencore.inp
|  1> # 12h2o.su.etal.mol2,3,4,5,9
|  2> ! MP2 def2-TZVP EnGrad TightSCF
|  3> 
|  4> %pal
|  5>     nprocs 6
|  6> end
|  7> 
|  8> %maxcore 8000
|  9> 
| 10> %scf
| 11>     ConvForced true
| 12> end
| 13> 
| 14> *xyz 0 1
| 15> O   0.923410000  -1.794470000  -2.768350000
| 16> H   1.359750000  -2.338250000  -3.430940000
| 17> H   1.303000000  -0.879480000  -2.865760000
| 18> O  -1.752130000  -0.741530000  -2.896280000
| 19> H  -2.036450000  -0.920500000  -1.984040000
| 20> H  -0.921210000  -1.242140000  -2.984230000
| 21> O  -0.885520000   1.737840000   0.052730000
| 22> H  -1.032320000   2.090180000  -0.841890000
| 23> H  -1.284090000   0.839590000   0.017130000
| 24> O   0.885520000  -1.737840000   0.052730000
| 25> H   1.284090000  -0.839590000   0.017130000
| 26> H   1.032320000  -2.090180000  -0.841890000
| 27> O   0.741530000  -1.752130000   2.896280000
| 28> H   0.920500000  -2.036450000   1.984040000
| 29> H   1.242140000  -0.921210000   2.984230000
| 30> *
| 31> 
| 32>                          ****END OF INPUT****
================================================================================

                     *******************************
                     * Energy+Gradient Calculation *
                     *******************************

---------------------------------
CARTESIAN COORDINATES (ANGSTROEM)
---------------------------------
  O      0.923410   -1.794470   -2.768350
  H      1.359750   -2.338250   -3.430940
  H      1.303000   -0.879480   -2.865760
  O     -1.752130   -0.741530   -2.896280
  H     -2.036450   -0.920500   -1.984040
  H     -0.921210   -1.242140   -2.984230
  O     -0.885520    1.737840    0.052730
  H     -1.032320    2.090180   -0.841890
  H     -1.284090    0.839590    0.017130
  O      0.885520   -1.737840    0.052730
  H      1.284090   -0.839590    0.017130
  H      1.032320   -2.090180   -0.841890
  O      0.741530   -1.752130    2.896280
  H      0.920500   -2.036450    1.984040
  H      1.242140   -0.921210    2.984230

----------------------------
CARTESIAN COORDINATES (A.U.)
----------------------------
  NO LB      ZA    FRAG     MASS         X           Y           Z
   0 O     8.0000    0    15.999    1.744992   -3.391057   -5.231423
   1 H     1.0000    0     1.008    2.569555   -4.418652   -6.483537
   2 H     1.0000    0     1.008    2.462313   -1.661976   -5.415502
   3 O     8.0000    0    15.999   -3.311046   -1.401289   -5.473176
   4 H     1.0000    0     1.008   -3.848333   -1.739493   -3.749292
   5 H     1.0000    0     1.008   -1.740835   -2.347304   -5.639377
   6 O     8.0000    0    15.999   -1.673390    3.284042    0.099645
   7 H     1.0000    0     1.008   -1.950802    3.949868   -1.590942
   8 H     1.0000    0     1.008   -2.426578    1.586595    0.032371
   9 O     8.0000    0    15.999    1.673390   -3.284042    0.099645
  10 H     1.0000    0     1.008    2.426578   -1.586595    0.032371
  11 H     1.0000    0     1.008    1.950802   -3.949868   -1.590942
  12 O     8.0000    0    15.999    1.401289   -3.311046    5.473176
  13 H     1.0000    0     1.008    1.739493   -3.848333    3.749292
  14 H     1.0000    0     1.008    2.347304   -1.740835    5.639377

--------------------------------
INTERNAL COORDINATES (ANGSTROEM)
--------------------------------
 O      0   0   0     0.000000000000     0.00000000     0.00000000
 H      1   0   0     0.961828878803     0.00000000     0.00000000
 H      1   2   0     0.995381322057   106.21731035     0.00000000
 O      1   2   3     2.878117964938   126.72240291   103.59081140
 H      4   1   2     0.972136791249    99.37069922   136.92500856
 H      4   1   2     0.974050112161    12.30570018    24.40947955
 O      5   4   1     3.541164138161   107.84672602    83.70571148
 H      7   5   4     0.972645187106    72.17296994    29.09453504
 H      7   5   4     0.983350632989    33.04029707   190.88793319
 O      1   2   3     2.821902722526   134.92023192   245.52250503
 H     10   1   2     0.983350632989    88.66470709   117.24500673
 H     10   1   2     0.972645187106    21.75017499   343.08822912
 O     10   1   2     2.847229166523   177.43098014   265.14132070
 H     13  10  12     0.972136791249    19.08819947     8.79504813
 H     13  10  12     0.974050112161    93.43428486   132.89132802

---------------------------
INTERNAL COORDINATES (A.U.)
---------------------------
 O      0   0   0     0.000000000000     0.00000000     0.00000000
 H      1   0   0     1.817593168635     0.00000000     0.00000000
 H      1   2   0     1.880998097508   106.21731035     0.00000000
 O      1   2   3     5.438854734852   126.72240291   103.59081140
 H      4   1   2     1.837072300170    99.37069922   136.92500856
 H      4   1   2     1.840687952699    12.30570018    24.40947955
 O      5   4   1     6.691830416388   107.84672602    83.70571148
 H      7   5   4     1.838033029106    72.17296994    29.09453504
 H      7   5   4     1.858263389967    33.04029707   190.88793319
 O      1   2   3     5.332623322141   134.92023192   245.52250503
 H     10   1   2     1.858263389967    88.66470709   117.24500673
 H     10   1   2     1.838033029106    21.75017499   343.08822912
 O     10   1   2     5.380483365242   177.43098014   265.14132070
 H     13  10  12     1.837072300170    19.08819947     8.79504813
 H     13  10  12     1.840687952699    93.43428486   132.89132802

---------------------
BASIS SET INFORMATION
---------------------
There are 2 groups of distinct atoms

 Group   1 Type O   : 11s6p2d1f contracted to 5s3p2d1f pattern {62111/411/11/1}
 Group   2 Type H   : 5s1p contracted to 3s1p pattern {311/1}

Atom   0O    basis set group =>   1
Atom   1H    basis set group =>   2
Atom   2H    basis set group =>   2
Atom   3O    basis set group =>   1
Atom   4H    basis set group =>   2
Atom   5H    basis set group =>   2
Atom   6O    basis set group =>   1
Atom   7H    basis set group =>   2
Atom   8H    basis set group =>   2
Atom   9O    basis set group =>   1
Atom  10H    basis set group =>   2
Atom  11H    basis set group =>   2
Atom  12O    basis set group =>   1
Atom  13H    basis set group =>   2
Atom  14H    basis set group =>   2


           ************************************************************
           *        Program running with 6 parallel MPI-processes     *
           *              working on a common directory               *
           ************************************************************
------------------------------------------------------------------------------
                           ORCA GTO INTEGRAL CALCULATION
------------------------------------------------------------------------------

                         BASIS SET STATISTICS AND STARTUP INFO

 # of primitive gaussian shells          ...  160
 # of primitive gaussian functions       ...  310
 # of contracted shells                  ...   95
 # of contracted basis functions         ...  215
 Highest angular momentum                ...    3
 Maximum contraction depth               ...    6
 Integral package used                   ... LIBINT
 Integral threshhold            Thresh   ...  2.500e-11
 Primitive cut-off              TCut     ...  2.500e-12


------------------------------ INTEGRAL EVALUATION ----------------------------


 * One electron integrals 
 Pre-screening matrix                    ... done
 Shell pair data                         ... done (   0.001 sec)



           ************************************************************
           *        Program running with 6 parallel MPI-processes     *
           *              working on a common directory               *
           ************************************************************
-------------------------------------------------------------------------------
                                 ORCA SCF
-------------------------------------------------------------------------------

------------
SCF SETTINGS
------------
Hamiltonian:
 Ab initio Hamiltonian  Method          .... Hartree-Fock(GTOs)


General Settings:
 Integral files         IntName         .... 12h2o.su.etal.mol2,3,4,5,9-orca.engrad-mp2.def2tzvp.frozencore
 Hartree-Fock type      HFTyp           .... RHF
 Total Charge           Charge          ....    0
 Multiplicity           Mult            ....    1
 Number of Electrons    NEL             ....   50
 Basis Dimension        Dim             ....  215
 Nuclear Repulsion      ENuc            ....    182.0574492306 Eh

Convergence Acceleration:
 DIIS                   CNVDIIS         .... on
   Start iteration      DIISMaxIt       ....    12
   Startup error        DIISStart       ....  0.200000
   # of expansion vecs  DIISMaxEq       ....     5
   Bias factor          DIISBfac        ....   1.050
   Max. coefficient     DIISMaxC        ....  10.000
 Newton-Raphson         CNVNR           .... off
 SOSCF                  CNVSOSCF        .... on
   Start iteration      SOSCFMaxIt      ....   150
   Startup grad/error   SOSCFStart      ....  0.003300
 Level Shifting         CNVShift        .... on
   Level shift para.    LevelShift      ....    0.2500
   Turn off err/grad.   ShiftErr        ....    0.0010
 Zerner damping         CNVZerner       .... off
 Static damping         CNVDamp         .... on
   Fraction old density DampFac         ....    0.7000
   Max. Damping (<1)    DampMax         ....    0.9800
   Min. Damping (>=0)   DampMin         ....    0.0000
   Turn off err/grad.   DampErr         ....    0.1000
 Fernandez-Rico         CNVRico         .... off

SCF Procedure:
 Maximum # iterations   MaxIter         ....   125
 SCF integral mode      SCFMode         .... Direct
   Integral package                     .... LIBINT
 Reset frequency        DirectResetFreq ....    20
 Integral Threshold     Thresh          ....  2.500e-11 Eh
 Primitive CutOff       TCut            ....  2.500e-12 Eh

Convergence Tolerance:
 Convergence Check Mode ConvCheckMode   .... Total+1el-Energy
 Convergence forced     ConvForced      .... 1
 Energy Change          TolE            ....  1.000e-08 Eh
 1-El. energy change                    ....  1.000e-05 Eh
 Orbital Gradient       TolG            ....  1.000e-05
 Orbital Rotation angle TolX            ....  1.000e-05
 DIIS Error             TolErr          ....  5.000e-07


Diagonalization of the overlap matrix:
Smallest eigenvalue                        ... 6.896e-03
Time for diagonalization                   ...    0.009 sec
Threshold for overlap eigenvalues          ... 1.000e-08
Number of eigenvalues below threshold      ... 0
Time for construction of square roots      ...    0.019 sec
Total time needed                          ...    0.028 sec

-------------------
DFT GRID GENERATION
-------------------

General Integration Accuracy     IntAcc      ...  4.340
Radial Grid Type                 RadialGrid  ... Gauss-Chebyshev
Angular Grid (max. acc.)         AngularGrid ... Lebedev-110
Angular grid pruning method      GridPruning ... 3 (G Style)
Weight generation scheme         WeightScheme... Becke
Basis function cutoff            BFCut       ...    1.0000e-11
Integration weight cutoff        WCut        ...    1.0000e-14
Grids for H and He will be reduced by one unit

# of grid points (after initial pruning)     ...  16520 (   0.0 sec)
# of grid points (after weights+screening)   ...  15804 (   0.0 sec)
nearest neighbour list constructed           ...    0.0 sec
Grid point re-assignment to atoms done       ...    0.0 sec
Grid point division into batches done        ...    0.0 sec
Reduced shell lists constructed in    0.0 sec

Total number of grid points                  ...    15804
Total number of batches                      ...      254
Average number of points per batch           ...       62
Average number of grid points per atom       ...     1054
Average number of shells per batch           ...    49.25 (51.84%)
Average number of basis functions per batch  ...    99.89 (46.46%)
Average number of large shells per batch     ...    35.91 (72.91%)
Average number of large basis fcns per batch ...    71.00 (71.08%)
Maximum spatial batch extension              ...  16.16, 15.22, 15.57 au
Average spatial batch extension              ...   0.70,  0.63,  0.63 au

Time for grid setup =    0.098 sec

------------------------------
INITIAL GUESS: MODEL POTENTIAL
------------------------------
Loading Hartree-Fock densities                     ... done
Calculating cut-offs                               ... done
Setting up the integral package                    ... done
Initializing the effective Hamiltonian             ... done
Starting the Coulomb interaction                   ... done (   0.0 sec)
Reading the grid                                   ... done
Mapping shells                                     ... done
Starting the XC term evaluation                    ... done (   0.0 sec)
Transforming the Hamiltonian                       ... done (   0.0 sec)
Diagonalizing the Hamiltonian                      ... done (   0.0 sec)
Back transforming the eigenvectors                 ... done (   0.0 sec)
Now organizing SCF variables                       ... done
                      ------------------
                      INITIAL GUESS DONE (   0.3 sec)
                      ------------------
--------------
SCF ITERATIONS
--------------
ITER       Energy         Delta-E        Max-DP      RMS-DP      [F,P]     Damp
               ***  Starting incremental Fock matrix formation  ***
  0   -379.8306596154   0.000000000000 0.04344627  0.00107394  0.3471651 0.7000
  1   -380.0163024085  -0.185642793099 0.02879157  0.00073884  0.2167455 0.7000
                               ***Turning on DIIS***
  2   -380.1136702122  -0.097367803750 0.01647044  0.00040683  0.1638308 0.7000
  3   -380.9512956695  -0.837625457238 0.00766199  0.00018060  0.1218458 0.7000
  4   -380.7772481311   0.174047538323 0.01737126  0.00041770  0.0861852 0.0000
  5   -380.3373889633   0.439859167808 0.00190587  0.00006795  0.0054093 0.0000
                      *** Initiating the SOSCF procedure ***
                           *** Shutting down DIIS ***
                      *** Re-Reading the Fockian *** 
                      *** Removing any level shift *** 
ITER      Energy       Delta-E        Grad      Rot      Max-DP    RMS-DP
  6   -380.30856920   0.0288197586  0.000914  0.000914  0.001012  0.000041
               *** Restarting incremental Fock matrix formation ***
  7   -380.30069043   0.0078787788  0.000319  0.000441  0.000455  0.000018
  8   -380.30069767  -0.0000072441  0.000133  0.000367  0.000431  0.000014
  9   -380.30069935  -0.0000016762  0.000072  0.000042  0.000085  0.000003
 10   -380.30069949  -0.0000001425  0.000012  0.000007  0.000016  0.000000
                  ***Gradient check signals convergence***
              ***Rediagonalizing the Fockian in SOSCF/NRSCF***

               *****************************************************
               *                     SUCCESS                       *
               *           SCF CONVERGED AFTER  11 CYCLES          *
               *****************************************************


----------------
TOTAL SCF ENERGY
----------------

Total Energy       :         -380.30069949 Eh          -10348.50814 eV

Components:
Nuclear Repulsion  :          182.05744923 Eh            4954.03505 eV
Electronic Energy  :         -562.35814872 Eh          -15302.54319 eV
One Electron Energy:         -887.26884083 Eh          -24143.81261 eV
Two Electron Energy:          324.91069211 Eh            8841.26941 eV

Virial components:
Potential Energy   :         -760.02586065 Eh          -20681.35509 eV
Kinetic Energy     :          379.72516116 Eh           10332.84695 eV
Virial Ratio       :            2.00151567


---------------
SCF CONVERGENCE
---------------

  Last Energy change         ...   -3.0801e-09  Tolerance :   1.0000e-08
  Last MAX-Density change    ...    4.5069e-06  Tolerance :   1.0000e-07
  Last RMS-Density change    ...    1.4533e-07  Tolerance :   5.0000e-09
  Last Orbital Gradient      ...    2.0534e-06  Tolerance :   1.0000e-05
  Last Orbital Rotation      ...    2.5790e-06  Tolerance :   1.0000e-05

             **** THE GBW FILE WAS UPDATED (12h2o.su.etal.mol2,3,4,5,9-orca.engrad-mp2.def2tzvp.frozencore.gbw) ****
             **** DENSITY FILE WAS UPDATED (12h2o.su.etal.mol2,3,4,5,9-orca.engrad-mp2.def2tzvp.frozencore.scfp) ****
             **** ENERGY FILE WAS UPDATED (12h2o.su.etal.mol2,3,4,5,9-orca.engrad-mp2.def2tzvp.frozencore.en.tmp) ****
             **** THE GBW FILE WAS UPDATED (12h2o.su.etal.mol2,3,4,5,9-orca.engrad-mp2.def2tzvp.frozencore.gbw) ****
             **** DENSITY FILE WAS UPDATED (12h2o.su.etal.mol2,3,4,5,9-orca.engrad-mp2.def2tzvp.frozencore.scfp) ****
----------------
ORBITAL ENERGIES
----------------

  NO   OCC          E(Eh)            E(eV) 
   0   2.0000     -20.632144      -561.4292 
   1   2.0000     -20.574360      -559.8568 
   2   2.0000     -20.566355      -559.6390 
   3   2.0000     -20.554508      -559.3166 
   4   2.0000     -20.525895      -558.5380 
   5   2.0000      -1.412311       -38.4309 
   6   2.0000      -1.355716       -36.8909 
   7   2.0000      -1.342167       -36.5222 
   8   2.0000      -1.336703       -36.3735 
   9   2.0000      -1.307761       -35.5860 
  10   2.0000      -0.777962       -21.1694 
  11   2.0000      -0.725866       -19.7518 
  12   2.0000      -0.707987       -19.2653 
  13   2.0000      -0.703870       -19.1533 
  14   2.0000      -0.676843       -18.4178 
  15   2.0000      -0.649674       -17.6785 
  16   2.0000      -0.606786       -16.5115 
  17   2.0000      -0.582276       -15.8445 
  18   2.0000      -0.580579       -15.7984 
  19   2.0000      -0.559600       -15.2275 
  20   2.0000      -0.542782       -14.7699 
  21   2.0000      -0.519080       -14.1249 
  22   2.0000      -0.508942       -13.8490 
  23   2.0000      -0.501239       -13.6394 
  24   2.0000      -0.472385       -12.8542 
  25   0.0000       0.073607         2.0030 
  26   0.0000       0.116581         3.1723 
  27   0.0000       0.142488         3.8773 
  28   0.0000       0.153880         4.1873 
  29   0.0000       0.177162         4.8208 
  30   0.0000       0.201722         5.4891 
  31   0.0000       0.227514         6.1910 
  32   0.0000       0.240798         6.5525 
  33   0.0000       0.283736         7.7208 
  34   0.0000       0.292096         7.9483 
  35   0.0000       0.439023        11.9464 
  36   0.0000       0.467694        12.7266 
  37   0.0000       0.486464        13.2374 
  38   0.0000       0.509091        13.8531 
  39   0.0000       0.516133        14.0447 
  40   0.0000       0.546534        14.8720 
  41   0.0000       0.551455        15.0058 
  42   0.0000       0.555799        15.1241 
  43   0.0000       0.571889        15.5619 
  44   0.0000       0.593722        16.1560 
  45   0.0000       0.606768        16.5110 
  46   0.0000       0.612600        16.6697 
  47   0.0000       0.624252        16.9868 
  48   0.0000       0.632945        17.2233 
  49   0.0000       0.657593        17.8940 
  50   0.0000       0.672313        18.2946 
  51   0.0000       0.686429        18.6787 
  52   0.0000       0.699105        19.0236 
  53   0.0000       0.712364        19.3844 
  54   0.0000       0.737110        20.0578 
  55   0.0000       0.751100        20.4385 
  56   0.0000       0.776499        21.1296 
  57   0.0000       0.778261        21.1776 
  58   0.0000       0.804662        21.8960 
  59   0.0000       0.816353        22.2141 
  60   0.0000       0.841496        22.8983 
  61   0.0000       0.909095        24.7377 
  62   0.0000       0.927768        25.2458 
  63   0.0000       0.961882        26.1741 
  64   0.0000       1.026694        27.9378 
  65   0.0000       1.338581        36.4246 
  66   0.0000       1.365611        37.1602 
  67   0.0000       1.394886        37.9568 
  68   0.0000       1.405667        38.2501 
  69   0.0000       1.408534        38.3281 
  70   0.0000       1.438874        39.1537 
  71   0.0000       1.439886        39.1813 
  72   0.0000       1.454662        39.5834 
  73   0.0000       1.478215        40.2243 
  74   0.0000       1.506834        41.0030 
  75   0.0000       1.527279        41.5594 
  76   0.0000       1.543700        42.0062 
  77   0.0000       1.565334        42.5949 
  78   0.0000       1.583011        43.0759 
  79   0.0000       1.624468        44.2040 
  80   0.0000       1.781921        48.4885 
  81   0.0000       1.796238        48.8781 
  82   0.0000       1.817900        49.4676 
  83   0.0000       1.850822        50.3634 
  84   0.0000       1.859869        50.6096 
  85   0.0000       1.894101        51.5411 
  86   0.0000       1.921942        52.2987 
  87   0.0000       1.934703        52.6459 
  88   0.0000       1.973106        53.6909 
  89   0.0000       2.002982        54.5039 
  90   0.0000       2.019175        54.9446 
  91   0.0000       2.027264        55.1647 
  92   0.0000       2.070981        56.3543 
  93   0.0000       2.086054        56.7644 
  94   0.0000       2.140884        58.2564 
  95   0.0000       2.247195        61.1493 
  96   0.0000       2.273897        61.8759 
  97   0.0000       2.304366        62.7050 
  98   0.0000       2.319133        63.1068 
  99   0.0000       2.324814        63.2614 
 100   0.0000       2.332024        63.4576 
 101   0.0000       2.343560        63.7715 
 102   0.0000       2.351575        63.9896 
 103   0.0000       2.356768        64.1309 
 104   0.0000       2.374039        64.6009 
 105   0.0000       2.375447        64.6392 
 106   0.0000       2.382977        64.8441 
 107   0.0000       2.423660        65.9511 
 108   0.0000       2.477079        67.4048 
 109   0.0000       2.493707        67.8572 
 110   0.0000       2.552769        69.4644 
 111   0.0000       2.585462        70.3540 
 112   0.0000       2.603661        70.8492 
 113   0.0000       2.615394        71.1685 
 114   0.0000       2.629803        71.5606 
 115   0.0000       2.667077        72.5749 
 116   0.0000       2.681329        72.9627 
 117   0.0000       2.691972        73.2523 
 118   0.0000       2.723373        74.1067 
 119   0.0000       2.736081        74.4525 
 120   0.0000       2.864832        77.9560 
 121   0.0000       2.924940        79.5917 
 122   0.0000       2.936037        79.8936 
 123   0.0000       2.951412        80.3120 
 124   0.0000       2.951786        80.3222 
 125   0.0000       2.969636        80.8079 
 126   0.0000       2.985916        81.2509 
 127   0.0000       2.996518        81.5394 
 128   0.0000       3.013012        81.9882 
 129   0.0000       3.040072        82.7246 
 130   0.0000       3.058184        83.2174 
 131   0.0000       3.071899        83.5906 
 132   0.0000       3.108391        84.5836 
 133   0.0000       3.127182        85.0949 
 134   0.0000       3.155919        85.8769 
 135   0.0000       3.183330        86.6228 
 136   0.0000       3.236464        88.0687 
 137   0.0000       3.242879        88.2432 
 138   0.0000       3.292117        89.5830 
 139   0.0000       3.348543        91.1185 
 140   0.0000       3.952839       107.5622 
 141   0.0000       4.018279       109.3429 
 142   0.0000       4.021466       109.4296 
 143   0.0000       4.061276       110.5129 
 144   0.0000       4.083134       111.1077 
 145   0.0000       4.248798       115.6157 
 146   0.0000       4.292342       116.8006 
 147   0.0000       4.298807       116.9765 
 148   0.0000       4.326181       117.7214 
 149   0.0000       4.345870       118.2571 
 150   0.0000       5.481954       149.1716 
 151   0.0000       5.536859       150.6656 
 152   0.0000       5.545511       150.9010 
 153   0.0000       5.552488       151.0909 
 154   0.0000       5.575896       151.7278 
 155   0.0000       5.581407       151.8778 
 156   0.0000       5.645642       153.6257 
 157   0.0000       5.649036       153.7181 
 158   0.0000       5.658584       153.9779 
 159   0.0000       5.686898       154.7484 
 160   0.0000       5.743903       156.2996 
 161   0.0000       5.786569       157.4605 
 162   0.0000       5.806672       158.0076 
 163   0.0000       5.813309       158.1882 
 164   0.0000       5.830765       158.6632 
 165   0.0000       5.844812       159.0454 
 166   0.0000       5.846154       159.0819 
 167   0.0000       5.850992       159.2136 
 168   0.0000       5.862208       159.5188 
 169   0.0000       5.874510       159.8535 
 170   0.0000       5.882284       160.0651 
 171   0.0000       5.884966       160.1381 
 172   0.0000       5.902745       160.6219 
 173   0.0000       5.904755       160.6766 
 174   0.0000       5.934505       161.4861 
 175   0.0000       6.362645       173.1364 
 176   0.0000       6.454316       175.6309 
 177   0.0000       6.465297       175.9297 
 178   0.0000       6.488714       176.5669 
 179   0.0000       6.523033       177.5008 
 180   0.0000       6.633266       180.5003 
 181   0.0000       6.660899       181.2523 
 182   0.0000       6.678959       181.7437 
 183   0.0000       6.717404       182.7899 
 184   0.0000       6.726948       183.0496 
 185   0.0000       6.815260       185.4527 
 186   0.0000       6.825432       185.7294 
 187   0.0000       6.839123       186.1020 
 188   0.0000       6.840552       186.1409 
 189   0.0000       6.851424       186.4367 
 190   0.0000       6.865931       186.8315 
 191   0.0000       6.880005       187.2145 
 192   0.0000       6.882051       187.2701 
 193   0.0000       6.893285       187.5758 
 194   0.0000       6.914531       188.1540 
 195   0.0000       6.942997       188.9285 
 196   0.0000       6.947685       189.0561 
 197   0.0000       6.961606       189.4349 
 198   0.0000       6.984977       190.0709 
 199   0.0000       7.007157       190.6744 
 200   0.0000       7.308544       198.8756 
 201   0.0000       7.344115       199.8435 
 202   0.0000       7.361823       200.3254 
 203   0.0000       7.402372       201.4288 
 204   0.0000       7.406169       201.5321 
 205   0.0000       7.441107       202.4828 
 206   0.0000       7.505518       204.2355 
 207   0.0000       7.545890       205.3341 
 208   0.0000       7.561275       205.7528 
 209   0.0000       7.593540       206.6307 
 210   0.0000      44.851815      1220.4799 
 211   0.0000      44.870198      1220.9802 
 212   0.0000      44.913777      1222.1660 
 213   0.0000      44.930607      1222.6240 
 214   0.0000      44.961712      1223.4704 

                    ********************************
                    * MULLIKEN POPULATION ANALYSIS *
                    ********************************

-----------------------
MULLIKEN ATOMIC CHARGES
-----------------------
   0 O :   -0.743001
   1 H :    0.380017
   2 H :    0.379160
   3 O :   -0.722579
   4 H :    0.339398
   5 H :    0.375441
   6 O :   -0.701733
   7 H :    0.349821
   8 H :    0.350865
   9 O :   -0.737025
  10 H :    0.344094
  11 H :    0.390392
  12 O :   -0.717377
  13 H :    0.385405
  14 H :    0.327122
Sum of atomic charges:   -0.0000000

--------------------------------
MULLIKEN REDUCED ORBITAL CHARGES
--------------------------------
  0 O s       :     3.807813  s :     3.807813
      pz      :     1.734352  p :     4.909737
      px      :     1.795126
      py      :     1.380259
      dz2     :     0.004005  d :     0.023975
      dxz     :     0.005455
      dyz     :     0.004459
      dx2y2   :     0.002566
      dxy     :     0.007490
      f0      :     0.000085  f :     0.001475
      f+1     :     0.000179
      f-1     :     0.000335
      f+2     :     0.000063
      f-2     :     0.000348
      f+3     :     0.000374
      f-3     :     0.000093
  1 H s       :     0.575157  s :     0.575157
      pz      :     0.016949  p :     0.044827
      px      :     0.014559
      py      :     0.013319
  2 H s       :     0.580205  s :     0.580205
      pz      :     0.010525  p :     0.040635
      px      :     0.012144
      py      :     0.017965
  3 O s       :     3.809867  s :     3.809867
      pz      :     1.496135  p :     4.885656
      px      :     1.569297
      py      :     1.820224
      dz2     :     0.012042  d :     0.025566
      dxz     :     0.001262
      dyz     :     0.002975
      dx2y2   :     0.002105
      dxy     :     0.007182
      f0      :     0.000272  f :     0.001490
      f+1     :     0.000380
      f-1     :     0.000169
      f+2     :     0.000056
      f-2     :     0.000056
      f+3     :     0.000065
      f-3     :     0.000491
  4 H s       :     0.615619  s :     0.615619
      pz      :     0.018689  p :     0.044983
      px      :     0.012394
      py      :     0.013899
  5 H s       :     0.574328  s :     0.574328
      pz      :     0.010047  p :     0.050231
      px      :     0.023662
      py      :     0.016522
  6 O s       :     3.817349  s :     3.817349
      pz      :     1.533162  p :     4.856522
      px      :     1.871070
      py      :     1.452290
      dz2     :     0.011985  d :     0.026355
      dxz     :     0.002687
      dyz     :     0.002991
      dx2y2   :     0.003279
      dxy     :     0.005413
      f0      :     0.000182  f :     0.001507
      f+1     :     0.000129
      f-1     :     0.000460
      f+2     :     0.000078
      f-2     :     0.000042
      f+3     :     0.000488
      f-3     :     0.000128
  7 H s       :     0.605560  s :     0.605560
      pz      :     0.018658  p :     0.044618
      px      :     0.014077
      py      :     0.011883
  8 H s       :     0.605626  s :     0.605626
      pz      :     0.010113  p :     0.043510
      px      :     0.014988
      py      :     0.018408
  9 O s       :     3.810343  s :     3.810343
      pz      :     1.587188  p :     4.901074
      px      :     1.873564
      py      :     1.440322
      dz2     :     0.010317  d :     0.024137
      dxz     :     0.002518
      dyz     :     0.002564
      dx2y2   :     0.003158
      dxy     :     0.005580
      f0      :     0.000183  f :     0.001472
      f+1     :     0.000123
      f-1     :     0.000433
      f+2     :     0.000078
      f-2     :     0.000037
      f+3     :     0.000490
      f-3     :     0.000129
 10 H s       :     0.612533  s :     0.612533
      pz      :     0.009843  p :     0.043373
      px      :     0.015274
      py      :     0.018255
 11 H s       :     0.560439  s :     0.560439
      pz      :     0.024417  p :     0.049169
      px      :     0.013382
      py      :     0.011370
 12 O s       :     3.810392  s :     3.810392
      pz      :     1.553608  p :     4.879911
      px      :     1.815287
      py      :     1.511016
      dz2     :     0.011575  d :     0.025577
      dxz     :     0.003052
      dyz     :     0.001202
      dx2y2   :     0.002129
      dxy     :     0.007619
      f0      :     0.000249  f :     0.001497
      f+1     :     0.000168
      f-1     :     0.000375
      f+2     :     0.000056
      f-2     :     0.000056
      f+3     :     0.000521
      f-3     :     0.000071
 13 H s       :     0.565878  s :     0.565878
      pz      :     0.024319  p :     0.048716
      px      :     0.012867
      py      :     0.011530
 14 H s       :     0.627757  s :     0.627757
      pz      :     0.011108  p :     0.045121
      px      :     0.016013
      py      :     0.017999


                     *******************************
                     * LOEWDIN POPULATION ANALYSIS *
                     *******************************

----------------------
LOEWDIN ATOMIC CHARGES
----------------------
   0 O :   -0.296631
   1 H :    0.170494
   2 H :    0.192268
   3 O :   -0.343905
   4 H :    0.159211
   5 H :    0.152495
   6 O :   -0.337525
   7 H :    0.165600
   8 H :    0.170650
   9 O :   -0.329266
  10 H :    0.168058
  11 H :    0.157184
  12 O :   -0.342542
  13 H :    0.156749
  14 H :    0.157161

-------------------------------
LOEWDIN REDUCED ORBITAL CHARGES
-------------------------------
  0 O s       :     3.462600  s :     3.462600
      pz      :     1.688508  p :     4.800524
      px      :     1.748058
      py      :     1.363957
      dz2     :     0.005476  d :     0.031443
      dxz     :     0.005277
      dyz     :     0.006556
      dx2y2   :     0.004289
      dxy     :     0.009845
      f0      :     0.000090  f :     0.002064
      f+1     :     0.000269
      f-1     :     0.000449
      f+2     :     0.000033
      f-2     :     0.000593
      f+3     :     0.000539
      f-3     :     0.000091
  1 H s       :     0.665302  s :     0.665302
      pz      :     0.066817  p :     0.164204
      px      :     0.052716
      py      :     0.044671
  2 H s       :     0.658859  s :     0.658859
      pz      :     0.033386  p :     0.148874
      px      :     0.043531
      py      :     0.071956
  3 O s       :     3.466823  s :     3.466823
      pz      :     1.505263  p :     4.842914
      px      :     1.544998
      py      :     1.792653
      dz2     :     0.016418  d :     0.032032
      dxz     :     0.002145
      dyz     :     0.002431
      dx2y2   :     0.002131
      dxy     :     0.008907
      f0      :     0.000501  f :     0.002137
      f+1     :     0.000581
      f-1     :     0.000317
      f+2     :     0.000025
      f-2     :     0.000049
      f+3     :     0.000002
      f-3     :     0.000660
  4 H s       :     0.682446  s :     0.682446
      pz      :     0.079549  p :     0.158343
      px      :     0.036317
      py      :     0.042477
  5 H s       :     0.675405  s :     0.675405
      pz      :     0.029769  p :     0.172100
      px      :     0.084573
      py      :     0.057757
  6 O s       :     3.478317  s :     3.478317
      pz      :     1.541616  p :     4.823689
      px      :     1.833415
      py      :     1.448658
      dz2     :     0.015728  d :     0.033352
      dxz     :     0.001799
      dyz     :     0.004317
      dx2y2   :     0.004515
      dxy     :     0.006992
      f0      :     0.000383  f :     0.002167
      f+1     :     0.000205
      f-1     :     0.000768
      f+2     :     0.000050
      f-2     :     0.000044
      f+3     :     0.000642
      f-3     :     0.000074
  7 H s       :     0.676795  s :     0.676795
      pz      :     0.079650  p :     0.157605
      px      :     0.042896
      py      :     0.035059
  8 H s       :     0.676553  s :     0.676553
      pz      :     0.029218  p :     0.152796
      px      :     0.049334
      py      :     0.074244
  9 O s       :     3.465479  s :     3.465479
      pz      :     1.553517  p :     4.830111
      px      :     1.832541
      py      :     1.444053
      dz2     :     0.014518  d :     0.031606
      dxz     :     0.001657
      dyz     :     0.003788
      dx2y2   :     0.004448
      dxy     :     0.007195
      f0      :     0.000357  f :     0.002069
      f+1     :     0.000194
      f-1     :     0.000710
      f+2     :     0.000043
      f-2     :     0.000040
      f+3     :     0.000650
      f-3     :     0.000074
 10 H s       :     0.678125  s :     0.678125
      pz      :     0.030601  p :     0.153817
      px      :     0.049285
      py      :     0.073932
 11 H s       :     0.671601  s :     0.671601
      pz      :     0.092951  p :     0.171214
      px      :     0.042744
      py      :     0.035519
 12 O s       :     3.468170  s :     3.468170
      pz      :     1.536472  p :     4.839918
      px      :     1.786357
      py      :     1.517090
      dz2     :     0.015345  d :     0.032304
      dxz     :     0.002368
      dyz     :     0.001853
      dx2y2   :     0.002411
      dxy     :     0.010326
      f0      :     0.000435  f :     0.002150
      f+1     :     0.000321
      f-1     :     0.000568
      f+2     :     0.000025
      f-2     :     0.000045
      f+3     :     0.000752
      f-3     :     0.000003
 13 H s       :     0.672909  s :     0.672909
      pz      :     0.092922  p :     0.170343
      px      :     0.041844
      py      :     0.035577
 14 H s       :     0.685793  s :     0.685793
      pz      :     0.031381  p :     0.157046
      px      :     0.054855
      py      :     0.070810


                      *****************************
                      * MAYER POPULATION ANALYSIS *
                      *****************************

  NA   - Mulliken gross atomic population
  ZA   - Total nuclear charge
  QA   - Mulliken gross atomic charge
  VA   - Mayer's total valence
  BVA  - Mayer's bonded valence
  FA   - Mayer's free valence

  ATOM       NA         ZA         QA         VA         BVA        FA
  0 O      8.7430     8.0000    -0.7430     1.7559     1.7559     0.0000
  1 H      0.6200     1.0000     0.3800     0.8714     0.8714    -0.0000
  2 H      0.6208     1.0000     0.3792     0.8709     0.8709    -0.0000
  3 O      8.7226     8.0000    -0.7226     1.7563     1.7563    -0.0000
  4 H      0.6606     1.0000     0.3394     0.9012     0.9012    -0.0000
  5 H      0.6246     1.0000     0.3754     0.8864     0.8864    -0.0000
  6 O      8.7017     8.0000    -0.7017     1.7764     1.7764    -0.0000
  7 H      0.6502     1.0000     0.3498     0.8927     0.8927     0.0000
  8 H      0.6491     1.0000     0.3509     0.8962     0.8962     0.0000
  9 O      8.7370     8.0000    -0.7370     1.7478     1.7478    -0.0000
 10 H      0.6559     1.0000     0.3441     0.9009     0.9009    -0.0000
 11 H      0.6096     1.0000     0.3904     0.8742     0.8742    -0.0000
 12 O      8.7174     8.0000    -0.7174     1.7566     1.7566    -0.0000
 13 H      0.6146     1.0000     0.3854     0.8763     0.8763    -0.0000
 14 H      0.6729     1.0000     0.3271     0.9073     0.9073    -0.0000

  Mayer bond orders larger than 0.100000
B(  0-O ,  1-H ) :   0.8626 B(  0-O ,  2-H ) :   0.8588 B(  3-O ,  4-H ) :   0.8934 
B(  3-O ,  5-H ) :   0.8583 B(  6-O ,  7-H ) :   0.8862 B(  6-O ,  8-H ) :   0.8827 
B(  9-O , 10-H ) :   0.8845 B(  9-O , 11-H ) :   0.8446 B( 12-O , 13-H ) :   0.8525 
B( 12-O , 14-H ) :   0.9026 

-------
TIMINGS
-------

Total SCF time: 0 days 0 hours 0 min 10 sec 

Total time                  ....      10.441 sec
Sum of individual times     ....       9.918 sec  ( 95.0%)

Fock matrix formation       ....       8.873 sec  ( 85.0%)
Diagonalization             ....       0.252 sec  (  2.4%)
Density matrix formation    ....       0.079 sec  (  0.8%)
Population analysis         ....       0.039 sec  (  0.4%)
Initial guess               ....       0.166 sec  (  1.6%)
Orbital Transformation      ....       0.000 sec  (  0.0%)
Orbital Orthonormalization  ....       0.000 sec  (  0.0%)
DIIS solution               ....       0.066 sec  (  0.6%)
SOSCF solution              ....       0.345 sec  (  3.3%)


           ************************************************************
           *        Program running with 6 parallel MPI-processes     *
           *              working on a common directory               *
           ************************************************************

------------------------------------------------------------------------------
                                ORCA  MP2 
------------------------------------------------------------------------------

Freezing NCore=10 chemical core electrons
MP2 will be done in the AO integral direct mode
The Q1-step will be done using symmetric double matrices
Dimension of the basis                    ...  215
Memory devoted for MP2                    ... 8000 MB   
Memory needed for all in one shot         ...  153 MB
Number of MOs that can be treated together...  209      
MP2 density construction                  ... relaxed
The MP2 gradient is requested => amplitudes will be stored on disk
Total number of MOs              ...   20
Number of MOs treated per batch  ...    4 
Number of batches necessary      ...    1 
OPERATORS   0/  0 PASS   0
-----------------------------------------------
 MP2 CORRELATION ENERGY   :     -1.286147247 Eh
-----------------------------------------------


---------------------
MP2 DENSITY FORMATION
---------------------

Completing the external part of the density      ... done
Storing the unrelaxed density                    ... done

Calculating G(D)                                 ... done
Completing the Lagrangian                        ... done
Solving the Z-vector equations                   ... 

------------------------------------------------------------------------------
                           ORCA CP-SCF CALCULATION
------------------------------------------------------------------------------

Input orbitals are from        ... 12h2o.su.etal.mol2,3,4,5,9-orca.engrad-mp2.def2tzvp.frozencore.gbw
Input Perturbation             ... 12h2o.su.etal.mol2,3,4,5,9-orca.engrad-mp2.def2tzvp.frozencore.pin.tmp
Wavefunction output            ... 12h2o.su.etal.mol2,3,4,5,9-orca.engrad-mp2.def2tzvp.frozencore.pout.tmp
Perturbation mode              ... Real perturbation (singlet)
Solver                         ... POPLE
Max. number of iterations      ... 128
Convergence tolerance          ... 1.000e-08
Integral handling              ... Direct
Number of perturbations        ... 1
Number of operators            ... 1
Orbital ranges used for CP-SCF:
 Operator 0:  Orbitals   0... 24  to  25...214
Variables per vector in CP-SCF ... 4750
Number of vectors sought       ... 1
     CP-SCF ITERATION   0: 
     CP-SCF ITERATION   1:      0.000623323361
     CP-SCF ITERATION   2:      0.000013933173
     CP-SCF ITERATION   3:      0.000000537261
     CP-SCF ITERATION   4:      0.000000045007
     CP-SCF ITERATION   5:      0.000000003098
                                                 ... done
Finalizing the relaxed density                   ... done
Transforming P to the AO basis                   ... done
Storing the relaxed density                      ... done

------------------------------------
ENERGY WEIGHTED DENSITY FINALIZATION
------------------------------------

Gathering the parts of the W-matrix              ...                                                      done
Forming the Z-density                            ... done
Transforming Z to the AO basis                   ... done
Calculating G(Z)                                 ... done
Finalizing the W-matrix                          ...                                                      done
Transforming W to the AO basis and storing       ... done

                *********************************************
                * UNRELAXED MP2 DENSITY POPULATION ANALYSIS *
                *********************************************

------------------------------------------------------------------------------
                           ORCA POPULATION ANALYSIS
------------------------------------------------------------------------------
Input electron density              ... 12h2o.su.etal.mol2,3,4,5,9-orca.engrad-mp2.def2tzvp.frozencore.pmp2ur
BaseName (.gbw .S,...)              ... 12h2o.su.etal.mol2,3,4,5,9-orca.engrad-mp2.def2tzvp.frozencore

                    ********************************
                    * MULLIKEN POPULATION ANALYSIS *
                    ********************************

-----------------------
MULLIKEN ATOMIC CHARGES
-----------------------
   0 O :   -0.737327
   1 H :    0.377794
   2 H :    0.376305
   3 O :   -0.717243
   4 H :    0.336884
   5 H :    0.372335
   6 O :   -0.696631
   7 H :    0.347425
   8 H :    0.348085
   9 O :   -0.731425
  10 H :    0.341207
  11 H :    0.387558
  12 O :   -0.712213
  13 H :    0.382536
  14 H :    0.324708
Sum of atomic charges:   -0.0000000

--------------------------------
MULLIKEN REDUCED ORBITAL CHARGES
--------------------------------
  0 O s       :     3.802967  s :     3.802967
      pz      :     1.723308  p :     4.879100
      px      :     1.783344
      py      :     1.372448
      dz2     :     0.009560  d :     0.051215
      dxz     :     0.010951
      dyz     :     0.009859
      dx2y2   :     0.008040
      dxy     :     0.012806
      f0      :     0.000457  f :     0.004044
      f+1     :     0.000546
      f-1     :     0.000697
      f+2     :     0.000432
      f-2     :     0.000713
      f+3     :     0.000734
      f-3     :     0.000464
  1 H s       :     0.575887  s :     0.575887
      pz      :     0.017398  p :     0.046319
      px      :     0.015235
      py      :     0.013686
  2 H s       :     0.581558  s :     0.581558
      pz      :     0.011345  p :     0.042138
      px      :     0.012889
      py      :     0.017904
  3 O s       :     3.805033  s :     3.805033
      pz      :     1.487257  p :     4.855964
      px      :     1.560016
      py      :     1.808691
      dz2     :     0.017044  d :     0.052197
      dxz     :     0.006649
      dyz     :     0.008412
      dx2y2   :     0.007641
      dxy     :     0.012452
      f0      :     0.000646  f :     0.004050
      f+1     :     0.000745
      f-1     :     0.000540
      f+2     :     0.000415
      f-2     :     0.000421
      f+3     :     0.000435
      f-3     :     0.000848
  4 H s       :     0.616443  s :     0.616443
      pz      :     0.018782  p :     0.046673
      px      :     0.013117
      py      :     0.014774
  5 H s       :     0.575824  s :     0.575824
      pz      :     0.010830  p :     0.051840
      px      :     0.023872
      py      :     0.017138
  6 O s       :     3.812492  s :     3.812492
      pz      :     1.523937  p :     4.827427
      px      :     1.859448
      py      :     1.444042
      dz2     :     0.016955  d :     0.052664
      dxz     :     0.008116
      dyz     :     0.008228
      dx2y2   :     0.008635
      dxy     :     0.010731
      f0      :     0.000560  f :     0.004048
      f+1     :     0.000498
      f-1     :     0.000821
      f+2     :     0.000437
      f-2     :     0.000404
      f+3     :     0.000838
      f-3     :     0.000490
  7 H s       :     0.606331  s :     0.606331
      pz      :     0.018795  p :     0.046244
      px      :     0.014945
      py      :     0.012504
  8 H s       :     0.606772  s :     0.606772
      pz      :     0.010946  p :     0.045142
      px      :     0.015758
      py      :     0.018438
  9 O s       :     3.805496  s :     3.805496
      pz      :     1.577291  p :     4.870666
      px      :     1.861691
      py      :     1.431685
      dz2     :     0.015667  d :     0.051223
      dxz     :     0.008122
      dyz     :     0.007951
      dx2y2   :     0.008559
      dxy     :     0.010925
      f0      :     0.000569  f :     0.004039
      f+1     :     0.000498
      f-1     :     0.000801
      f+2     :     0.000440
      f-2     :     0.000402
      f+3     :     0.000839
      f-3     :     0.000490
 10 H s       :     0.613773  s :     0.613773
      pz      :     0.010677  p :     0.045020
      px      :     0.016064
      py      :     0.018278
 11 H s       :     0.561759  s :     0.561759
      pz      :     0.024533  p :     0.050683
      px      :     0.014217
      py      :     0.011933
 12 O s       :     3.805579  s :     3.805579
      pz      :     1.544230  p :     4.850420
      px      :     1.804101
      py      :     1.502089
      dz2     :     0.016691  d :     0.052158
      dxz     :     0.008500
      dyz     :     0.006576
      dx2y2   :     0.007590
      dxy     :     0.012801
      f0      :     0.000629  f :     0.004056
      f+1     :     0.000541
      f-1     :     0.000741
      f+2     :     0.000415
      f-2     :     0.000420
      f+3     :     0.000872
      f-3     :     0.000437
 13 H s       :     0.567208  s :     0.567208
      pz      :     0.024373  p :     0.050256
      px      :     0.013702
      py      :     0.012181
 14 H s       :     0.628440  s :     0.628440
      pz      :     0.011937  p :     0.046853
      px      :     0.016723
      py      :     0.018192


                     *******************************
                     * LOEWDIN POPULATION ANALYSIS *
                     *******************************

----------------------
LOEWDIN ATOMIC CHARGES
----------------------
   0 O :   -0.292280
   1 H :    0.169373
   2 H :    0.190483
   3 O :   -0.341014
   4 H :    0.157665
   5 H :    0.150444
   6 O :   -0.334481
   7 H :    0.164213
   8 H :    0.168908
   9 O :   -0.325576
  10 H :    0.166176
  11 H :    0.155244
  12 O :   -0.339741
  13 H :    0.154919
  14 H :    0.155668

-------------------------------
LOEWDIN REDUCED ORBITAL CHARGES
-------------------------------
  0 O s       :     3.458833  s :     3.458833
      pz      :     1.677046  p :     4.768864
      px      :     1.736035
      py      :     1.355783
      dz2     :     0.011161  d :     0.059757
      dxz     :     0.011055
      dyz     :     0.012161
      dx2y2   :     0.009863
      dxy     :     0.015517
      f0      :     0.000474  f :     0.004827
      f+1     :     0.000656
      f-1     :     0.000859
      f+2     :     0.000409
      f-2     :     0.001000
      f+3     :     0.000952
      f-3     :     0.000476
  1 H s       :     0.663570  s :     0.663570
      pz      :     0.067951  p :     0.167057
      px      :     0.053662
      py      :     0.045445
  2 H s       :     0.657644  s :     0.657644
      pz      :     0.034215  p :     0.151873
      px      :     0.044506
      py      :     0.073152
  3 O s       :     3.463103  s :     3.463103
      pz      :     1.496014  p :     4.813248
      px      :     1.535660
      py      :     1.781573
      dz2     :     0.022149  d :     0.059773
      dxz     :     0.007467
      dyz     :     0.007808
      dx2y2   :     0.007636
      dxy     :     0.014714
      f0      :     0.000918  f :     0.004891
      f+1     :     0.001001
      f-1     :     0.000711
      f+2     :     0.000389
      f-2     :     0.000421
      f+3     :     0.000377
      f-3     :     0.001075
  4 H s       :     0.680693  s :     0.680693
      pz      :     0.081233  p :     0.161642
      px      :     0.037101
      py      :     0.043307
  5 H s       :     0.674511  s :     0.674511
      pz      :     0.030526  p :     0.175046
      px      :     0.085805
      py      :     0.058715
  6 O s       :     3.474502  s :     3.474502
      pz      :     1.532107  p :     4.794317
      px      :     1.822208
      py      :     1.440003
      dz2     :     0.021350  d :     0.060763
      dxz     :     0.007159
      dyz     :     0.009569
      dx2y2   :     0.010075
      dxy     :     0.012611
      f0      :     0.000791  f :     0.004900
      f+1     :     0.000590
      f-1     :     0.001197
      f+2     :     0.000416
      f-2     :     0.000412
      f+3     :     0.001046
      f-3     :     0.000447
  7 H s       :     0.675032  s :     0.675032
      pz      :     0.081259  p :     0.160755
      px      :     0.043685
      py      :     0.035811
  8 H s       :     0.675102  s :     0.675102
      pz      :     0.030015  p :     0.155990
      px      :     0.050291
      py      :     0.075684
  9 O s       :     3.461713  s :     3.461713
      pz      :     1.543090  p :     4.799200
      px      :     1.821066
      py      :     1.435043
      dz2     :     0.020458  d :     0.059831
      dxz     :     0.007192
      dyz     :     0.009230
      dx2y2   :     0.010078
      dxy     :     0.012872
      f0      :     0.000774  f :     0.004832
      f+1     :     0.000585
      f-1     :     0.001147
      f+2     :     0.000413
      f-2     :     0.000412
      f+3     :     0.001055
      f-3     :     0.000447
 10 H s       :     0.676694  s :     0.676694
      pz      :     0.031451  p :     0.157131
      px      :     0.050271
      py      :     0.075409
 11 H s       :     0.670706  s :     0.670706
      pz      :     0.094271  p :     0.174050
      px      :     0.043526
      py      :     0.036253
 12 O s       :     3.464440  s :     3.464440
      pz      :     1.527027  p :     4.810413
      px      :     1.775477
      py      :     1.507909
      dz2     :     0.021127  d :     0.059986
      dxz     :     0.007761
      dyz     :     0.007180
      dx2y2   :     0.007865
      dxy     :     0.016053
      f0      :     0.000855  f :     0.004902
      f+1     :     0.000718
      f-1     :     0.000989
      f+2     :     0.000388
      f-2     :     0.000417
      f+3     :     0.001162
      f-3     :     0.000375
 13 H s       :     0.671876  s :     0.671876
      pz      :     0.094239  p :     0.173205
      px      :     0.042658
      py      :     0.036308
 14 H s       :     0.683880  s :     0.683880
      pz      :     0.032167  p :     0.160452
      px      :     0.055976
      py      :     0.072309


                      *****************************
                      * MAYER POPULATION ANALYSIS *
                      *****************************

  NA   - Mulliken gross atomic population
  ZA   - Total nuclear charge
  QA   - Mulliken gross atomic charge
  VA   - Mayer's total valence
  BVA  - Mayer's bonded valence
  FA   - Mayer's free valence

  ATOM       NA         ZA         QA         VA         BVA        FA
  0 O      8.7373     8.0000    -0.7373     2.0680     1.6763     0.3917
  1 H      0.6222     1.0000     0.3778     0.8767     0.8327     0.0440
  2 H      0.6237     1.0000     0.3763     0.8770     0.8298     0.0472
  3 O      8.7172     8.0000    -0.7172     2.0635     1.6756     0.3879
  4 H      0.6631     1.0000     0.3369     0.9075     0.8591     0.0484
  5 H      0.6277     1.0000     0.3723     0.8928     0.8476     0.0453
  6 O      8.6966     8.0000    -0.6966     2.0812     1.6938     0.3875
  7 H      0.6526     1.0000     0.3474     0.8987     0.8514     0.0473
  8 H      0.6519     1.0000     0.3481     0.9026     0.8541     0.0485
  9 O      8.7314     8.0000    -0.7314     2.0592     1.6671     0.3921
 10 H      0.6588     1.0000     0.3412     0.9075     0.8578     0.0497
 11 H      0.6124     1.0000     0.3876     0.8801     0.8362     0.0439
 12 O      8.7122     8.0000    -0.7122     2.0626     1.6759     0.3867
 13 H      0.6175     1.0000     0.3825     0.8823     0.8382     0.0441
 14 H      0.6753     1.0000     0.3247     0.9135     0.8642     0.0493

  Mayer bond orders larger than 0.100000
B(  0-O ,  1-H ) :   0.8245 B(  0-O ,  2-H ) :   0.8184 B(  3-O ,  4-H ) :   0.8518 
B(  3-O ,  5-H ) :   0.8201 B(  6-O ,  7-H ) :   0.8453 B(  6-O ,  8-H ) :   0.8412 
B(  9-O , 10-H ) :   0.8422 B(  9-O , 11-H ) :   0.8074 B( 12-O , 13-H ) :   0.8150 
B( 12-O , 14-H ) :   0.8600 


                *******************************************
                * RELAXED MP2 DENSITY POPULATION ANALYSIS *
                *******************************************

------------------------------------------------------------------------------
                           ORCA POPULATION ANALYSIS
------------------------------------------------------------------------------
Input electron density              ... 12h2o.su.etal.mol2,3,4,5,9-orca.engrad-mp2.def2tzvp.frozencore.pmp2re
BaseName (.gbw .S,...)              ... 12h2o.su.etal.mol2,3,4,5,9-orca.engrad-mp2.def2tzvp.frozencore

                    ********************************
                    * MULLIKEN POPULATION ANALYSIS *
                    ********************************

-----------------------
MULLIKEN ATOMIC CHARGES
-----------------------
   0 O :   -0.715356
   1 H :    0.370418
   2 H :    0.369374
   3 O :   -0.699469
   4 H :    0.330438
   5 H :    0.357249
   6 O :   -0.681618
   7 H :    0.340383
   8 H :    0.339379
   9 O :   -0.709330
  10 H :    0.333110
  11 H :    0.372566
  12 O :   -0.695593
  13 H :    0.369280
  14 H :    0.319171
Sum of atomic charges:   -0.0000000

--------------------------------
MULLIKEN REDUCED ORBITAL CHARGES
--------------------------------
  0 O s       :     3.806627  s :     3.806627
      pz      :     1.714193  p :     4.855686
      px      :     1.772169
      py      :     1.369324
      dz2     :     0.009332  d :     0.049073
      dxz     :     0.010696
      dyz     :     0.009280
      dx2y2   :     0.007791
      dxy     :     0.011974
      f0      :     0.000456  f :     0.003970
      f+1     :     0.000538
      f-1     :     0.000678
      f+2     :     0.000431
      f-2     :     0.000692
      f+3     :     0.000713
      f-3     :     0.000463
  1 H s       :     0.582609  s :     0.582609
      pz      :     0.017504  p :     0.046973
      px      :     0.015868
      py      :     0.013601
  2 H s       :     0.587946  s :     0.587946
      pz      :     0.012161  p :     0.042680
      px      :     0.013578
      py      :     0.016941
  3 O s       :     3.806518  s :     3.806518
      pz      :     1.480417  p :     4.838919
      px      :     1.557301
      py      :     1.801200
      dz2     :     0.015672  d :     0.050055
      dxz     :     0.006597
      dyz     :     0.008378
      dx2y2   :     0.007595
      dxy     :     0.011813
      f0      :     0.000628  f :     0.003977
      f+1     :     0.000724
      f-1     :     0.000529
      f+2     :     0.000415
      f-2     :     0.000420
      f+3     :     0.000436
      f-3     :     0.000825
  4 H s       :     0.622083  s :     0.622083
      pz      :     0.018003  p :     0.047479
      px      :     0.013723
      py      :     0.015752
  5 H s       :     0.590335  s :     0.590335
      pz      :     0.011494  p :     0.052415
      px      :     0.023356
      py      :     0.017565
  6 O s       :     3.817063  s :     3.817063
      pz      :     1.516408  p :     4.810275
      px      :     1.854092
      py      :     1.439775
      dz2     :     0.015686  d :     0.050307
      dxz     :     0.008155
      dyz     :     0.007958
      dx2y2   :     0.008312
      dxy     :     0.010196
      f0      :     0.000545  f :     0.003974
      f+1     :     0.000491
      f-1     :     0.000791
      f+2     :     0.000438
      f-2     :     0.000403
      f+3     :     0.000817
      f-3     :     0.000489
  7 H s       :     0.612670  s :     0.612670
      pz      :     0.018126  p :     0.046947
      px      :     0.015916
      py      :     0.012904
  8 H s       :     0.614749  s :     0.614749
      pz      :     0.011695  p :     0.045872
      px      :     0.016571
      py      :     0.017606
  9 O s       :     3.807520  s :     3.807520
      pz      :     1.568941  p :     4.848809
      px      :     1.856113
      py      :     1.423754
      dz2     :     0.014597  d :     0.049034
      dxz     :     0.008151
      dyz     :     0.007678
      dx2y2   :     0.008242
      dxy     :     0.010365
      f0      :     0.000557  f :     0.003968
      f+1     :     0.000491
      f-1     :     0.000771
      f+2     :     0.000440
      f-2     :     0.000401
      f+3     :     0.000818
      f-3     :     0.000489
 10 H s       :     0.621016  s :     0.621016
      pz      :     0.011498  p :     0.045874
      px      :     0.016937
      py      :     0.017439
 11 H s       :     0.576169  s :     0.576169
      pz      :     0.023834  p :     0.051266
      px      :     0.015126
      py      :     0.012306
 12 O s       :     3.807496  s :     3.807496
      pz      :     1.540543  p :     4.834137
      px      :     1.798974
      py      :     1.494620
      dz2     :     0.015470  d :     0.049977
      dxz     :     0.008467
      dyz     :     0.006528
      dx2y2   :     0.007510
      dxy     :     0.012001
      f0      :     0.000613  f :     0.003984
      f+1     :     0.000531
      f-1     :     0.000719
      f+2     :     0.000416
      f-2     :     0.000419
      f+3     :     0.000848
      f-3     :     0.000438
 13 H s       :     0.579983  s :     0.579983
      pz      :     0.023524  p :     0.050737
      px      :     0.014566
      py      :     0.012647
 14 H s       :     0.633118  s :     0.633118
      pz      :     0.012707  p :     0.047712
      px      :     0.017344
      py      :     0.017660


                     *******************************
                     * LOEWDIN POPULATION ANALYSIS *
                     *******************************

----------------------
LOEWDIN ATOMIC CHARGES
----------------------
   0 O :   -0.286799
   1 H :    0.170842
   2 H :    0.191565
   3 O :   -0.342121
   4 H :    0.159033
   5 H :    0.146367
   6 O :   -0.336724
   7 H :    0.165539
   8 H :    0.169314
   9 O :   -0.323508
  10 H :    0.166963
  11 H :    0.151394
  12 O :   -0.341293
  13 H :    0.151607
  14 H :    0.157821

-------------------------------
LOEWDIN REDUCED ORBITAL CHARGES
-------------------------------
  0 O s       :     3.460609  s :     3.460609
      pz      :     1.672102  p :     4.762598
      px      :     1.729549
      py      :     1.360947
      dz2     :     0.011116  d :     0.058746
      dxz     :     0.011053
      dyz     :     0.011819
      dx2y2   :     0.009663
      dxy     :     0.015096
      f0      :     0.000478  f :     0.004846
      f+1     :     0.000657
      f-1     :     0.000864
      f+2     :     0.000409
      f-2     :     0.001001
      f+3     :     0.000958
      f-3     :     0.000479
  1 H s       :     0.662454  s :     0.662454
      pz      :     0.067901  p :     0.166704
      px      :     0.054154
      py      :     0.044649
  2 H s       :     0.656647  s :     0.656647
      pz      :     0.034892  p :     0.151788
      px      :     0.045166
      py      :     0.071729
  3 O s       :     3.464603  s :     3.464603
      pz      :     1.497771  p :     4.814009
      px      :     1.537251
      py      :     1.778988
      dz2     :     0.021385  d :     0.058599
      dxz     :     0.007324
      dyz     :     0.007828
      dx2y2   :     0.007602
      dxy     :     0.014459
      f0      :     0.000917  f :     0.004911
      f+1     :     0.001010
      f-1     :     0.000709
      f+2     :     0.000391
      f-2     :     0.000421
      f+3     :     0.000377
      f-3     :     0.001086
  4 H s       :     0.678958  s :     0.678958
      pz      :     0.080490  p :     0.162009
      px      :     0.037334
      py      :     0.044185
  5 H s       :     0.678092  s :     0.678092
      pz      :     0.030909  p :     0.175541
      px      :     0.085364
      py      :     0.059268
  6 O s       :     3.476625  s :     3.476625
      pz      :     1.532881  p :     4.795800
      px      :     1.819536
      py      :     1.443383
      dz2     :     0.020638  d :     0.059382
      dxz     :     0.007228
      dyz     :     0.009319
      dx2y2   :     0.009857
      dxy     :     0.012340
      f0      :     0.000787  f :     0.004916
      f+1     :     0.000589
      f-1     :     0.001207
      f+2     :     0.000419
      f-2     :     0.000411
      f+3     :     0.001055
      f-3     :     0.000449
  7 H s       :     0.673677  s :     0.673677
      pz      :     0.080585  p :     0.160784
      px      :     0.044550
      py      :     0.035649
  8 H s       :     0.674485  s :     0.674485
      pz      :     0.030480  p :     0.156201
      px      :     0.051090
      py      :     0.074632
  9 O s       :     3.463116  s :     3.463116
      pz      :     1.540966  p :     4.796743
      px      :     1.818123
      py      :     1.437655
      dz2     :     0.020070  d :     0.058795
      dxz     :     0.007270
      dyz     :     0.009036
      dx2y2   :     0.009855
      dxy     :     0.012565
      f0      :     0.000778  f :     0.004854
      f+1     :     0.000585
      f-1     :     0.001156
      f+2     :     0.000416
      f-2     :     0.000411
      f+3     :     0.001061
      f-3     :     0.000449
 10 H s       :     0.675541  s :     0.675541
      pz      :     0.031980  p :     0.157496
      px      :     0.051048
      py      :     0.074468
 11 H s       :     0.674304  s :     0.674304
      pz      :     0.093643  p :     0.174302
      px      :     0.044469
      py      :     0.036190
 12 O s       :     3.465896  s :     3.465896
      pz      :     1.528112  p :     4.811694
      px      :     1.773905
      py      :     1.509676
      dz2     :     0.020525  d :     0.058782
      dxz     :     0.007788
      dyz     :     0.007053
      dx2y2   :     0.007791
      dxy     :     0.015625
      f0      :     0.000859  f :     0.004921
      f+1     :     0.000716
      f-1     :     0.000996
      f+2     :     0.000390
      f-2     :     0.000416
      f+3     :     0.001169
      f-3     :     0.000375
 13 H s       :     0.674932  s :     0.674932
      pz      :     0.093331  p :     0.173461
      px      :     0.043543
      py      :     0.036587
 14 H s       :     0.681250  s :     0.681250
      pz      :     0.032616  p :     0.160929
      px      :     0.056617
      py      :     0.071696


                      *****************************
                      * MAYER POPULATION ANALYSIS *
                      *****************************

  NA   - Mulliken gross atomic population
  ZA   - Total nuclear charge
  QA   - Mulliken gross atomic charge
  VA   - Mayer's total valence
  BVA  - Mayer's bonded valence
  FA   - Mayer's free valence

  ATOM       NA         ZA         QA         VA         BVA        FA
  0 O      8.7154     8.0000    -0.7154     2.1060     1.7206     0.3854
  1 H      0.6296     1.0000     0.3704     0.8827     0.8387     0.0440
  2 H      0.6306     1.0000     0.3694     0.8841     0.8370     0.0471
  3 O      8.6995     8.0000    -0.6995     2.0752     1.6925     0.3827
  4 H      0.6696     1.0000     0.3304     0.9128     0.8644     0.0484
  5 H      0.6428     1.0000     0.3572     0.9139     0.8690     0.0449
  6 O      8.6816     8.0000    -0.6816     2.0889     1.7065     0.3824
  7 H      0.6596     1.0000     0.3404     0.9046     0.8573     0.0473
  8 H      0.6606     1.0000     0.3394     0.9123     0.8641     0.0482
  9 O      8.7093     8.0000    -0.7093     2.0867     1.7006     0.3861
 10 H      0.6669     1.0000     0.3331     0.9162     0.8668     0.0494
 11 H      0.6274     1.0000     0.3726     0.8996     0.8560     0.0435
 12 O      8.6956     8.0000    -0.6956     2.0740     1.6922     0.3818
 13 H      0.6307     1.0000     0.3693     0.9002     0.8563     0.0439
 14 H      0.6808     1.0000     0.3192     0.9172     0.8678     0.0494

  Mayer bond orders larger than 0.100000
B(  0-O ,  1-H ) :   0.8284 B(  0-O ,  2-H ) :   0.8216 B(  3-O ,  4-H ) :   0.8551 
B(  3-O ,  5-H ) :   0.8244 B(  6-O ,  7-H ) :   0.8497 B(  6-O ,  8-H ) :   0.8454 
B(  9-O , 10-H ) :   0.8445 B(  9-O , 11-H ) :   0.8122 B( 12-O , 13-H ) :   0.8208 
B( 12-O , 14-H ) :   0.8632 


----------------------------------
MP2 DERIVATIVE INTEGRAL GENERATION
----------------------------------


Input Wavefunction Amplitudes       ... 12h2o.su.etal.mol2,3,4,5,9-orca.engrad-mp2.def2tzvp.frozencore.mp2tsaa.tmp
Input Correlated Electron Density   ... 12h2o.su.etal.mol2,3,4,5,9-orca.engrad-mp2.def2tzvp.frozencore.pmp2re
Input Energy Weighted Density       ... 12h2o.su.etal.mol2,3,4,5,9-orca.engrad-mp2.def2tzvp.frozencore.wmp2.tmp
Input SCF Electron Density          ... 12h2o.su.etal.mol2,3,4,5,9-orca.engrad-mp2.def2tzvp.frozencore.scfp

One-Electron Terms    ...
                        ... One-Electron Terms done
Prescreening matrices              ... done

Batch handling in the gradient evaluation:
Memory available                      ... 8000.0 MB
Memory per occupied orbital in Q2     ...    7.1 MB
Memory per occupied orbital in Q3     ...    0.1 MB
Total memory requirement per |i>      ...    7.1 MB
Max. Number of orbitals possible      ...   1121
Number of orbitals treated per batch  ...     20
Number of batches to be done          ...      1
Batch   0: i=    5 ...    24

---------------------------------------
MP2 TOTAL ENERGY:     -381.586846739 Eh
---------------------------------------

The final MP2 gradient
  0:  -0.00955851  -0.02606027   0.00028038
  1:  -0.00247857   0.00025315   0.00321154
  2:   0.00881451   0.02606806   0.00059429
  3:  -0.00269955   0.00144897  -0.00917857
  4:  -0.00208386   0.00044346   0.00965512
  5:   0.00665763  -0.00159752  -0.00205681
  6:   0.00657389   0.01521561   0.01010747
  7:  -0.00024602   0.00348378  -0.00791557
  8:  -0.00761640  -0.01725360  -0.00173144
  9:  -0.00993091  -0.01645783   0.00393878
 10:   0.00900024   0.01600184  -0.00118651
 11:   0.00219347  -0.00183771  -0.00363934
 12:  -0.00866475  -0.00847939   0.00074243
 13:   0.00345917  -0.00158308  -0.00307293
 14:   0.00657966   0.01035453   0.00025114

-----------------------------------
NORM OF THE MP2 GRADIENT:  0.060536
-----------------------------------

-------------------------   --------------------
FINAL SINGLE POINT ENERGY      -381.586846739046
-------------------------   --------------------


                            ***************************************
                            *     ORCA property calculations      *
                            ***************************************

                                    ---------------------
                                    Active property flags
                                    ---------------------
   (+) Dipole Moment


------------------------------------------------------------------------------
                       ORCA ELECTRIC PROPERTIES CALCULATION
------------------------------------------------------------------------------

Dipole Moment Calculation                       ... on
Quadrupole Moment Calculation                   ... off
Polarizability Calculation                      ... off
GBWName                                         ... 12h2o.su.etal.mol2,3,4,5,9-orca.engrad-mp2.def2tzvp.frozencore.gbw
Electron density file                           ... 12h2o.su.etal.mol2,3,4,5,9-orca.engrad-mp2.def2tzvp.frozencore.scfp
The origin for moment calculation is the CENTER OF MASS  = ( 0.010232, -1.615640 -1.061842)

-------------
DIPOLE MOMENT
-------------
                                X             Y             Z
Electronic contribution:     -0.10573      -0.16293      -0.07378
Nuclear contribution   :      1.69977       0.19829      -2.18115
                        -----------------------------------------
Total Dipole Moment    :      1.59404       0.03537      -2.25493
                        -----------------------------------------
Magnitude (a.u.)       :      2.76169
Magnitude (Debye)      :      7.01966



--------------------
Rotational spectrum 
--------------------
 
Rotational constants in cm-1:     0.065925     0.035892     0.025953 
Rotational constants in MHz :  1976.385300  1076.021685   778.043127 

 Dipole components along the rotational axes: 
x,y,z [a.u.] :    -1.752466    -1.286710    -1.702988 
x,y,z [Debye]:    -4.454415    -3.270556    -4.328652 

 

                         *** MP2 UNRELAXED DENSITY ***

------------------------------------------------------------------------------
                       ORCA ELECTRIC PROPERTIES CALCULATION
------------------------------------------------------------------------------

Dipole Moment Calculation                       ... on
Quadrupole Moment Calculation                   ... off
Polarizability Calculation                      ... off
GBWName                                         ... 12h2o.su.etal.mol2,3,4,5,9-orca.engrad-mp2.def2tzvp.frozencore.gbw
Electron density file                           ... 12h2o.su.etal.mol2,3,4,5,9-orca.engrad-mp2.def2tzvp.frozencore.pmp2ur
The origin for moment calculation is the CENTER OF MASS  = ( 0.010232, -1.615640 -1.061842)

-------------
DIPOLE MOMENT
-------------
                                X             Y             Z
Electronic contribution:     -0.12254      -0.16684      -0.05526
Nuclear contribution   :      1.69977       0.19829      -2.18115
                        -----------------------------------------
Total Dipole Moment    :      1.57723       0.03145      -2.23642
                        -----------------------------------------
Magnitude (a.u.)       :      2.73682
Magnitude (Debye)      :      6.95645



--------------------
Rotational spectrum 
--------------------
 
Rotational constants in cm-1:     0.065925     0.035892     0.025953 
Rotational constants in MHz :  1976.385300  1076.021685   778.043127 

 Dipole components along the rotational axes: 
x,y,z [a.u.] :    -1.738727    -1.277217    -1.683966 
x,y,z [Debye]:    -4.419493    -3.246427    -4.280300 

 

                           *** MP2 RELAXED DENSITY ***

------------------------------------------------------------------------------
                       ORCA ELECTRIC PROPERTIES CALCULATION
------------------------------------------------------------------------------

Dipole Moment Calculation                       ... on
Quadrupole Moment Calculation                   ... off
Polarizability Calculation                      ... off
GBWName                                         ... 12h2o.su.etal.mol2,3,4,5,9-orca.engrad-mp2.def2tzvp.frozencore.gbw
Electron density file                           ... 12h2o.su.etal.mol2,3,4,5,9-orca.engrad-mp2.def2tzvp.frozencore.pmp2re
The origin for moment calculation is the CENTER OF MASS  = ( 0.010232, -1.615640 -1.061842)

-------------
DIPOLE MOMENT
-------------
                                X             Y             Z
Electronic contribution:     -0.14172      -0.16359      -0.03701
Nuclear contribution   :      1.69977       0.19829      -2.18115
                        -----------------------------------------
Total Dipole Moment    :      1.55806       0.03471      -2.21816
                        -----------------------------------------
Magnitude (a.u.)       :      2.71090
Magnitude (Debye)      :      6.89056



--------------------
Rotational spectrum 
--------------------
 
Rotational constants in cm-1:     0.065925     0.035892     0.025953 
Rotational constants in MHz :  1976.385300  1076.021685   778.043127 

 Dipole components along the rotational axes: 
x,y,z [a.u.] :    -1.726494    -1.260627    -1.667035 
x,y,z [Debye]:    -4.388400    -3.204259    -4.237266 

 

Timings for individual modules:

Sum of individual times         ...       46.262 sec (=   0.771 min)
GTO integral calculation        ...        3.787 sec (=   0.063 min)   8.2 %
SCF iterations                  ...       13.301 sec (=   0.222 min)  28.8 %
MP2 module                      ...       29.174 sec (=   0.486 min)  63.1 %
                             ****ORCA TERMINATED NORMALLY****
TOTAL RUN TIME: 0 days 0 hours 0 minutes 49 seconds 979 msec
