22
Energy:   -370.33838822
Na  -0.05103979  -0.26459837   0.14994332
O   -1.45414917  -1.10413099  -1.47834660
H   -2.19361333  -0.68606231  -1.91953043
H   -1.63404603  -2.04192249  -1.54480010
O   -0.46021773  -1.15138040   2.54262505
H   -1.33692797  -1.15766458   2.92677543
H    0.12485140  -1.33809364   3.27683491
O    1.54691036   1.67334814  -0.64156488
H    1.34752813   1.93582191  -1.54022282
H    2.40067885   2.06646859  -0.46054684
C   -3.62796309   3.02534971   1.67311789
H   -3.33224842   4.01091221   1.37965655
H   -3.68435284   2.97282046   2.74033856
H   -4.58645377   2.80086928   1.25382889
C   -2.59290017   2.00556148   1.16294466
N   -1.82224878   1.24628278   0.78309751
C    4.07852068  -2.38643984  -2.01919625
H    4.81358440  -2.60872413  -1.27409813
H    4.43701955  -1.60048663  -2.65058773
H    3.89212085  -3.26010946  -2.60814072
C    2.77288211  -1.94026977  -1.33520781
N    1.80077484  -1.60807588  -0.82594732
