22
Energy:   -370.84348895
Na  -1.77563705   0.47919144   0.82146191
O    0.34284546  -1.08951152  -1.96237174
H    0.17111160  -1.54298390  -2.78766086
H    1.29741795  -1.06635193  -1.89538782
O   -0.85133833   1.25270396  -1.12726445
H   -0.71838685   2.01428127  -1.69167188
H   -0.38059604   0.54392869  -1.56575180
O   -0.89269900  -1.60231906   0.45007596
H   -0.78360569  -2.48820009   0.79582919
H   -0.41175938  -1.60678878  -0.37751630
C    5.80448166  -1.19558195  -2.01087332
H    6.11693690  -0.69049336  -2.90090557
H    6.09371432  -2.22435855  -2.06437355
H    6.26660223  -0.73891447  -1.16069776
C    4.27338998  -1.09912234  -1.87650889
N    3.13342262  -1.02730377  -1.77646847
C   -4.73310847   2.48964555   4.37941281
H   -4.28810502   3.38877200   4.75149310
H   -4.85153182   1.79175859   5.18180223
H   -5.69048669   2.71368671   3.95735643
C   -3.82522910   1.87755825   3.29649814
N   -3.14927164   1.42183143   2.49021895
