22
Energy:   -368.79468904
Na  -1.11911943  -0.00242469  -1.20845827
O    0.28112299   0.72581736   0.42834757
H    0.27977679   1.66948486   0.58872740
H    0.91610930   0.37697698   1.05391501
O   -1.75774883   2.18485298  -1.52321758
H   -1.29394991   2.76801633  -0.92234912
H   -2.32224572   2.76559395  -2.03342836
O   -0.19677959   3.49192257   0.38666232
H   -0.58709086   3.90395265   1.15745423
H    0.51624236   4.07919048   0.13576803
C    3.94332614  -1.17426935   4.05505733
H    4.89300885  -0.72223714   3.85841095
H    4.03178836  -2.23783060   3.97817434
H    3.62165669  -0.91352045   5.04168688
C    2.91213518  -0.66940727   3.02872430
N    2.14436663  -0.29351451   2.26457271
C   -2.60327736  -4.22624325  -3.53482801
H   -2.32004313  -5.07246737  -2.94441859
H   -2.13560254  -4.28876057  -4.49517740
H   -3.66635770  -4.21550549  -3.65584038
C   -2.15398328  -2.93378693  -2.82822240
N   -1.81946341  -1.97149445  -2.30212241
