22
Energy:   -382.54298644
Na   0.46364217  -0.87662178   1.45902158
O    0.23809128  -1.89580240   3.52969613
H    0.15978584  -2.82429894   3.74877207
H    0.21495549  -1.44703134   4.37485950
O    1.90512029  -1.63623511  -0.20404188
H    1.57439990  -1.86552378  -1.07253631
H    2.84307747  -1.82216074  -0.24762900
O   -1.42421432  -1.10420716   0.15676039
H   -2.36994429  -1.18329500   0.28154734
H   -1.31647277  -0.97474330  -0.78550429
C    1.23087421   4.07381534   2.15127822
H    0.43680624   4.49197195   2.73394562
H    1.22036225   4.50540671   1.17223917
H    2.16804954   4.28312028   2.62328769
C    1.04003562   2.54956809   2.04241613
N    0.89794761   1.41469673   1.96136335
C   -1.85268699  -0.03669239  -5.02815174
H   -2.04219031  -0.93632023  -5.57556238
H   -1.14281253   0.56166092  -5.56008280
H   -2.76529313   0.51004704  -4.91358689
C   -1.28816078  -0.38997897  -3.63959178
N   -0.86784536  -0.65301690  -2.60574578
