22
Energy:   -382.21488559
Na   0.73084372  -0.12712496  -1.39865230
O    0.66239701  -0.73117571  -3.63693237
H    1.28801706  -0.61031757  -4.35123253
H   -0.05558202  -1.22869349  -4.02835799
O    1.54613494  -1.55360087   0.32164612
H    1.00162699  -2.17319049   0.80729171
H    2.38944051  -1.56922433   0.77422039
O   -1.44881386  -0.32397962  -0.66553465
H   -2.30963243   0.00954542  -0.91848579
H   -1.58044587  -0.68876137   0.20958770
C    2.59771488   4.53177956  -0.70647403
H    1.78419386   5.21992944  -0.80411353
H    3.36651734   4.78687077  -1.40559515
H    2.98930306   4.58124195   0.28806670
C    2.09848102   3.10302607  -0.99113004
N    1.72677873   2.03925416  -1.20306938
C   -3.19621298  -2.20926301   4.02788169
H   -4.22799060  -2.01187896   3.82447409
H   -2.87727733  -1.61761296   4.86042560
H   -3.07019970  -3.24652200   4.25834541
C   -2.35161682  -1.85200409   2.79069804
N   -1.72277659  -1.58600859   1.86955857
