
                                 *****************
                                 * O   R   C   A *
                                 *****************

           --- An Ab Initio, DFT and Semiempirical electronic structure package ---

                  #######################################################
                  #                        -***-                        #
                  #          Department of theory and spectroscopy      #
                  #               Directorship: Frank Neese             #
                  #        Max Planck Institute fuer Kohlenforschung    #
                  #                Kaiser Wilhelm Platz 1               #
                  #                 D-45470 Muelheim/Ruhr               #
                  #                      Germany                        #
                  #                                                     #
                  #                  All rights reserved                #
                  #                        -***-                        #
                  #######################################################


                         Program Version 4.2.0 -  RELEASE  -


 With contributions from (in alphabetic order):
   Daniel Aravena         : Magnetic Suceptibility
   Michael Atanasov       : Ab Initio Ligand Field Theory (pilot matlab implementation)
   Alexander A. Auer      : GIAO ZORA, VPT2
   Ute Becker             : Parallelization
   Giovanni Bistoni       : ED, misc. LED, open-shell LED, HFLED
   Martin Brehm           : Molecular dynamics
   Dmytro Bykov           : SCF Hessian
   Vijay G. Chilkuri      : MRCI spin determinant printing, contributions to CSF-ICE
   Dipayan Datta          : RHF DLPNO-CCSD density
   Achintya Kumar Dutta   : EOM-CC, STEOM-CC
   Dmitry Ganyushin       : Spin-Orbit,Spin-Spin,Magnetic field MRCI
   Miquel Garcia          : C-PCM Hessian, Gaussian charge scheme
   Yang Guo               : DLPNO-NEVPT2, CIM, IAO-localization
   Andreas Hansen         : Spin unrestricted coupled pair/coupled cluster methods
   Benjamin Helmich-Paris : CASSCF linear response (MC-RPA)
   Lee Huntington         : MR-EOM, pCC
   Robert Izsak           : Overlap fitted RIJCOSX, COSX-SCS-MP3, EOM
   Christian Kollmar      : KDIIS, OOCD, Brueckner-CCSD(T), CCSD density
   Simone Kossmann        : Meta GGA functionals, TD-DFT gradient, OOMP2, MP2 Hessian
   Martin Krupicka        : AUTO-CI
   Lucas Lang             : DCDCAS
   Dagmar Lenk            : GEPOL surface, SMD
   Dimitrios Liakos       : Extrapolation schemes; Compound Job, initial MDCI parallelization
   Dimitrios Manganas     : Further ROCIS development; embedding schemes
   Dimitrios Pantazis     : SARC Basis sets
   Taras Petrenko         : DFT Hessian,TD-DFT gradient, ASA, ECA, R-Raman, ABS, FL, XAS/XES, NRVS
   Peter Pinski           : DLPNO-MP2, DLPNO-MP2 Gradient
   Christoph Reimann      : Effective Core Potentials
   Marius Retegan         : Local ZFS, SOC
   Christoph Riplinger    : Optimizer, TS searches, QM/MM, DLPNO-CCSD(T), (RO)-DLPNO pert. Triples
   Tobias Risthaus        : Range-separated hybrids, TD-DFT gradient, RPA, STAB
   Michael Roemelt        : Original ROCIS implementation
   Masaaki Saitow         : Open-shell DLPNO-CCSD energy and density
   Barbara Sandhoefer     : DKH picture change effects
   Avijit Sen             : IP-ROCIS
   Kantharuban Sivalingam : CASSCF convergence, NEVPT2, FIC-MRCI
   Bernardo de Souza      : ESD, SOC TD-DFT
   Georgi Stoychev        : AutoAux, RI-MP2 NMR
   Willem Van den Heuvel  : Paramagnetic NMR
   Boris Wezisla          : Elementary symmetry handling
   Frank Wennmohs         : Technical directorship


 We gratefully acknowledge several colleagues who have allowed us to
 interface, adapt or use parts of their codes:
   Stefan Grimme, W. Hujo, H. Kruse,             : VdW corrections, initial TS optimization,
                  C. Bannwarth                     DFT functionals, gCP, sTDA/sTD-DF
   Ed Valeev, F. Pavosevic, A. Kumar             : LibInt (2-el integral package), F12 methods
   Garnet Chan, S. Sharma, J. Yang, R. Olivares  : DMRG
   Ulf Ekstrom                                   : XCFun DFT Library
   Mihaly Kallay                                 : mrcc  (arbitrary order and MRCC methods)
   Andreas Klamt, Michael Diedenhofen            : otool_cosmo (COSMO solvation model)
   Jiri Pittner, Ondrej Demel                    : Mk-CCSD
   Frank Weinhold                                : gennbo (NPA and NBO analysis)
   Christopher J. Cramer and Donald G. Truhlar   : smd solvation model
   Lars Goerigk                                  : TD-DFT with DH, B97 family of functionals
   V. Asgeirsson, H. Jonsson                     : NEB implementation
   FAccTs GmbH                                   : IRC, NEB, NEB-TS, Multilevel, MM, QM/MM, CI optimization
   S Lehtola, MJT Oliveira, MAL Marques          : LibXC Library


 Your calculation uses the libint2 library for the computation of 2-el integrals
 For citations please refer to: http://libint.valeyev.net

 Your ORCA version has been built with support for libXC version: 4.2.3
 For citations please refer to: https://tddft.org/programs/libxc/

 This ORCA versions uses:
   CBLAS   interface :  Fast vector & matrix operations
   LAPACKE interface :  Fast linear algebra routines
   SCALAPACK package :  Parallel linear algebra routines


----- Orbital basis set information -----
Your calculation utilizes the basis: def2-TZVP
   F. Weigend and R. Ahlrichs, Phys. Chem. Chem. Phys. 7, 3297 (2005).

================================================================================
                                        WARNINGS
                       Please study these warnings very carefully!
================================================================================


WARNING: The frozen-core approximation for MP2-gradient calculations is turned on by default.

INFO   : the flag for use of LIBINT has been found!

================================================================================
                                       INPUT FILE
================================================================================
NAME = 12mecn.remya.etal.2.mol1,4,7-orca.engrad-mp2.def2tzvp.frozencore.inp
|  1> # 12mecn.remya.etal.2.mol1,4,7
|  2> ! MP2 def2-TZVP EnGrad TightSCF
|  3> 
|  4> %pal
|  5>     nprocs 6
|  6> end
|  7> 
|  8> %maxcore 8000
|  9> 
| 10> %scf
| 11>     ConvForced true
| 12> end
| 13> 
| 14> *xyz 0 1
| 15> C  -4.697980000  -0.249690000   1.746215000
| 16> H  -4.927570000   0.755530000   2.111799000
| 17> H  -3.709180000  -0.561560000   2.093253000
| 18> H  -5.432280000  -0.961520000   2.128066000
| 19> C  -4.714100000  -0.247110000   0.301670000
| 20> N  -4.729750000  -0.234960000  -0.865260000
| 21> C  -1.509690000  -0.693960000  -1.610140000
| 22> H  -1.327010000  -1.692700000  -2.017370000
| 23> H  -0.742170000  -0.000650000  -1.964400000
| 24> H  -2.491920000  -0.334310000  -1.929350000
| 25> C  -1.473570000  -0.748120000  -0.167200000
| 26> N  -1.447490000  -0.793720000   0.998938000
| 27> C   1.502241000   0.651296000   1.710523000
| 28> H   1.309219000   1.637164000   2.143202000
| 29> H   2.493408000   0.297996000   2.009069000
| 30> H   0.746597000  -0.059850000   2.055508000
| 31> C   1.447974000   0.738517000   0.269805000
| 32> N   1.405612000   0.808047000  -0.894380000
| 33> *
| 34> 
| 35>                          ****END OF INPUT****
================================================================================

                     *******************************
                     * Energy+Gradient Calculation *
                     *******************************

---------------------------------
CARTESIAN COORDINATES (ANGSTROEM)
---------------------------------
  C     -4.697980   -0.249690    1.746215
  H     -4.927570    0.755530    2.111799
  H     -3.709180   -0.561560    2.093253
  H     -5.432280   -0.961520    2.128066
  C     -4.714100   -0.247110    0.301670
  N     -4.729750   -0.234960   -0.865260
  C     -1.509690   -0.693960   -1.610140
  H     -1.327010   -1.692700   -2.017370
  H     -0.742170   -0.000650   -1.964400
  H     -2.491920   -0.334310   -1.929350
  C     -1.473570   -0.748120   -0.167200
  N     -1.447490   -0.793720    0.998938
  C      1.502241    0.651296    1.710523
  H      1.309219    1.637164    2.143202
  H      2.493408    0.297996    2.009069
  H      0.746597   -0.059850    2.055508
  C      1.447974    0.738517    0.269805
  N      1.405612    0.808047   -0.894380

----------------------------
CARTESIAN COORDINATES (A.U.)
----------------------------
  NO LB      ZA    FRAG     MASS         X           Y           Z
   0 C     6.0000    0    12.011   -8.877896   -0.471846    3.299868
   1 H     1.0000    0     1.008   -9.311758    1.427745    3.990722
   2 H     1.0000    0     1.008   -7.009334   -1.061195    3.955675
   3 H     1.0000    0     1.008  -10.265521   -1.817009    4.021462
   4 C     6.0000    0    12.011   -8.908358   -0.466970    0.570074
   5 N     7.0000    0    14.007   -8.937932   -0.444010   -1.635104
   6 C     6.0000    0    12.011   -2.852901   -1.311394   -3.042724
   7 H     1.0000    0     1.008   -2.507685   -3.198739   -3.812277
   8 H     1.0000    0     1.008   -1.402498   -0.001228   -3.712178
   9 H     1.0000    0     1.008   -4.709046   -0.631754   -3.645943
  10 C     6.0000    0    12.011   -2.784644   -1.413742   -0.315962
  11 N     7.0000    0    14.007   -2.735360   -1.499913    1.887719
  12 C     6.0000    0    12.011    2.838824    1.230771    3.232420
  13 H     1.0000    0     1.008    2.474065    3.093792    4.050065
  14 H     1.0000    0     1.008    4.711858    0.563131    3.796590
  15 H     1.0000    0     1.008    1.410864   -0.113100    3.884347
  16 C     6.0000    0    12.011    2.736274    1.395595    0.509858
  17 N     7.0000    0    14.007    2.656222    1.526988   -1.690133

--------------------------------
INTERNAL COORDINATES (ANGSTROEM)
--------------------------------
 C      0   0   0     0.000000000000     0.00000000     0.00000000
 H      1   0   0     1.093997476028     0.00000000     0.00000000
 H      1   2   0     1.093354338878   110.23188073     0.00000000
 H      1   2   3     1.091654077582   109.94364040   119.12222513
 C      1   2   3     1.444637244371   109.27900475   240.05041290
 N      5   1   2     1.167098183488   179.48927802   358.44615688
 C      6   5   1     3.336811894309   102.05360307   112.84708689
 H      7   6   5     1.093933198555   111.70560639   108.16292756
 H      7   6   5     1.093282147526   131.49629836   255.54745959
 H      7   6   5     1.093626499085    32.13524685   201.45653336
 C      7   6   5     1.444407769157    78.83036115     1.46927785
 N     11   7   6     1.167320590688   179.82285150    38.98509084
 C     12  11   7     3.360853675012   102.37599048   176.20143007
 H     13  12  11     1.093802689222   108.44532641   108.12217721
 H     13  12  11     1.093783628514   135.58124102   257.11437053
 H     13  12  11     1.093499491667    34.98317750   206.60063568
 C     13  12  11     1.444375562537    77.39648930     1.52261537
 N     17  13  12     1.167028566132   179.91347457   239.46838652

---------------------------
INTERNAL COORDINATES (A.U.)
---------------------------
 C      0   0   0     0.000000000000     0.00000000     0.00000000
 H      1   0   0     2.067355620894     0.00000000     0.00000000
 H      1   2   0     2.066140267815   110.23188073     0.00000000
 H      1   2   3     2.062927239608   109.94364040   119.12222513
 C      1   2   3     2.729968754725   109.27900475   240.05041290
 N      5   1   2     2.205495938188   179.48927802   358.44615688
 C      6   5   1     6.305660640654   102.05360307   112.84708689
 H      7   6   5     2.067234154073   111.70560639   108.16292756
 H      7   6   5     2.066003845930   131.49629836   255.54745959
 H      7   6   5     2.066654576069    32.13524685   201.45653336
 C      7   6   5     2.729535109414    78.83036115     1.46927785
 N     11   7   6     2.205916226887   179.82285150    38.98509084
 C     12  11   7     6.351093021956   102.37599048   176.20143007
 H     13  12  11     2.066987527176   108.44532641   108.12217721
 H     13  12  11     2.066951507658   135.58124102   257.11437053
 H     13  12  11     2.066414566834    34.98317750   206.60063568
 C     13  12  11     2.729474247723    77.39648930     1.52261537
 N     17  13  12     2.205364380453   179.91347457   239.46838652

---------------------
BASIS SET INFORMATION
---------------------
There are 3 groups of distinct atoms

 Group   1 Type C   : 11s6p2d1f contracted to 5s3p2d1f pattern {62111/411/11/1}
 Group   2 Type H   : 5s1p contracted to 3s1p pattern {311/1}
 Group   3 Type N   : 11s6p2d1f contracted to 5s3p2d1f pattern {62111/411/11/1}

Atom   0C    basis set group =>   1
Atom   1H    basis set group =>   2
Atom   2H    basis set group =>   2
Atom   3H    basis set group =>   2
Atom   4C    basis set group =>   1
Atom   5N    basis set group =>   3
Atom   6C    basis set group =>   1
Atom   7H    basis set group =>   2
Atom   8H    basis set group =>   2
Atom   9H    basis set group =>   2
Atom  10C    basis set group =>   1
Atom  11N    basis set group =>   3
Atom  12C    basis set group =>   1
Atom  13H    basis set group =>   2
Atom  14H    basis set group =>   2
Atom  15H    basis set group =>   2
Atom  16C    basis set group =>   1
Atom  17N    basis set group =>   3


           ************************************************************
           *        Program running with 6 parallel MPI-processes     *
           *              working on a common directory               *
           ************************************************************
------------------------------------------------------------------------------
                           ORCA GTO INTEGRAL CALCULATION
------------------------------------------------------------------------------

                         BASIS SET STATISTICS AND STARTUP INFO

 # of primitive gaussian shells          ...  234
 # of primitive gaussian functions       ...  486
 # of contracted shells                  ...  135
 # of contracted basis functions         ...  333
 Highest angular momentum                ...    3
 Maximum contraction depth               ...    6
 Integral package used                   ... LIBINT
 Integral threshhold            Thresh   ...  2.500e-11
 Primitive cut-off              TCut     ...  2.500e-12


------------------------------ INTEGRAL EVALUATION ----------------------------


 * One electron integrals 
 Pre-screening matrix                    ... done
 Shell pair data                         ... done (   0.002 sec)



           ************************************************************
           *        Program running with 6 parallel MPI-processes     *
           *              working on a common directory               *
           ************************************************************
-------------------------------------------------------------------------------
                                 ORCA SCF
-------------------------------------------------------------------------------

------------
SCF SETTINGS
------------
Hamiltonian:
 Ab initio Hamiltonian  Method          .... Hartree-Fock(GTOs)


General Settings:
 Integral files         IntName         .... 12mecn.remya.etal.2.mol1,4,7-orca.engrad-mp2.def2tzvp.frozencore
 Hartree-Fock type      HFTyp           .... RHF
 Total Charge           Charge          ....    0
 Multiplicity           Mult            ....    1
 Number of Electrons    NEL             ....   66
 Basis Dimension        Dim             ....  333
 Nuclear Repulsion      ENuc            ....    353.8771536947 Eh

Convergence Acceleration:
 DIIS                   CNVDIIS         .... on
   Start iteration      DIISMaxIt       ....    12
   Startup error        DIISStart       ....  0.200000
   # of expansion vecs  DIISMaxEq       ....     5
   Bias factor          DIISBfac        ....   1.050
   Max. coefficient     DIISMaxC        ....  10.000
 Newton-Raphson         CNVNR           .... off
 SOSCF                  CNVSOSCF        .... on
   Start iteration      SOSCFMaxIt      ....   150
   Startup grad/error   SOSCFStart      ....  0.003300
 Level Shifting         CNVShift        .... on
   Level shift para.    LevelShift      ....    0.2500
   Turn off err/grad.   ShiftErr        ....    0.0010
 Zerner damping         CNVZerner       .... off
 Static damping         CNVDamp         .... on
   Fraction old density DampFac         ....    0.7000
   Max. Damping (<1)    DampMax         ....    0.9800
   Min. Damping (>=0)   DampMin         ....    0.0000
   Turn off err/grad.   DampErr         ....    0.1000
 Fernandez-Rico         CNVRico         .... off

SCF Procedure:
 Maximum # iterations   MaxIter         ....   125
 SCF integral mode      SCFMode         .... Direct
   Integral package                     .... LIBINT
 Reset frequency        DirectResetFreq ....    20
 Integral Threshold     Thresh          ....  2.500e-11 Eh
 Primitive CutOff       TCut            ....  2.500e-12 Eh

Convergence Tolerance:
 Convergence Check Mode ConvCheckMode   .... Total+1el-Energy
 Convergence forced     ConvForced      .... 1
 Energy Change          TolE            ....  1.000e-08 Eh
 1-El. energy change                    ....  1.000e-05 Eh
 Orbital Gradient       TolG            ....  1.000e-05
 Orbital Rotation angle TolX            ....  1.000e-05
 DIIS Error             TolErr          ....  5.000e-07


Diagonalization of the overlap matrix:
Smallest eigenvalue                        ... 1.435e-04
Time for diagonalization                   ...    0.016 sec
Threshold for overlap eigenvalues          ... 1.000e-08
Number of eigenvalues below threshold      ... 0
Time for construction of square roots      ...    0.008 sec
Total time needed                          ...    0.025 sec

-------------------
DFT GRID GENERATION
-------------------

General Integration Accuracy     IntAcc      ...  4.340
Radial Grid Type                 RadialGrid  ... Gauss-Chebyshev
Angular Grid (max. acc.)         AngularGrid ... Lebedev-110
Angular grid pruning method      GridPruning ... 3 (G Style)
Weight generation scheme         WeightScheme... Becke
Basis function cutoff            BFCut       ...    1.0000e-11
Integration weight cutoff        WCut        ...    1.0000e-14
Grids for H and He will be reduced by one unit

# of grid points (after initial pruning)     ...  22188 (   0.0 sec)
# of grid points (after weights+screening)   ...  20761 (   0.0 sec)
nearest neighbour list constructed           ...    0.0 sec
Grid point re-assignment to atoms done       ...    0.0 sec
Grid point division into batches done        ...    0.0 sec
Reduced shell lists constructed in    0.0 sec

Total number of grid points                  ...    20761
Total number of batches                      ...      333
Average number of points per batch           ...       62
Average number of grid points per atom       ...     1153
Average number of shells per batch           ...    65.96 (48.86%)
Average number of basis functions per batch  ...   156.35 (46.95%)
Average number of large shells per batch     ...    47.18 (71.52%)
Average number of large basis fcns per batch ...   110.93 (70.95%)
Maximum spatial batch extension              ...  17.86, 18.92, 19.63 au
Average spatial batch extension              ...   0.73,  0.79,  0.81 au

Time for grid setup =    0.072 sec

------------------------------
INITIAL GUESS: MODEL POTENTIAL
------------------------------
Loading Hartree-Fock densities                     ... done
Calculating cut-offs                               ... done
Setting up the integral package                    ... done
Initializing the effective Hamiltonian             ... done
Starting the Coulomb interaction                   ... done (   0.0 sec)
Reading the grid                                   ... done
Mapping shells                                     ... done
Starting the XC term evaluation                    ... done (   0.0 sec)
Transforming the Hamiltonian                       ... done (   0.0 sec)
Diagonalizing the Hamiltonian                      ... done (   0.0 sec)
Back transforming the eigenvectors                 ... done (   0.0 sec)
Now organizing SCF variables                       ... done
                      ------------------
                      INITIAL GUESS DONE (   0.3 sec)
                      ------------------
--------------
SCF ITERATIONS
--------------
ITER       Energy         Delta-E        Max-DP      RMS-DP      [F,P]     Damp
               ***  Starting incremental Fock matrix formation  ***
  0   -395.4646160386   0.000000000000 0.03654579  0.00083502  0.2681698 0.7000
  1   -395.6305423288  -0.165926290250 0.02625587  0.00065522  0.1877439 0.7000
                               ***Turning on DIIS***
  2   -395.7287785844  -0.098236255627 0.01580374  0.00044258  0.1417298 0.7000
  3   -396.6887532400  -0.959974655607 0.01143041  0.00030024  0.1052323 0.7000
  4   -396.6270716238   0.061681616246 0.03057637  0.00073376  0.0742001 0.0000
  5   -395.9588050669   0.668266556868 0.00485162  0.00010457  0.0058284 0.0000
                      *** Initiating the SOSCF procedure ***
                           *** Shutting down DIIS ***
                      *** Re-Reading the Fockian *** 
                      *** Removing any level shift *** 
ITER      Energy       Delta-E        Grad      Rot      Max-DP    RMS-DP
  6   -395.94041335   0.0183917199  0.001352  0.001352  0.003465  0.000064
               *** Restarting incremental Fock matrix formation ***
  7   -395.93211984   0.0082935023  0.000485  0.000735  0.002307  0.000044
  8   -395.93213958  -0.0000197402  0.000274  0.000591  0.002014  0.000038
  9   -395.93214467  -0.0000050819  0.000105  0.000139  0.000602  0.000010
 10   -395.93214525  -0.0000005784  0.000029  0.000049  0.000091  0.000002
 11   -395.93214529  -0.0000000417  0.000020  0.000052  0.000048  0.000001
 12   -395.93214531  -0.0000000223  0.000007  0.000013  0.000046  0.000001
 13   -395.93214531  -0.0000000035  0.000003  0.000007  0.000016  0.000000
                  ***Gradient check signals convergence***
              ***Rediagonalizing the Fockian in SOSCF/NRSCF***

               *****************************************************
               *                     SUCCESS                       *
               *           SCF CONVERGED AFTER  14 CYCLES          *
               *****************************************************


----------------
TOTAL SCF ENERGY
----------------

Total Energy       :         -395.93214531 Eh          -10773.86141 eV

Components:
Nuclear Repulsion  :          353.87715369 Eh            9629.48691 eV
Electronic Energy  :         -749.80929901 Eh          -20403.34831 eV
One Electron Energy:        -1236.97096422 Eh          -33659.69116 eV
Two Electron Energy:          487.16166521 Eh           13256.34285 eV

Virial components:
Potential Energy   :         -791.11916537 Eh          -21527.44692 eV
Kinetic Energy     :          395.18702006 Eh           10753.58552 eV
Virial Ratio       :            2.00188550


---------------
SCF CONVERGENCE
---------------

  Last Energy change         ...   -2.2740e-09  Tolerance :   1.0000e-08
  Last MAX-Density change    ...    3.2910e-06  Tolerance :   1.0000e-07
  Last RMS-Density change    ...    6.1546e-08  Tolerance :   5.0000e-09
  Last Orbital Gradient      ...    1.0164e-06  Tolerance :   1.0000e-05
  Last Orbital Rotation      ...    2.8914e-06  Tolerance :   1.0000e-05

             **** THE GBW FILE WAS UPDATED (12mecn.remya.etal.2.mol1,4,7-orca.engrad-mp2.def2tzvp.frozencore.gbw) ****
             **** DENSITY FILE WAS UPDATED (12mecn.remya.etal.2.mol1,4,7-orca.engrad-mp2.def2tzvp.frozencore.scfp) ****
             **** ENERGY FILE WAS UPDATED (12mecn.remya.etal.2.mol1,4,7-orca.engrad-mp2.def2tzvp.frozencore.en.tmp) ****
             **** THE GBW FILE WAS UPDATED (12mecn.remya.etal.2.mol1,4,7-orca.engrad-mp2.def2tzvp.frozencore.gbw) ****
             **** DENSITY FILE WAS UPDATED (12mecn.remya.etal.2.mol1,4,7-orca.engrad-mp2.def2tzvp.frozencore.scfp) ****
----------------
ORBITAL ENERGIES
----------------

  NO   OCC          E(Eh)            E(eV) 
   0   2.0000     -15.571288      -423.7163 
   1   2.0000     -15.570413      -423.6925 
   2   2.0000     -15.568910      -423.6516 
   3   2.0000     -11.285286      -307.0882 
   4   2.0000     -11.282658      -307.0167 
   5   2.0000     -11.281758      -306.9922 
   6   2.0000     -11.273518      -306.7680 
   7   2.0000     -11.273410      -306.7651 
   8   2.0000     -11.258541      -306.3605 
   9   2.0000      -1.219035       -33.1716 
  10   2.0000      -1.215329       -33.0708 
  11   2.0000      -1.213024       -33.0081 
  12   2.0000      -1.036888       -28.2152 
  13   2.0000      -1.036497       -28.2045 
  14   2.0000      -1.026031       -27.9197 
  15   2.0000      -0.694649       -18.9024 
  16   2.0000      -0.692744       -18.8505 
  17   2.0000      -0.683377       -18.5956 
  18   2.0000      -0.630400       -17.1540 
  19   2.0000      -0.625784       -17.0284 
  20   2.0000      -0.625183       -17.0121 
  21   2.0000      -0.624300       -16.9881 
  22   2.0000      -0.612701       -16.6724 
  23   2.0000      -0.606506       -16.5039 
  24   2.0000      -0.560863       -15.2619 
  25   2.0000      -0.555686       -15.1210 
  26   2.0000      -0.554880       -15.0991 
  27   2.0000      -0.460272       -12.5246 
  28   2.0000      -0.458609       -12.4794 
  29   2.0000      -0.458187       -12.4679 
  30   2.0000      -0.457431       -12.4473 
  31   2.0000      -0.456026       -12.4091 
  32   2.0000      -0.453643       -12.3443 
  33   0.0000       0.126538         3.4433 
  34   0.0000       0.136641         3.7182 
  35   0.0000       0.156213         4.2508 
  36   0.0000       0.168540         4.5862 
  37   0.0000       0.173777         4.7287 
  38   0.0000       0.175679         4.7805 
  39   0.0000       0.176458         4.8017 
  40   0.0000       0.190574         5.1858 
  41   0.0000       0.200173         5.4470 
  42   0.0000       0.211617         5.7584 
  43   0.0000       0.215547         5.8653 
  44   0.0000       0.225166         6.1271 
  45   0.0000       0.226784         6.1711 
  46   0.0000       0.228724         6.2239 
  47   0.0000       0.250268         6.8101 
  48   0.0000       0.264574         7.1994 
  49   0.0000       0.271544         7.3891 
  50   0.0000       0.275597         7.4994 
  51   0.0000       0.286669         7.8007 
  52   0.0000       0.307600         8.3702 
  53   0.0000       0.319371         8.6905 
  54   0.0000       0.320427         8.7193 
  55   0.0000       0.326288         8.8788 
  56   0.0000       0.333428         9.0730 
  57   0.0000       0.341737         9.2991 
  58   0.0000       0.352210         9.5841 
  59   0.0000       0.359778         9.7901 
  60   0.0000       0.394562        10.7366 
  61   0.0000       0.404403        11.0044 
  62   0.0000       0.413086        11.2406 
  63   0.0000       0.418344        11.3837 
  64   0.0000       0.456939        12.4340 
  65   0.0000       0.467760        12.7284 
  66   0.0000       0.468804        12.7568 
  67   0.0000       0.490563        13.3489 
  68   0.0000       0.511759        13.9257 
  69   0.0000       0.514387        13.9972 
  70   0.0000       0.530208        14.4277 
  71   0.0000       0.534107        14.5338 
  72   0.0000       0.549392        14.9497 
  73   0.0000       0.568695        15.4750 
  74   0.0000       0.574407        15.6304 
  75   0.0000       0.596418        16.2294 
  76   0.0000       0.603602        16.4248 
  77   0.0000       0.609567        16.5872 
  78   0.0000       0.610888        16.6231 
  79   0.0000       0.622429        16.9371 
  80   0.0000       0.628107        17.0917 
  81   0.0000       0.652160        17.7462 
  82   0.0000       0.661237        17.9932 
  83   0.0000       0.664608        18.0849 
  84   0.0000       0.679008        18.4767 
  85   0.0000       0.686783        18.6883 
  86   0.0000       0.689105        18.7515 
  87   0.0000       0.706510        19.2251 
  88   0.0000       0.737668        20.0730 
  89   0.0000       0.740160        20.1408 
  90   0.0000       0.745870        20.2962 
  91   0.0000       0.763797        20.7840 
  92   0.0000       0.777857        21.1666 
  93   0.0000       0.785951        21.3868 
  94   0.0000       0.802386        21.8340 
  95   0.0000       0.826165        22.4811 
  96   0.0000       0.830450        22.5977 
  97   0.0000       0.847131        23.0516 
  98   0.0000       0.850043        23.1308 
  99   0.0000       0.875081        23.8122 
 100   0.0000       0.909895        24.7595 
 101   0.0000       0.924867        25.1669 
 102   0.0000       0.933420        25.3997 
 103   0.0000       0.945442        25.7268 
 104   0.0000       0.956773        26.0351 
 105   0.0000       0.992150        26.9978 
 106   0.0000       1.032844        28.1051 
 107   0.0000       1.053144        28.6575 
 108   0.0000       1.058788        28.8111 
 109   0.0000       1.095556        29.8116 
 110   0.0000       1.109386        30.1879 
 111   0.0000       1.137370        30.9494 
 112   0.0000       1.143319        31.1113 
 113   0.0000       1.148345        31.2481 
 114   0.0000       1.156725        31.4761 
 115   0.0000       1.182882        32.1879 
 116   0.0000       1.192470        32.4488 
 117   0.0000       1.336700        36.3735 
 118   0.0000       1.339032        36.4369 
 119   0.0000       1.352604        36.8062 
 120   0.0000       1.391677        37.8695 
 121   0.0000       1.407434        38.2982 
 122   0.0000       1.422085        38.6969 
 123   0.0000       1.426313        38.8120 
 124   0.0000       1.440466        39.1971 
 125   0.0000       1.448306        39.4104 
 126   0.0000       1.457284        39.6547 
 127   0.0000       1.468201        39.9518 
 128   0.0000       1.471142        40.0318 
 129   0.0000       1.474343        40.1189 
 130   0.0000       1.484328        40.3906 
 131   0.0000       1.490980        40.5716 
 132   0.0000       1.500848        40.8401 
 133   0.0000       1.519534        41.3486 
 134   0.0000       1.535391        41.7801 
 135   0.0000       1.542143        41.9638 
 136   0.0000       1.550891        42.2019 
 137   0.0000       1.598512        43.4977 
 138   0.0000       1.697067        46.1796 
 139   0.0000       1.705531        46.4099 
 140   0.0000       1.734980        47.2112 
 141   0.0000       1.739090        47.3230 
 142   0.0000       1.756980        47.8099 
 143   0.0000       1.760740        47.9122 
 144   0.0000       1.769641        48.1544 
 145   0.0000       1.773626        48.2628 
 146   0.0000       1.780842        48.4592 
 147   0.0000       1.786395        48.6103 
 148   0.0000       1.805218        49.1225 
 149   0.0000       1.815007        49.3888 
 150   0.0000       1.825148        49.6648 
 151   0.0000       1.828967        49.7687 
 152   0.0000       1.848010        50.2869 
 153   0.0000       1.854533        50.4644 
 154   0.0000       1.868405        50.8419 
 155   0.0000       1.890845        51.4525 
 156   0.0000       1.939664        52.7809 
 157   0.0000       1.947909        53.0053 
 158   0.0000       1.964925        53.4683 
 159   0.0000       1.980782        53.8998 
 160   0.0000       1.983086        53.9625 
 161   0.0000       1.999260        54.4026 
 162   0.0000       2.002503        54.4909 
 163   0.0000       2.039835        55.5067 
 164   0.0000       2.076597        56.5071 
 165   0.0000       2.222525        60.4780 
 166   0.0000       2.230443        60.6934 
 167   0.0000       2.244818        61.0846 
 168   0.0000       2.254726        61.3542 
 169   0.0000       2.259088        61.4729 
 170   0.0000       2.268000        61.7154 
 171   0.0000       2.273974        61.8780 
 172   0.0000       2.307614        62.7934 
 173   0.0000       2.314392        62.9778 
 174   0.0000       2.360636        64.2362 
 175   0.0000       2.374903        64.6244 
 176   0.0000       2.391076        65.0645 
 177   0.0000       2.543258        69.2056 
 178   0.0000       2.560435        69.6730 
 179   0.0000       2.567883        69.8756 
 180   0.0000       2.571453        69.9728 
 181   0.0000       2.579126        70.1816 
 182   0.0000       2.591869        70.5283 
 183   0.0000       2.607558        70.9553 
 184   0.0000       2.613634        71.1206 
 185   0.0000       2.625601        71.4462 
 186   0.0000       2.637768        71.7773 
 187   0.0000       2.640373        71.8482 
 188   0.0000       2.648816        72.0780 
 189   0.0000       2.653903        72.2164 
 190   0.0000       2.676995        72.8447 
 191   0.0000       2.697353        73.3987 
 192   0.0000       2.715774        73.9000 
 193   0.0000       2.738680        74.5233 
 194   0.0000       2.747024        74.7503 
 195   0.0000       2.752421        74.8972 
 196   0.0000       2.758516        75.0630 
 197   0.0000       2.767866        75.3175 
 198   0.0000       2.782582        75.7179 
 199   0.0000       2.815006        76.6002 
 200   0.0000       2.837538        77.2133 
 201   0.0000       2.910107        79.1880 
 202   0.0000       2.913288        79.2746 
 203   0.0000       2.915247        79.3279 
 204   0.0000       2.916470        79.3612 
 205   0.0000       2.925360        79.6031 
 206   0.0000       2.930874        79.7531 
 207   0.0000       2.952437        80.3399 
 208   0.0000       2.955804        80.4315 
 209   0.0000       2.960984        80.5725 
 210   0.0000       2.976104        80.9839 
 211   0.0000       2.988371        81.3177 
 212   0.0000       3.007182        81.8296 
 213   0.0000       3.035351        82.5961 
 214   0.0000       3.051399        83.0328 
 215   0.0000       3.063774        83.3695 
 216   0.0000       3.095028        84.2200 
 217   0.0000       3.100862        84.3787 
 218   0.0000       3.104523        84.4784 
 219   0.0000       3.114763        84.7570 
 220   0.0000       3.140540        85.4584 
 221   0.0000       3.161645        86.0327 
 222   0.0000       3.218928        87.5915 
 223   0.0000       3.222405        87.6861 
 224   0.0000       3.255009        88.5733 
 225   0.0000       3.258719        88.6742 
 226   0.0000       3.259503        88.6956 
 227   0.0000       3.262957        88.7896 
 228   0.0000       3.282858        89.3311 
 229   0.0000       3.310652        90.0874 
 230   0.0000       3.314028        90.1793 
 231   0.0000       3.338491        90.8449 
 232   0.0000       3.345740        91.0422 
 233   0.0000       3.362333        91.4937 
 234   0.0000       3.370289        91.7102 
 235   0.0000       3.402069        92.5750 
 236   0.0000       3.413347        92.8819 
 237   0.0000       3.444667        93.7341 
 238   0.0000       3.450317        93.8879 
 239   0.0000       3.457250        94.0765 
 240   0.0000       3.474734        94.5523 
 241   0.0000       3.481387        94.7334 
 242   0.0000       3.515806        95.6699 
 243   0.0000       3.547374        96.5290 
 244   0.0000       3.555841        96.7593 
 245   0.0000       3.578567        97.3778 
 246   0.0000       3.664286        99.7103 
 247   0.0000       3.666959        99.7830 
 248   0.0000       3.668641        99.8288 
 249   0.0000       3.672981        99.9469 
 250   0.0000       3.686230       100.3074 
 251   0.0000       3.703952       100.7897 
 252   0.0000       3.802547       103.4726 
 253   0.0000       3.806129       103.5700 
 254   0.0000       3.810348       103.6848 
 255   0.0000       3.810769       103.6963 
 256   0.0000       3.846367       104.6650 
 257   0.0000       3.872865       105.3860 
 258   0.0000       3.941833       107.2627 
 259   0.0000       3.946128       107.3796 
 260   0.0000       3.955741       107.6412 
 261   0.0000       3.958552       107.7177 
 262   0.0000       3.967454       107.9599 
 263   0.0000       3.968350       107.9843 
 264   0.0000       3.971112       108.0594 
 265   0.0000       3.983781       108.4042 
 266   0.0000       3.990128       108.5769 
 267   0.0000       4.245517       115.5264 
 268   0.0000       4.252265       115.7100 
 269   0.0000       4.254343       115.7665 
 270   0.0000       4.264750       116.0498 
 271   0.0000       4.281836       116.5147 
 272   0.0000       4.319092       117.5285 
 273   0.0000       4.340095       118.1000 
 274   0.0000       4.342643       118.1693 
 275   0.0000       4.345863       118.2570 
 276   0.0000       4.349449       118.3545 
 277   0.0000       4.351111       118.3998 
 278   0.0000       4.356620       118.5497 
 279   0.0000       4.584049       124.7383 
 280   0.0000       4.587450       124.8309 
 281   0.0000       4.608664       125.4081 
 282   0.0000       4.746171       129.1499 
 283   0.0000       4.751047       129.2826 
 284   0.0000       4.768051       129.7453 
 285   0.0000       4.774321       129.9159 
 286   0.0000       4.788264       130.2953 
 287   0.0000       4.804950       130.7493 
 288   0.0000       4.859398       132.2309 
 289   0.0000       4.860335       132.2564 
 290   0.0000       4.884073       132.9024 
 291   0.0000       4.966157       135.1360 
 292   0.0000       4.969299       135.2215 
 293   0.0000       4.976692       135.4227 
 294   0.0000       4.988061       135.7320 
 295   0.0000       5.001468       136.0969 
 296   0.0000       5.010239       136.3355 
 297   0.0000       5.064728       137.8183 
 298   0.0000       5.069430       137.9462 
 299   0.0000       5.078109       138.1824 
 300   0.0000       5.079127       138.2101 
 301   0.0000       5.092905       138.5850 
 302   0.0000       5.104477       138.8999 
 303   0.0000       5.213942       141.8786 
 304   0.0000       5.215966       141.9336 
 305   0.0000       5.239521       142.5746 
 306   0.0000       5.559745       151.2884 
 307   0.0000       5.561150       151.3266 
 308   0.0000       5.571548       151.6095 
 309   0.0000       5.588753       152.0777 
 310   0.0000       5.590389       152.1222 
 311   0.0000       5.610674       152.6742 
 312   0.0000       6.023050       163.8955 
 313   0.0000       6.028150       164.0343 
 314   0.0000       6.029606       164.0739 
 315   0.0000       6.081079       165.4746 
 316   0.0000       6.081295       165.4805 
 317   0.0000       6.089068       165.6920 
 318   0.0000       6.099905       165.9869 
 319   0.0000       6.146399       167.2520 
 320   0.0000       6.199696       168.7023 
 321   0.0000       6.472203       176.1176 
 322   0.0000       6.475299       176.2018 
 323   0.0000       6.497425       176.8039 
 324   0.0000      23.487075       639.1158 
 325   0.0000      23.492516       639.2639 
 326   0.0000      23.511970       639.7932 
 327   0.0000      24.385416       663.5609 
 328   0.0000      24.393692       663.7861 
 329   0.0000      24.411527       664.2714 
 330   0.0000      33.438949       909.9201 
 331   0.0000      33.441143       909.9798 
 332   0.0000      33.513748       911.9555 

                    ********************************
                    * MULLIKEN POPULATION ANALYSIS *
                    ********************************

-----------------------
MULLIKEN ATOMIC CHARGES
-----------------------
   0 C :   -0.179394
   1 H :    0.148995
   2 H :    0.194468
   3 H :    0.150377
   4 C :   -0.056656
   5 N :   -0.257603
   6 C :   -0.188287
   7 H :    0.142277
   8 H :    0.191734
   9 H :    0.193932
  10 C :    0.003403
  11 N :   -0.343117
  12 C :   -0.175962
  13 H :    0.148685
  14 H :    0.150925
  15 H :    0.192416
  16 C :   -0.060068
  17 N :   -0.256126
Sum of atomic charges:   -0.0000000

--------------------------------
MULLIKEN REDUCED ORBITAL CHARGES
--------------------------------
  0 C s       :     3.155718  s :     3.155718
      pz      :     0.780267  p :     2.958730
      px      :     1.107309
      py      :     1.071154
      dz2     :     0.017828  d :     0.061461
      dxz     :     0.011142
      dyz     :     0.010632
      dx2y2   :     0.010598
      dxy     :     0.011261
      f0      :     0.001746  f :     0.003484
      f+1     :     0.000202
      f-1     :     0.000186
      f+2     :     0.000047
      f-2     :     0.000078
      f+3     :     0.000493
      f-3     :     0.000732
  1 H s       :     0.828666  s :     0.828666
      pz      :     0.004845  p :     0.022340
      px      :     0.004222
      py      :     0.013273
  2 H s       :     0.782347  s :     0.782347
      pz      :     0.004526  p :     0.023185
      px      :     0.014092
      py      :     0.004567
  3 H s       :     0.827248  s :     0.827248
      pz      :     0.005020  p :     0.022375
      px      :     0.008786
      py      :     0.008569
  4 C s       :     3.244418  s :     3.244418
      pz      :     0.955013  p :     2.678944
      px      :     0.853382
      py      :     0.870549
      dz2     :     0.024887  d :     0.115901
      dxz     :     0.045732
      dyz     :     0.044457
      dx2y2   :     0.000500
      dxy     :     0.000325
      f0      :     0.004059  f :     0.017394
      f+1     :     0.006693
      f-1     :     0.006572
      f+2     :     0.000036
      f-2     :     0.000030
      f+3     :     0.000003
      f-3     :     0.000001
  5 N s       :     3.741371  s :     3.741371
      pz      :     1.275522  p :     3.459734
      px      :     1.099138
      py      :     1.085074
      dz2     :     0.011102  d :     0.053560
      dxz     :     0.021174
      dyz     :     0.021152
      dx2y2   :     0.000105
      dxy     :     0.000027
      f0      :     0.000617  f :     0.002938
      f+1     :     0.001152
      f-1     :     0.001165
      f+2     :     0.000002
      f-2     :     0.000001
      f+3     :     0.000001
      f-3     :     0.000000
  6 C s       :     3.163661  s :     3.163661
      pz      :     0.760460  p :     2.961210
      px      :     1.113454
      py      :     1.087297
      dz2     :     0.017910  d :     0.059950
      dxz     :     0.009613
      dyz     :     0.010048
      dx2y2   :     0.010819
      dxy     :     0.011560
      f0      :     0.001744  f :     0.003467
      f+1     :     0.000185
      f-1     :     0.000184
      f+2     :     0.000054
      f-2     :     0.000061
      f+3     :     0.000356
      f-3     :     0.000884
  7 H s       :     0.835254  s :     0.835254
      pz      :     0.005235  p :     0.022469
      px      :     0.004156
      py      :     0.013078
  8 H s       :     0.785200  s :     0.785200
      pz      :     0.004615  p :     0.023066
      px      :     0.009992
      py      :     0.008460
  9 H s       :     0.782874  s :     0.782874
      pz      :     0.004377  p :     0.023194
      px      :     0.013928
      py      :     0.004889
 10 C s       :     3.258780  s :     3.258780
      pz      :     0.936013  p :     2.602242
      px      :     0.819715
      py      :     0.846513
      dz2     :     0.023920  d :     0.118179
      dxz     :     0.046769
      dyz     :     0.046193
      dx2y2   :     0.000593
      dxy     :     0.000705
      f0      :     0.004018  f :     0.017395
      f+1     :     0.006680
      f-1     :     0.006562
      f+2     :     0.000056
      f-2     :     0.000070
      f+3     :     0.000004
      f-3     :     0.000005
 11 N s       :     3.770307  s :     3.770307
      pz      :     1.268208  p :     3.517762
      px      :     1.137740
      py      :     1.111814
      dz2     :     0.010675  d :     0.052121
      dxz     :     0.020690
      dyz     :     0.020490
      dx2y2   :     0.000166
      dxy     :     0.000101
      f0      :     0.000622  f :     0.002926
      f+1     :     0.001139
      f-1     :     0.001150
      f+2     :     0.000007
      f-2     :     0.000006
      f+3     :     0.000001
      f-3     :     0.000001
 12 C s       :     3.156224  s :     3.156224
      pz      :     0.781181  p :     2.954865
      px      :     1.085139
      py      :     1.088546
      dz2     :     0.017917  d :     0.061393
      dxz     :     0.009695
      dyz     :     0.011743
      dx2y2   :     0.010771
      dxy     :     0.011266
      f0      :     0.001682  f :     0.003480
      f+1     :     0.000210
      f-1     :     0.000226
      f+2     :     0.000067
      f-2     :     0.000061
      f+3     :     0.000402
      f-3     :     0.000832
 13 H s       :     0.828929  s :     0.828929
      pz      :     0.005425  p :     0.022387
      px      :     0.004082
      py      :     0.012879
 14 H s       :     0.826817  s :     0.826817
      pz      :     0.004397  p :     0.022258
      px      :     0.012947
      py      :     0.004915
 15 H s       :     0.784473  s :     0.784473
      pz      :     0.004517  p :     0.023111
      px      :     0.009912
      py      :     0.008681
 16 C s       :     3.245679  s :     3.245679
      pz      :     0.956570  p :     2.680968
      px      :     0.856202
      py      :     0.868196
      dz2     :     0.025399  d :     0.116013
      dxz     :     0.044634
      dyz     :     0.044701
      dx2y2   :     0.000466
      dxy     :     0.000813
      f0      :     0.004139  f :     0.017408
      f+1     :     0.006522
      f-1     :     0.006521
      f+2     :     0.000099
      f-2     :     0.000122
      f+3     :     0.000001
      f-3     :     0.000005
 17 N s       :     3.739117  s :     3.739117
      pz      :     1.276099  p :     3.460476
      px      :     1.096687
      py      :     1.087689
      dz2     :     0.011297  d :     0.053593
      dxz     :     0.021034
      dyz     :     0.020986
      dx2y2   :     0.000137
      dxy     :     0.000138
      f0      :     0.000634  f :     0.002941
      f+1     :     0.001138
      f-1     :     0.001139
      f+2     :     0.000015
      f-2     :     0.000015
      f+3     :     0.000000
      f-3     :     0.000001


                     *******************************
                     * LOEWDIN POPULATION ANALYSIS *
                     *******************************

----------------------
LOEWDIN ATOMIC CHARGES
----------------------
   0 C :   -0.244251
   1 H :    0.143620
   2 H :    0.149771
   3 H :    0.141773
   4 C :   -0.184132
   5 N :   -0.006393
   6 C :   -0.241620
   7 H :    0.144029
   8 H :    0.149531
   9 H :    0.149871
  10 C :   -0.168608
  11 N :   -0.033036
  12 C :   -0.244245
  13 H :    0.143766
  14 H :    0.142561
  15 H :    0.149642
  16 C :   -0.185638
  17 N :   -0.006641

-------------------------------
LOEWDIN REDUCED ORBITAL CHARGES
-------------------------------
  0 C s       :     2.813258  s :     2.813258
      pz      :     1.021350  p :     3.147891
      px      :     1.071160
      py      :     1.055381
      dz2     :     0.079009  d :     0.257899
      dxz     :     0.058224
      dyz     :     0.060212
      dx2y2   :     0.029501
      dxy     :     0.030953
      f0      :     0.007585  f :     0.025203
      f+1     :     0.004992
      f-1     :     0.004997
      f+2     :     0.002067
      f-2     :     0.002300
      f+3     :     0.001317
      f-3     :     0.001945
  1 H s       :     0.795872  s :     0.795872
      pz      :     0.012598  p :     0.060508
      px      :     0.013644
      py      :     0.034266
  2 H s       :     0.786261  s :     0.786261
      pz      :     0.012255  p :     0.063968
      px      :     0.037377
      py      :     0.014336
  3 H s       :     0.797285  s :     0.797285
      pz      :     0.012969  p :     0.060942
      px      :     0.024503
      py      :     0.023469
  4 C s       :     2.840128  s :     2.840128
      pz      :     1.194332  p :     2.827059
      px      :     0.812749
      py      :     0.819979
      dz2     :     0.154564  d :     0.457475
      dxz     :     0.152270
      dyz     :     0.149440
      dx2y2   :     0.000798
      dxy     :     0.000403
      f0      :     0.022930  f :     0.059470
      f+1     :     0.018458
      f-1     :     0.017947
      f+2     :     0.000073
      f-2     :     0.000052
      f+3     :     0.000006
      f-3     :     0.000004
  5 N s       :     3.308362  s :     3.308362
      pz      :     1.495141  p :     3.575157
      px      :     1.041924
      py      :     1.038092
      dz2     :     0.045562  d :     0.108738
      dxz     :     0.031470
      dyz     :     0.031531
      dx2y2   :     0.000149
      dxy     :     0.000027
      f0      :     0.006242  f :     0.014137
      f+1     :     0.003915
      f-1     :     0.003968
      f+2     :     0.000006
      f-2     :     0.000003
      f+3     :     0.000002
      f-3     :     0.000000
  6 C s       :     2.813452  s :     2.813452
      pz      :     1.015088  p :     3.150987
      px      :     1.075208
      py      :     1.060692
      dz2     :     0.080935  d :     0.252248
      dxz     :     0.052596
      dyz     :     0.059032
      dx2y2   :     0.029195
      dxy     :     0.030490
      f0      :     0.007803  f :     0.024932
      f+1     :     0.004981
      f-1     :     0.004651
      f+2     :     0.002227
      f-2     :     0.002008
      f+3     :     0.000939
      f-3     :     0.002323
  7 H s       :     0.795428  s :     0.795428
      pz      :     0.013243  p :     0.060543
      px      :     0.013486
      py      :     0.033814
  8 H s       :     0.786805  s :     0.786805
      pz      :     0.012339  p :     0.063665
      px      :     0.027519
      py      :     0.023807
  9 H s       :     0.786081  s :     0.786081
      pz      :     0.011834  p :     0.064048
      px      :     0.036998
      py      :     0.015216
 10 C s       :     2.842469  s :     2.842469
      pz      :     1.197353  p :     2.797752
      px      :     0.794022
      py      :     0.806377
      dz2     :     0.154407  d :     0.468103
      dxz     :     0.157111
      dyz     :     0.154222
      dx2y2   :     0.001028
      dxy     :     0.001335
      f0      :     0.022672  f :     0.060283
      f+1     :     0.018988
      f-1     :     0.018312
      f+2     :     0.000126
      f-2     :     0.000165
      f+3     :     0.000009
      f-3     :     0.000012
 11 N s       :     3.302846  s :     3.302846
      pz      :     1.495044  p :     3.611294
      px      :     1.060767
      py      :     1.055483
      dz2     :     0.045127  d :     0.105052
      dxz     :     0.029585
      dyz     :     0.029992
      dx2y2   :     0.000246
      dxy     :     0.000103
      f0      :     0.006230  f :     0.013844
      f+1     :     0.003726
      f-1     :     0.003843
      f+2     :     0.000023
      f-2     :     0.000020
      f+3     :     0.000002
      f-3     :     0.000001
 12 C s       :     2.814038  s :     2.814038
      pz      :     1.022317  p :     3.146913
      px      :     1.062753
      py      :     1.061842
      dz2     :     0.079178  d :     0.258044
      dxz     :     0.054020
      dyz     :     0.063391
      dx2y2   :     0.030150
      dxy     :     0.031306
      f0      :     0.007506  f :     0.025250
      f+1     :     0.005400
      f-1     :     0.004719
      f+2     :     0.002338
      f-2     :     0.001984
      f+3     :     0.001074
      f-3     :     0.002228
 13 H s       :     0.795686  s :     0.795686
      pz      :     0.013736  p :     0.060548
      px      :     0.013193
      py      :     0.033619
 14 H s       :     0.796934  s :     0.796934
      pz      :     0.011777  p :     0.060505
      px      :     0.033660
      py      :     0.015068
 15 H s       :     0.786685  s :     0.786685
      pz      :     0.012237  p :     0.063674
      px      :     0.027052
      py      :     0.024384
 16 C s       :     2.840238  s :     2.840238
      pz      :     1.193151  p :     2.827843
      px      :     0.814285
      py      :     0.820407
      dz2     :     0.154592  d :     0.458064
      dxz     :     0.150189
      dyz     :     0.150554
      dx2y2   :     0.000966
      dxy     :     0.001762
      f0      :     0.022800  f :     0.059494
      f+1     :     0.018083
      f-1     :     0.018041
      f+2     :     0.000249
      f-2     :     0.000307
      f+3     :     0.000003
      f-3     :     0.000010
 17 N s       :     3.308450  s :     3.308450
      pz      :     1.493133  p :     3.575365
      px      :     1.042358
      py      :     1.039874
      dz2     :     0.045401  d :     0.108683
      dxz     :     0.031324
      dyz     :     0.031542
      dx2y2   :     0.000233
      dxy     :     0.000183
      f0      :     0.006184  f :     0.014143
      f+1     :     0.003897
      f-1     :     0.003962
      f+2     :     0.000049
      f-2     :     0.000049
      f+3     :     0.000000
      f-3     :     0.000001


                      *****************************
                      * MAYER POPULATION ANALYSIS *
                      *****************************

  NA   - Mulliken gross atomic population
  ZA   - Total nuclear charge
  QA   - Mulliken gross atomic charge
  VA   - Mayer's total valence
  BVA  - Mayer's bonded valence
  FA   - Mayer's free valence

  ATOM       NA         ZA         QA         VA         BVA        FA
  0 C      6.1794     6.0000    -0.1794     3.7895     3.7895     0.0000
  1 H      0.8510     1.0000     0.1490     0.9637     0.9637     0.0000
  2 H      0.8055     1.0000     0.1945     0.9605     0.9605     0.0000
  3 H      0.8496     1.0000     0.1504     0.9625     0.9625     0.0000
  4 C      6.0567     6.0000    -0.0567     3.8681     3.8681     0.0000
  5 N      7.2576     7.0000    -0.2576     2.9886     2.9886    -0.0000
  6 C      6.1883     6.0000    -0.1883     3.7581     3.7581    -0.0000
  7 H      0.8577     1.0000     0.1423     0.9670     0.9670    -0.0000
  8 H      0.8083     1.0000     0.1917     0.9605     0.9605    -0.0000
  9 H      0.8061     1.0000     0.1939     0.9596     0.9596     0.0000
 10 C      5.9966     6.0000     0.0034     3.8065     3.8065    -0.0000
 11 N      7.3431     7.0000    -0.3431     2.9286     2.9286    -0.0000
 12 C      6.1760     6.0000    -0.1760     3.7880     3.7880     0.0000
 13 H      0.8513     1.0000     0.1487     0.9647     0.9647     0.0000
 14 H      0.8491     1.0000     0.1509     0.9616     0.9616     0.0000
 15 H      0.8076     1.0000     0.1924     0.9607     0.9607     0.0000
 16 C      6.0601     6.0000    -0.0601     3.8722     3.8722    -0.0000
 17 N      7.2561     7.0000    -0.2561     2.9917     2.9917     0.0000

  Mayer bond orders larger than 0.100000
B(  0-C ,  1-H ) :   0.9615 B(  0-C ,  2-H ) :   0.9524 B(  0-C ,  3-H ) :   0.9642 
B(  0-C ,  4-C ) :   0.9246 B(  4-C ,  5-N ) :   2.9539 B(  6-C ,  7-H ) :   0.9564 
B(  6-C ,  8-H ) :   0.9529 B(  6-C ,  9-H ) :   0.9519 B(  6-C , 10-C ) :   0.9196 
B( 10-C , 11-N ) :   2.8838 B( 12-C , 13-H ) :   0.9614 B( 12-C , 14-H ) :   0.9642 
B( 12-C , 15-H ) :   0.9526 B( 12-C , 16-C ) :   0.9245 B( 16-C , 17-N ) :   2.9572 


-------
TIMINGS
-------

Total SCF time: 0 days 0 hours 0 min 50 sec 

Total time                  ....      50.488 sec
Sum of individual times     ....      50.182 sec  ( 99.4%)

Fock matrix formation       ....      49.587 sec  ( 98.2%)
Diagonalization             ....       0.140 sec  (  0.3%)
Density matrix formation    ....       0.018 sec  (  0.0%)
Population analysis         ....       0.027 sec  (  0.1%)
Initial guess               ....       0.186 sec  (  0.4%)
Orbital Transformation      ....       0.000 sec  (  0.0%)
Orbital Orthonormalization  ....       0.000 sec  (  0.0%)
DIIS solution               ....       0.051 sec  (  0.1%)
SOSCF solution              ....       0.100 sec  (  0.2%)


           ************************************************************
           *        Program running with 6 parallel MPI-processes     *
           *              working on a common directory               *
           ************************************************************

------------------------------------------------------------------------------
                                ORCA  MP2 
------------------------------------------------------------------------------

Freezing NCore=18 chemical core electrons
MP2 will be done in the AO integral direct mode
The Q1-step will be done using symmetric double matrices
Dimension of the basis                    ...  333
Memory devoted for MP2                    ... 8000 MB   
Memory needed for all in one shot         ...  566 MB
Number of MOs that can be treated together...   55      
MP2 density construction                  ... relaxed
The MP2 gradient is requested => amplitudes will be stored on disk
Total number of MOs              ...   24
Number of MOs treated per batch  ...    4 
Number of batches necessary      ...    1 
OPERATORS   0/  0 PASS   0
-----------------------------------------------
 MP2 CORRELATION ENERGY   :     -1.535643796 Eh
-----------------------------------------------


---------------------
MP2 DENSITY FORMATION
---------------------

Completing the external part of the density      ... done
Storing the unrelaxed density                    ... done

Calculating G(D)                                 ... done
Completing the Lagrangian                        ... done
Solving the Z-vector equations                   ... 

------------------------------------------------------------------------------
                           ORCA CP-SCF CALCULATION
------------------------------------------------------------------------------

Input orbitals are from        ... 12mecn.remya.etal.2.mol1,4,7-orca.engrad-mp2.def2tzvp.frozencore.gbw
Input Perturbation             ... 12mecn.remya.etal.2.mol1,4,7-orca.engrad-mp2.def2tzvp.frozencore.pin.tmp
Wavefunction output            ... 12mecn.remya.etal.2.mol1,4,7-orca.engrad-mp2.def2tzvp.frozencore.pout.tmp
Perturbation mode              ... Real perturbation (singlet)
Solver                         ... POPLE
Max. number of iterations      ... 128
Convergence tolerance          ... 1.000e-08
Integral handling              ... Direct
Number of perturbations        ... 1
Number of operators            ... 1
Orbital ranges used for CP-SCF:
 Operator 0:  Orbitals   0... 32  to  33...332
Variables per vector in CP-SCF ... 9900
Number of vectors sought       ... 1
     CP-SCF ITERATION   0: 
     CP-SCF ITERATION   1:      0.001657523005
     CP-SCF ITERATION   2:      0.000263631316
     CP-SCF ITERATION   3:      0.000014332985
     CP-SCF ITERATION   4:      0.000003982269
     CP-SCF ITERATION   5:      0.000001765014
     CP-SCF ITERATION   6:      0.000000135751
     CP-SCF ITERATION   7:      0.000000011204
     CP-SCF ITERATION   8:      0.000000000668
                                                 ... done
Finalizing the relaxed density                   ... done
Transforming P to the AO basis                   ... done
Storing the relaxed density                      ... done

------------------------------------
ENERGY WEIGHTED DENSITY FINALIZATION
------------------------------------

Gathering the parts of the W-matrix              ...                                                      done
Forming the Z-density                            ... done
Transforming Z to the AO basis                   ... done
Calculating G(Z)                                 ... done
Finalizing the W-matrix                          ...                                                      done
Transforming W to the AO basis and storing       ... done

                *********************************************
                * UNRELAXED MP2 DENSITY POPULATION ANALYSIS *
                *********************************************

------------------------------------------------------------------------------
                           ORCA POPULATION ANALYSIS
------------------------------------------------------------------------------
Input electron density              ... 12mecn.remya.etal.2.mol1,4,7-orca.engrad-mp2.def2tzvp.frozencore.pmp2ur
BaseName (.gbw .S,...)              ... 12mecn.remya.etal.2.mol1,4,7-orca.engrad-mp2.def2tzvp.frozencore

                    ********************************
                    * MULLIKEN POPULATION ANALYSIS *
                    ********************************

-----------------------
MULLIKEN ATOMIC CHARGES
-----------------------
   0 C :   -0.191841
   1 H :    0.151683
   2 H :    0.196191
   3 H :    0.153054
   4 C :   -0.067027
   5 N :   -0.241885
   6 C :   -0.199873
   7 H :    0.145109
   8 H :    0.193704
   9 H :    0.195826
  10 C :   -0.008942
  11 N :   -0.325850
  12 C :   -0.188571
  13 H :    0.151399
  14 H :    0.153598
  15 H :    0.194264
  16 C :   -0.070431
  17 N :   -0.240406
Sum of atomic charges:   -0.0000000

--------------------------------
MULLIKEN REDUCED ORBITAL CHARGES
--------------------------------
  0 C s       :     3.153923  s :     3.153923
      pz      :     0.779160  p :     2.943293
      px      :     1.099649
      py      :     1.064485
      dz2     :     0.020310  d :     0.087270
      dxz     :     0.017303
      dyz     :     0.016736
      dx2y2   :     0.016131
      dxy     :     0.016790
      f0      :     0.002142  f :     0.007355
      f+1     :     0.000869
      f-1     :     0.000855
      f+2     :     0.000590
      f-2     :     0.000619
      f+3     :     0.001033
      f-3     :     0.001248
  1 H s       :     0.823145  s :     0.823145
      pz      :     0.005844  p :     0.025173
      px      :     0.005261
      py      :     0.014068
  2 H s       :     0.777925  s :     0.777925
      pz      :     0.005511  p :     0.025884
      px      :     0.014814
      py      :     0.005559
  3 H s       :     0.821727  s :     0.821727
      pz      :     0.006017  p :     0.025219
      px      :     0.009712
      py      :     0.009490
  4 C s       :     3.243616  s :     3.243616
      pz      :     0.945930  p :     2.671826
      px      :     0.854769
      py      :     0.871127
      dz2     :     0.027306  d :     0.131241
      dxz     :     0.047708
      dyz     :     0.046474
      dx2y2   :     0.004952
      dxy     :     0.004802
      f0      :     0.004526  f :     0.020344
      f+1     :     0.007119
      f-1     :     0.007009
      f+2     :     0.000593
      f-2     :     0.000586
      f+3     :     0.000256
      f-3     :     0.000254
  5 N s       :     3.728941  s :     3.728941
      pz      :     1.263164  p :     3.431015
      px      :     1.090607
      py      :     1.077244
      dz2     :     0.015402  d :     0.076263
      dxz     :     0.025399
      dyz     :     0.025297
      dx2y2   :     0.005126
      dxy     :     0.005039
      f0      :     0.001046  f :     0.005667
      f+1     :     0.001602
      f-1     :     0.001613
      f+2     :     0.000421
      f-2     :     0.000419
      f+3     :     0.000284
      f-3     :     0.000283
  6 C s       :     3.161598  s :     3.161598
      pz      :     0.759445  p :     2.944877
      px      :     1.105273
      py      :     1.080159
      dz2     :     0.020387  d :     0.086050
      dxz     :     0.015872
      dyz     :     0.016148
      dx2y2   :     0.016484
      dxy     :     0.017160
      f0      :     0.002145  f :     0.007348
      f+1     :     0.000847
      f-1     :     0.000849
      f+2     :     0.000597
      f-2     :     0.000604
      f+3     :     0.000914
      f-3     :     0.001392
  7 H s       :     0.829588  s :     0.829588
      pz      :     0.006223  p :     0.025303
      px      :     0.005197
      py      :     0.013884
  8 H s       :     0.780515  s :     0.780515
      pz      :     0.005601  p :     0.025782
      px      :     0.010844
      py      :     0.009336
  9 H s       :     0.778273  s :     0.778273
      pz      :     0.005372  p :     0.025901
      px      :     0.014658
      py      :     0.005871
 10 C s       :     3.257525  s :     3.257525
      pz      :     0.926645  p :     2.597937
      px      :     0.822976
      py      :     0.848315
      dz2     :     0.026266  d :     0.133155
      dxz     :     0.048643
      dyz     :     0.048106
      dx2y2   :     0.005009
      dxy     :     0.005131
      f0      :     0.004488  f :     0.020326
      f+1     :     0.007096
      f-1     :     0.006991
      f+2     :     0.000613
      f-2     :     0.000626
      f+3     :     0.000255
      f-3     :     0.000256
 11 N s       :     3.758549  s :     3.758549
      pz      :     1.255844  p :     3.485974
      px      :     1.127412
      py      :     1.102717
      dz2     :     0.015081  d :     0.075642
      dxz     :     0.025131
      dyz     :     0.024799
      dx2y2   :     0.005351
      dxy     :     0.005279
      f0      :     0.001054  f :     0.005685
      f+1     :     0.001592
      f-1     :     0.001600
      f+2     :     0.000430
      f-2     :     0.000428
      f+3     :     0.000291
      f-3     :     0.000290
 12 C s       :     3.154454  s :     3.154454
      pz      :     0.780060  p :     2.939595
      px      :     1.078024
      py      :     1.081511
      dz2     :     0.020437  d :     0.087171
      dxz     :     0.015873
      dyz     :     0.017762
      dx2y2   :     0.016334
      dxy     :     0.016764
      f0      :     0.002087  f :     0.007352
      f+1     :     0.000869
      f-1     :     0.000892
      f+2     :     0.000607
      f-2     :     0.000605
      f+3     :     0.000950
      f-3     :     0.001341
 13 H s       :     0.823386  s :     0.823386
      pz      :     0.006406  p :     0.025215
      px      :     0.005120
      py      :     0.013690
 14 H s       :     0.821297  s :     0.821297
      pz      :     0.005414  p :     0.025105
      px      :     0.013761
      py      :     0.005930
 15 H s       :     0.779921  s :     0.779921
      pz      :     0.005503  p :     0.025815
      px      :     0.010762
      py      :     0.009550
 16 C s       :     3.244857  s :     3.244857
      pz      :     0.947513  p :     2.673846
      px      :     0.857497
      py      :     0.868836
      dz2     :     0.027815  d :     0.131370
      dxz     :     0.046639
      dyz     :     0.046721
      dx2y2   :     0.004933
      dxy     :     0.005261
      f0      :     0.004604  f :     0.020358
      f+1     :     0.006953
      f-1     :     0.006957
      f+2     :     0.000652
      f-2     :     0.000675
      f+3     :     0.000256
      f-3     :     0.000260
 17 N s       :     3.726692  s :     3.726692
      pz      :     1.263754  p :     3.431762
      px      :     1.088260
      py      :     1.079747
      dz2     :     0.015590  d :     0.076282
      dxz     :     0.025253
      dyz     :     0.025137
      dx2y2   :     0.005153
      dxy     :     0.005149
      f0      :     0.001064  f :     0.005670
      f+1     :     0.001587
      f-1     :     0.001586
      f+2     :     0.000433
      f-2     :     0.000433
      f+3     :     0.000283
      f-3     :     0.000284


                     *******************************
                     * LOEWDIN POPULATION ANALYSIS *
                     *******************************

----------------------
LOEWDIN ATOMIC CHARGES
----------------------
   0 C :   -0.252260
   1 H :    0.145298
   2 H :    0.151302
   3 H :    0.143445
   4 C :   -0.190064
   5 N :    0.002643
   6 C :   -0.249495
   7 H :    0.145732
   8 H :    0.151105
   9 H :    0.151430
  10 C :   -0.175439
  11 N :   -0.023114
  12 C :   -0.252287
  13 H :    0.145451
  14 H :    0.144218
  15 H :    0.151194
  16 C :   -0.191568
  17 N :    0.002406

-------------------------------
LOEWDIN REDUCED ORBITAL CHARGES
-------------------------------
  0 C s       :     2.811481  s :     2.811481
      pz      :     1.012819  p :     3.122835
      px      :     1.062668
      py      :     1.047348
      dz2     :     0.084194  d :     0.286697
      dxz     :     0.064253
      dyz     :     0.066141
      dx2y2   :     0.035352
      dxy     :     0.036757
      f0      :     0.008703  f :     0.031248
      f+1     :     0.006064
      f-1     :     0.006062
      f+2     :     0.002735
      f-2     :     0.002976
      f+3     :     0.002023
      f-3     :     0.002686
  1 H s       :     0.789419  s :     0.789419
      pz      :     0.014013  p :     0.065283
      px      :     0.014883
      py      :     0.036387
  2 H s       :     0.780110  s :     0.780110
      pz      :     0.013651  p :     0.068588
      px      :     0.039346
      py      :     0.015591
  3 H s       :     0.790823  s :     0.790823
      pz      :     0.014398  p :     0.065732
      px      :     0.026206
      py      :     0.025128
  4 C s       :     2.836729  s :     2.836729
      pz      :     1.181710  p :     2.809780
      px      :     0.810632
      py      :     0.817438
      dz2     :     0.161874  d :     0.476441
      dxz     :     0.153547
      dyz     :     0.150838
      dx2y2   :     0.005297
      dxy     :     0.004886
      f0      :     0.024551  f :     0.067114
      f+1     :     0.020531
      f-1     :     0.020042
      f+2     :     0.000747
      f-2     :     0.000726
      f+3     :     0.000261
      f-3     :     0.000257
  5 N s       :     3.300575  s :     3.300575
      pz      :     1.479037  p :     3.538893
      px      :     1.031669
      py      :     1.028187
      dz2     :     0.052530  d :     0.139279
      dxz     :     0.038369
      dyz     :     0.038296
      dx2y2   :     0.005116
      dxy     :     0.004968
      f0      :     0.007315  f :     0.018610
      f+1     :     0.004902
      f-1     :     0.004942
      f+2     :     0.000444
      f-2     :     0.000440
      f+3     :     0.000285
      f-3     :     0.000283
  6 C s       :     2.811694  s :     2.811694
      pz      :     1.006544  p :     3.125293
      px      :     1.066384
      py      :     1.052365
      dz2     :     0.086087  d :     0.281508
      dxz     :     0.058767
      dyz     :     0.065074
      dx2y2   :     0.035128
      dxy     :     0.036452
      f0      :     0.008918  f :     0.031000
      f+1     :     0.006065
      f-1     :     0.005715
      f+2     :     0.002899
      f-2     :     0.002679
      f+3     :     0.001628
      f-3     :     0.003096
  7 H s       :     0.788931  s :     0.788931
      pz      :     0.014688  p :     0.065337
      px      :     0.014705
      py      :     0.035944
  8 H s       :     0.780585  s :     0.780585
      pz      :     0.013736  p :     0.068309
      px      :     0.029197
      py      :     0.025376
  9 H s       :     0.779881  s :     0.779881
      pz      :     0.013214  p :     0.068690
      px      :     0.038977
      py      :     0.016498
 10 C s       :     2.838905  s :     2.838905
      pz      :     1.184684  p :     2.782322
      px      :     0.792997
      py      :     0.804641
      dz2     :     0.161627  d :     0.486375
      dxz     :     0.158082
      dyz     :     0.155360
      dx2y2   :     0.005514
      dxy     :     0.005791
      f0      :     0.024310  f :     0.067838
      f+1     :     0.020986
      f-1     :     0.020353
      f+2     :     0.000811
      f-2     :     0.000851
      f+3     :     0.000261
      f-3     :     0.000265
 11 N s       :     3.295155  s :     3.295155
      pz      :     1.478796  p :     3.572897
      px      :     1.049385
      py      :     1.044717
      dz2     :     0.052247  d :     0.136695
      dxz     :     0.036825
      dyz     :     0.037005
      dx2y2   :     0.005394
      dxy     :     0.005224
      f0      :     0.007302  f :     0.018365
      f+1     :     0.004728
      f-1     :     0.004824
      f+2     :     0.000466
      f-2     :     0.000463
      f+3     :     0.000291
      f-3     :     0.000291
 12 C s       :     2.812260  s :     2.812260
      pz      :     1.013784  p :     3.121916
      px      :     1.054499
      py      :     1.053633
      dz2     :     0.084369  d :     0.286816
      dxz     :     0.060009
      dyz     :     0.069336
      dx2y2   :     0.035933
      dxy     :     0.037169
      f0      :     0.008620  f :     0.031295
      f+1     :     0.006473
      f-1     :     0.005779
      f+2     :     0.003014
      f-2     :     0.002656
      f+3     :     0.001764
      f-3     :     0.002989
 13 H s       :     0.789229  s :     0.789229
      pz      :     0.015201  p :     0.065319
      px      :     0.014411
      py      :     0.035707
 14 H s       :     0.790480  s :     0.790480
      pz      :     0.013150  p :     0.065302
      px      :     0.035780
      py      :     0.016372
 15 H s       :     0.780512  s :     0.780512
      pz      :     0.013627  p :     0.068293
      px      :     0.028697
      py      :     0.025970
 16 C s       :     2.836837  s :     2.836837
      pz      :     1.180578  p :     2.810573
      px      :     0.812099
      py      :     0.817896
      dz2     :     0.161820  d :     0.477014
      dxz     :     0.151538
      dyz     :     0.151970
      dx2y2   :     0.005455
      dxy     :     0.006231
      f0      :     0.024434  f :     0.067143
      f+1     :     0.020138
      f-1     :     0.020111
      f+2     :     0.000935
      f-2     :     0.000997
      f+3     :     0.000260
      f-3     :     0.000269
 17 N s       :     3.300671  s :     3.300671
      pz      :     1.477073  p :     3.539094
      px      :     1.032117
      py      :     1.029904
      dz2     :     0.052365  d :     0.139213
      dxz     :     0.038190
      dyz     :     0.038317
      dx2y2   :     0.005194
      dxy     :     0.005147
      f0      :     0.007253  f :     0.018615
      f+1     :     0.004876
      f-1     :     0.004933
      f+2     :     0.000492
      f-2     :     0.000492
      f+3     :     0.000284
      f-3     :     0.000285


                      *****************************
                      * MAYER POPULATION ANALYSIS *
                      *****************************

  NA   - Mulliken gross atomic population
  ZA   - Total nuclear charge
  QA   - Mulliken gross atomic charge
  VA   - Mayer's total valence
  BVA  - Mayer's bonded valence
  FA   - Mayer's free valence

  ATOM       NA         ZA         QA         VA         BVA        FA
  0 C      6.1918     6.0000    -0.1918     3.9076     3.6231     0.2845
  1 H      0.8483     1.0000     0.1517     0.9713     0.9232     0.0481
  2 H      0.8038     1.0000     0.1962     0.9675     0.9202     0.0474
  3 H      0.8469     1.0000     0.1531     0.9701     0.9221     0.0480
  4 C      6.0670     6.0000    -0.0670     3.9689     3.5333     0.4355
  5 N      7.2419     7.0000    -0.2419     3.1930     2.7007     0.4923
  6 C      6.1999     6.0000    -0.1999     3.8769     3.5913     0.2855
  7 H      0.8549     1.0000     0.1451     0.9747     0.9261     0.0486
  8 H      0.8063     1.0000     0.1937     0.9675     0.9200     0.0475
  9 H      0.8042     1.0000     0.1958     0.9666     0.9191     0.0475
 10 C      6.0089     6.0000    -0.0089     3.9063     3.4757     0.4306
 11 N      7.3259     7.0000    -0.3259     3.1453     2.6453     0.5000
 12 C      6.1886     6.0000    -0.1886     3.9063     3.6218     0.2845
 13 H      0.8486     1.0000     0.1514     0.9723     0.9243     0.0480
 14 H      0.8464     1.0000     0.1536     0.9693     0.9212     0.0481
 15 H      0.8057     1.0000     0.1943     0.9677     0.9204     0.0473
 16 C      6.0704     6.0000    -0.0704     3.9730     3.5373     0.4357
 17 N      7.2404     7.0000    -0.2404     3.1958     2.7038     0.4921

  Mayer bond orders larger than 0.100000
B(  0-C ,  1-H ) :   0.9239 B(  0-C ,  2-H ) :   0.9149 B(  0-C ,  3-H ) :   0.9266 
B(  0-C ,  4-C ) :   0.8729 B(  4-C ,  5-N ) :   2.6735 B(  6-C ,  7-H ) :   0.9186 
B(  6-C ,  8-H ) :   0.9154 B(  6-C ,  9-H ) :   0.9144 B(  6-C , 10-C ) :   0.8675 
B( 10-C , 11-N ) :   2.6088 B( 12-C , 13-H ) :   0.9238 B( 12-C , 14-H ) :   0.9266 
B( 12-C , 15-H ) :   0.9152 B( 12-C , 16-C ) :   0.8727 B( 16-C , 17-N ) :   2.6768 



                *******************************************
                * RELAXED MP2 DENSITY POPULATION ANALYSIS *
                *******************************************

------------------------------------------------------------------------------
                           ORCA POPULATION ANALYSIS
------------------------------------------------------------------------------
Input electron density              ... 12mecn.remya.etal.2.mol1,4,7-orca.engrad-mp2.def2tzvp.frozencore.pmp2re
BaseName (.gbw .S,...)              ... 12mecn.remya.etal.2.mol1,4,7-orca.engrad-mp2.def2tzvp.frozencore

                    ********************************
                    * MULLIKEN POPULATION ANALYSIS *
                    ********************************

-----------------------
MULLIKEN ATOMIC CHARGES
-----------------------
   0 C :   -0.286301
   1 H :    0.166422
   2 H :    0.201066
   3 H :    0.167446
   4 C :   -0.102371
   5 N :   -0.146176
   6 C :   -0.287109
   7 H :    0.161076
   8 H :    0.199561
   9 H :    0.200966
  10 C :   -0.052405
  11 N :   -0.221990
  12 C :   -0.283716
  13 H :    0.166366
  14 H :    0.167602
  15 H :    0.199738
  16 C :   -0.106018
  17 N :   -0.144157
Sum of atomic charges:   -0.0000000

--------------------------------
MULLIKEN REDUCED ORBITAL CHARGES
--------------------------------
  0 C s       :     3.188268  s :     3.188268
      pz      :     0.825953  p :     3.014280
      px      :     1.109411
      py      :     1.078915
      dz2     :     0.015990  d :     0.076671
      dxz     :     0.017403
      dyz     :     0.016856
      dx2y2   :     0.012979
      dxy     :     0.013443
      f0      :     0.001894  f :     0.007082
      f+1     :     0.000927
      f-1     :     0.000916
      f+2     :     0.000580
      f-2     :     0.000607
      f+3     :     0.000984
      f-3     :     0.001174
  1 H s       :     0.809505  s :     0.809505
      pz      :     0.005881  p :     0.024073
      px      :     0.005424
      py      :     0.012769
  2 H s       :     0.774212  s :     0.774212
      pz      :     0.005625  p :     0.024723
      px      :     0.013470
      py      :     0.005628
  3 H s       :     0.808427  s :     0.808427
      pz      :     0.006019  p :     0.024127
      px      :     0.009185
      py      :     0.008923
  4 C s       :     3.223002  s :     3.223002
      pz      :     0.971766  p :     2.754371
      px      :     0.888031
      py      :     0.894575
      dz2     :     0.022669  d :     0.106018
      dxz     :     0.037247
      dyz     :     0.036391
      dx2y2   :     0.004937
      dxy     :     0.004774
      f0      :     0.004364  f :     0.018980
      f+1     :     0.006503
      f-1     :     0.006432
      f+2     :     0.000589
      f-2     :     0.000582
      f+3     :     0.000256
      f-3     :     0.000254
  5 N s       :     3.679263  s :     3.679263
      pz      :     1.250655  p :     3.394303
      px      :     1.073635
      py      :     1.070012
      dz2     :     0.014321  d :     0.067412
      dxz     :     0.021541
      dyz     :     0.021372
      dx2y2   :     0.005142
      dxy     :     0.005036
[...]
      f+1     :     0.006456
      f-1     :     0.006412
      f+2     :     0.000607
      f-2     :     0.000618
      f+3     :     0.000255
      f-3     :     0.000256
 11 N s       :     3.717688  s :     3.717688
      pz      :     1.240687  p :     3.432083
      px      :     1.099698
      py      :     1.091698
      dz2     :     0.013889  d :     0.066997
      dxz     :     0.021449
      dyz     :     0.021013
      dx2y2   :     0.005366
      dxy     :     0.005280
      f0      :     0.000926  f :     0.005222
      f+1     :     0.001425
      f-1     :     0.001433
      f+2     :     0.000429
      f-2     :     0.000427
      f+3     :     0.000291
      f-3     :     0.000291
 12 C s       :     3.189149  s :     3.189149
      pz      :     0.826829  p :     3.010901
      px      :     1.090285
      py      :     1.093787
      dz2     :     0.016187  d :     0.076586
      dxz     :     0.016208
      dyz     :     0.017600
      dx2y2   :     0.013103
      dxy     :     0.013488
      f0      :     0.001849  f :     0.007080
      f+1     :     0.000924
      f-1     :     0.000945
      f+2     :     0.000598
      f-2     :     0.000595
      f+3     :     0.000909
      f-3     :     0.001259
 13 H s       :     0.809532  s :     0.809532
      pz      :     0.006346  p :     0.024102
      px      :     0.005281
      py      :     0.012475
 14 H s       :     0.808373  s :     0.808373
      pz      :     0.005534  p :     0.024025
      px      :     0.012536
      py      :     0.005955
 15 H s       :     0.775617  s :     0.775617
      pz      :     0.005615  p :     0.024645
      px      :     0.010047
      py      :     0.008982
 16 C s       :     3.223848  s :     3.223848
      pz      :     0.973519  p :     2.757058
      px      :     0.889887
      py      :     0.893653
      dz2     :     0.023129  d :     0.106120
      dxz     :     0.036282
      dyz     :     0.036646
      dx2y2   :     0.004880
      dxy     :     0.005183
      f0      :     0.004431  f :     0.018991
      f+1     :     0.006354
      f-1     :     0.006385
      f+2     :     0.000642
      f-2     :     0.000663
      f+3     :     0.000256
      f-3     :     0.000260
 17 N s       :     3.676386  s :     3.676386
      pz      :     1.251564  p :     3.395134
      px      :     1.072367
      py      :     1.071203
      dz2     :     0.014475  d :     0.067436
      dxz     :     0.021407
      dyz     :     0.021271
      dx2y2   :     0.005142
      dxy     :     0.005141
      f0      :     0.000941  f :     0.005201
      f+1     :     0.001416
      f-1     :     0.001415
      f+2     :     0.000431
      f-2     :     0.000431
      f+3     :     0.000283
      f-3     :     0.000285


                     *******************************
                     * LOEWDIN POPULATION ANALYSIS *
                     *******************************

----------------------
LOEWDIN ATOMIC CHARGES
----------------------
   0 C :   -0.282925
   1 H :    0.152515
   2 H :    0.155764
   3 H :    0.150604
   4 C :   -0.208564
   5 N :    0.033096
   6 C :   -0.280143
   7 H :    0.153280
   8 H :    0.156101
   9 H :    0.156244
  10 C :   -0.198478
  11 N :    0.012975
  12 C :   -0.283060
  13 H :    0.152640
  14 H :    0.151401
  15 H :    0.155763
  16 C :   -0.210219
  17 N :    0.033006

-------------------------------
LOEWDIN REDUCED ORBITAL CHARGES
-------------------------------
  0 C s       :     2.816516  s :     2.816516
      pz      :     1.031444  p :     3.158833
      px      :     1.070580
      py      :     1.056809
      dz2     :     0.076271  d :     0.276106
      dxz     :     0.066453
      dyz     :     0.067641
      dx2y2   :     0.032312
      dxy     :     0.033429
      f0      :     0.008146  f :     0.031470
      f+1     :     0.006558
      f-1     :     0.006480
      f+2     :     0.002721
      f-2     :     0.002960
      f+3     :     0.001981
      f-3     :     0.002624
  1 H s       :     0.781801  s :     0.781801
      pz      :     0.014537  p :     0.065685
      px      :     0.015328
      py      :     0.035820
  2 H s       :     0.775665  s :     0.775665
      pz      :     0.014201  p :     0.068571
      px      :     0.038415
      py      :     0.015956
  3 H s       :     0.783247  s :     0.783247
      pz      :     0.014899  p :     0.066149
      px      :     0.026191
      py      :     0.025059
  4 C s       :     2.841134  s :     2.841134
      pz      :     1.170825  p :     2.841660
      px      :     0.835399
      py      :     0.835437
      dz2     :     0.164061  d :     0.458961
      dxz     :     0.143232
      dyz     :     0.141639
      dx2y2   :     0.005207
      dxy     :     0.004822
      f0      :     0.025618  f :     0.066808
      f+1     :     0.019704
      f-1     :     0.019524
      f+2     :     0.000733
      f-2     :     0.000713
      f+3     :     0.000260
      f-3     :     0.000257
  5 N s       :     3.301132  s :     3.301132
      pz      :     1.466587  p :     3.511015
      px      :     1.021079
      py      :     1.023350
      dz2     :     0.053094  d :     0.135721
      dxz     :     0.036528
      dyz     :     0.036004
      dx2y2   :     0.005130
      dxy     :     0.004966
      f0      :     0.007400  f :     0.019035
      f+1     :     0.005102
      f-1     :     0.005081
      f+2     :     0.000444
      f-2     :     0.000440
      f+3     :     0.000285
      f-3     :     0.000283
  6 C s       :     2.816905  s :     2.816905
      pz      :     1.026049  p :     3.160796
      px      :     1.073680
      py      :     1.061067
      dz2     :     0.077838  d :     0.271218
      dxz     :     0.061538
      dyz     :     0.066517
      dx2y2   :     0.031996
      dxy     :     0.033328
      f0      :     0.008310  f :     0.031225
      f+1     :     0.006603
      f-1     :     0.006127
      f+2     :     0.002886
      f-2     :     0.002673
      f+3     :     0.001600
      f-3     :     0.003026
  7 H s       :     0.780907  s :     0.780907
      pz      :     0.015166  p :     0.065813
      px      :     0.015160
      py      :     0.035487
  8 H s       :     0.775460  s :     0.775460
      pz      :     0.014270  p :     0.068440
      px      :     0.028957
      py      :     0.025213
  9 H s       :     0.774972  s :     0.774972
      pz      :     0.013787  p :     0.068785
      px      :     0.038190
      py      :     0.016808
 10 C s       :     2.842212  s :     2.842212
      pz      :     1.171877  p :     2.821719
      px      :     0.824490
      py      :     0.825352
      dz2     :     0.163685  d :     0.467400
      dxz     :     0.146802
      dyz     :     0.145849
      dx2y2   :     0.005414
      dxy     :     0.005651
      f0      :     0.025431  f :     0.067146
      f+1     :     0.019860
      f-1     :     0.019706
      f+2     :     0.000799
      f-2     :     0.000827
      f+3     :     0.000260
      f-3     :     0.000263
 11 N s       :     3.296164  s :     3.296164
      pz      :     1.467078  p :     3.538072
      px      :     1.033113
      py      :     1.037881
      dz2     :     0.052670  d :     0.133932
      dxz     :     0.035609
      dyz     :     0.035021
      dx2y2   :     0.005404
      dxy     :     0.005227
      f0      :     0.007373  f :     0.018856
      f+1     :     0.004986
      f-1     :     0.004983
      f+2     :     0.000468
      f-2     :     0.000464
      f+3     :     0.000292
      f-3     :     0.000291
 12 C s       :     2.817303  s :     2.817303
      pz      :     1.032422  p :     3.158044
      px      :     1.063325
      py      :     1.062297
      dz2     :     0.076561  d :     0.276194
      dxz     :     0.062311
      dyz     :     0.070578
      dx2y2   :     0.032636
      dxy     :     0.034108
      f0      :     0.008092  f :     0.031519
      f+1     :     0.006945
      f-1     :     0.006184
      f+2     :     0.003000
      f-2     :     0.002649
      f+3     :     0.001730
      f-3     :     0.002918
 13 H s       :     0.781645  s :     0.781645
      pz      :     0.015655  p :     0.065715
      px      :     0.014853
      py      :     0.035207
 14 H s       :     0.782876  s :     0.782876
      pz      :     0.013739  p :     0.065723
      px      :     0.035283
      py      :     0.016700
 15 H s       :     0.775947  s :     0.775947
      pz      :     0.014179  p :     0.068290
      px      :     0.028360
      py      :     0.025751
 16 C s       :     2.841235  s :     2.841235
      pz      :     1.169869  p :     2.842637
      px      :     0.835868
      py      :     0.836900
      dz2     :     0.163873  d :     0.459518
      dxz     :     0.141499
      dyz     :     0.142695
      dx2y2   :     0.005374
      dxy     :     0.006077
      f0      :     0.025456  f :     0.066829
      f+1     :     0.019408
      f-1     :     0.019551
      f+2     :     0.000919
      f-2     :     0.000968
      f+3     :     0.000259
      f-3     :     0.000267
 17 N s       :     3.301234  s :     3.301234
      pz      :     1.464721  p :     3.511050
      px      :     1.022083
      py      :     1.024246
      dz2     :     0.052888  d :     0.135669
      dxz     :     0.036312
      dyz     :     0.036136
      dx2y2   :     0.005186
      dxy     :     0.005148
      f0      :     0.007340  f :     0.019042
      f+1     :     0.005065
      f-1     :     0.005080
      f+2     :     0.000494
      f-2     :     0.000494
      f+3     :     0.000284
      f-3     :     0.000285


                      *****************************
                      * MAYER POPULATION ANALYSIS *
                      *****************************

  NA   - Mulliken gross atomic population
  ZA   - Total nuclear charge
  QA   - Mulliken gross atomic charge
  VA   - Mayer's total valence
  BVA  - Mayer's bonded valence
  FA   - Mayer's free valence

  ATOM       NA         ZA         QA         VA         BVA        FA
  0 C      6.2863     6.0000    -0.2863     3.9122     3.6290     0.2832
  1 H      0.8336     1.0000     0.1664     0.9652     0.9178     0.0475
  2 H      0.7989     1.0000     0.2011     0.9712     0.9244     0.0468
  3 H      0.8326     1.0000     0.1674     0.9639     0.9166     0.0474
  4 C      6.1024     6.0000    -0.1024     4.0837     3.6588     0.4248
  5 N      7.1462     7.0000    -0.1462     3.3035     2.8241     0.4793
  6 C      6.2871     6.0000    -0.2871     3.8840     3.6000     0.2840
  7 H      0.8389     1.0000     0.1611     0.9681     0.9202     0.0479
  8 H      0.8004     1.0000     0.1996     0.9699     0.9231     0.0468
  9 H      0.7990     1.0000     0.2010     0.9699     0.9231     0.0468
 10 C      6.0524     6.0000    -0.0524     4.0132     3.5932     0.4199
 11 N      7.2220     7.0000    -0.2220     3.2553     2.7690     0.4863
 12 C      6.2837     6.0000    -0.2837     3.9127     3.6295     0.2832
 13 H      0.8336     1.0000     0.1664     0.9659     0.9185     0.0474
 14 H      0.8324     1.0000     0.1676     0.9634     0.9159     0.0475
 15 H      0.8003     1.0000     0.1997     0.9703     0.9236     0.0467
 16 C      6.1060     6.0000    -0.1060     4.0878     3.6629     0.4250
 17 N      7.1442     7.0000    -0.1442     3.3068     2.8276     0.4791

  Mayer bond orders larger than 0.100000
B(  0-C ,  1-H ) :   0.9147 B(  0-C ,  2-H ) :   0.9038 B(  0-C ,  3-H ) :   0.9167 
B(  0-C ,  4-C ) :   0.9013 B(  4-C ,  5-N ) :   2.7704 B(  6-C ,  7-H ) :   0.9102 
B(  6-C ,  8-H ) :   0.9034 B(  6-C ,  9-H ) :   0.9022 B(  6-C , 10-C ) :   0.9000 
B( 10-C , 11-N ) :   2.6965 B( 12-C , 13-H ) :   0.9148 B( 12-C , 14-H ) :   0.9166 
B( 12-C , 15-H ) :   0.9044 B( 12-C , 16-C ) :   0.9009 B( 16-C , 17-N ) :   2.7750 



----------------------------------
MP2 DERIVATIVE INTEGRAL GENERATION
----------------------------------


Input Wavefunction Amplitudes       ... 12mecn.remya.etal.2.mol1,4,7-orca.engrad-mp2.def2tzvp.frozencore.mp2tsaa.tmp
Input Correlated Electron Density   ... 12mecn.remya.etal.2.mol1,4,7-orca.engrad-mp2.def2tzvp.frozencore.pmp2re
Input Energy Weighted Density       ... 12mecn.remya.etal.2.mol1,4,7-orca.engrad-mp2.def2tzvp.frozencore.wmp2.tmp
Input SCF Electron Density          ... 12mecn.remya.etal.2.mol1,4,7-orca.engrad-mp2.def2tzvp.frozencore.scfp

One-Electron Terms    ...
                        ... One-Electron Terms done
Prescreening matrices              ... done

Batch handling in the gradient evaluation:
Memory available                      ... 8000.0 MB
Memory per occupied orbital in Q2     ...   20.3 MB
Memory per occupied orbital in Q3     ...    0.1 MB
Total memory requirement per |i>      ...   20.4 MB
Max. Number of orbitals possible      ...    391
Number of orbitals treated per batch  ...     24
Number of batches to be done          ...      1
Batch   0: i=    9 ...    32

---------------------------------------
MP2 TOTAL ENERGY:     -397.467789111 Eh
---------------------------------------

The final MP2 gradient
  0:  -0.00114588   0.00120076  -0.00796413
  1:  -0.00092396   0.00371578  -0.00094356
  2:   0.00110673  -0.00286152   0.00047734
  3:   0.00072512  -0.00241655   0.00046801
  4:   0.00083234   0.00018342   0.00368445
  5:  -0.00018268   0.00009252   0.00376421
  6:   0.00075057  -0.00233235   0.00803178
  7:   0.00061873  -0.00340493   0.00013937
  8:  -0.00009639   0.00299931  -0.00072329
  9:  -0.00139535   0.00288374  -0.00041977
 10:  -0.00004942   0.00015369  -0.00132760
 11:  -0.00007067  -0.00006429  -0.00492783
 12:  -0.00156136   0.00192516  -0.00700856
 13:  -0.00100752   0.00354309  -0.00047126
 14:   0.00244036  -0.00228275  -0.00122399
 15:  -0.00090408  -0.00267076   0.00009476
 16:   0.00052781  -0.00045886   0.00435979
 17:   0.00033564  -0.00020546   0.00399030

-----------------------------------
NORM OF THE MP2 GRADIENT:  0.019501
-----------------------------------

-------------------------   --------------------
FINAL SINGLE POINT ENERGY      -397.467789110592
-------------------------   --------------------


                            ***************************************
                            *     ORCA property calculations      *
                            ***************************************

                                    ---------------------
                                    Active property flags
                                    ---------------------
   (+) Dipole Moment


------------------------------------------------------------------------------
                       ORCA ELECTRIC PROPERTIES CALCULATION
------------------------------------------------------------------------------

Dipole Moment Calculation                       ... on
Quadrupole Moment Calculation                   ... off
Polarizability Calculation                      ... off
GBWName                                         ... 12mecn.remya.etal.2.mol1,4,7-orca.engrad-mp2.def2tzvp.frozencore.gbw
Electron density file                           ... 12mecn.remya.etal.2.mol1,4,7-orca.engrad-mp2.def2tzvp.frozencore.scfp
The origin for moment calculation is the CENTER OF MASS  = (-2.983986, -0.162836  0.353872)

-------------
DIPOLE MOMENT
-------------
                                X             Y             Z
Electronic contribution:     -0.08524       0.08530      -3.01900
Nuclear contribution   :      0.12235      -0.13524       4.63146
                        -----------------------------------------
Total Dipole Moment    :      0.03710      -0.04995       1.61246
                        -----------------------------------------
Magnitude (a.u.)       :      1.61366
Magnitude (Debye)      :      4.10159



--------------------
Rotational spectrum 
--------------------
 
Rotational constants in cm-1:     0.081410     0.020170     0.017178 
Rotational constants in MHz :  2440.602331   604.672446   514.997769 

 Dipole components along the rotational axes: 
x,y,z [a.u.] :     0.025722    -1.598091    -0.222110 
x,y,z [Debye]:     0.065381    -4.062026    -0.564558 

 

                         *** MP2 UNRELAXED DENSITY ***

------------------------------------------------------------------------------
                       ORCA ELECTRIC PROPERTIES CALCULATION
------------------------------------------------------------------------------

Dipole Moment Calculation                       ... on
Quadrupole Moment Calculation                   ... off
Polarizability Calculation                      ... off
GBWName                                         ... 12mecn.remya.etal.2.mol1,4,7-orca.engrad-mp2.def2tzvp.frozencore.gbw
Electron density file                           ... 12mecn.remya.etal.2.mol1,4,7-orca.engrad-mp2.def2tzvp.frozencore.pmp2ur
The origin for moment calculation is the CENTER OF MASS  = (-2.983986, -0.162836  0.353872)

-------------
DIPOLE MOMENT
-------------
                                X             Y             Z
Electronic contribution:     -0.08629       0.08644      -3.05476
Nuclear contribution   :      0.12235      -0.13524       4.63146
                        -----------------------------------------
Total Dipole Moment    :      0.03606      -0.04880       1.57670
                        -----------------------------------------
Magnitude (a.u.)       :      1.57786
Magnitude (Debye)      :      4.01061



--------------------
Rotational spectrum 
--------------------
 
Rotational constants in cm-1:     0.081410     0.020170     0.017178 
Rotational constants in MHz :  2440.602331   604.672446   514.997769 

 Dipole components along the rotational axes: 
x,y,z [a.u.] :     0.024938    -1.562657    -0.217115 
x,y,z [Debye]:     0.063388    -3.971957    -0.551862 

 

                           *** MP2 RELAXED DENSITY ***

------------------------------------------------------------------------------
                       ORCA ELECTRIC PROPERTIES CALCULATION
------------------------------------------------------------------------------

Dipole Moment Calculation                       ... on
Quadrupole Moment Calculation                   ... off
Polarizability Calculation                      ... off
GBWName                                         ... 12mecn.remya.etal.2.mol1,4,7-orca.engrad-mp2.def2tzvp.frozencore.gbw
Electron density file                           ... 12mecn.remya.etal.2.mol1,4,7-orca.engrad-mp2.def2tzvp.frozencore.pmp2re
The origin for moment calculation is the CENTER OF MASS  = (-2.983986, -0.162836  0.353872)

-------------
DIPOLE MOMENT
-------------
                                X             Y             Z
Electronic contribution:     -0.08871       0.08989      -3.15525
Nuclear contribution   :      0.12235      -0.13524       4.63146
                        -----------------------------------------
Total Dipole Moment    :      0.03363      -0.04535       1.47621
                        -----------------------------------------
Magnitude (a.u.)       :      1.47729
Magnitude (Debye)      :      3.75497



--------------------
Rotational spectrum 
--------------------
 
Rotational constants in cm-1:     0.081410     0.020170     0.017178 
Rotational constants in MHz :  2440.602331   604.672446   514.997769 

 Dipole components along the rotational axes: 
x,y,z [a.u.] :     0.023276    -1.463100    -0.202922 
x,y,z [Debye]:     0.059163    -3.718905    -0.515786 

 

Timings for individual modules:

Sum of individual times         ...      247.267 sec (=   4.121 min)
GTO integral calculation        ...        1.007 sec (=   0.017 min)   0.4 %
SCF iterations                  ...       51.183 sec (=   0.853 min)  20.7 %
MP2 module                      ...      195.077 sec (=   3.251 min)  78.9 %
                             ****ORCA TERMINATED NORMALLY****
TOTAL RUN TIME: 0 days 0 hours 4 minutes 8 seconds 201 msec
