91
Energy:   -777.08029041
C   -0.93983769   1.35079736  -5.35959055
H   -0.15515770   2.07504280  -5.29142877
H   -1.16611764   1.16589282  -6.38891401
H   -0.62586866   0.43989072  -4.89421797
C   -2.19539927   1.88557520  -4.64602360
N   -3.13022193   2.28374162  -4.11474057
C    0.69271047   4.99325879   3.73496536
H    0.68844198   5.99558641   4.10942670
H    1.69540680   4.61985350   3.72674099
H    0.08699696   4.37493051   4.36399665
C    0.12749438   4.97801126   2.30252050
N   -0.29333470   4.96665878   1.23600018
C    0.73490157  -1.09434269   0.46439940
H    1.72226779  -1.50488606   0.42615979
H    0.78416219  -0.03385008   0.33087824
H    0.13939807  -1.52449573  -0.31357427
C    0.10001257  -1.41068547   1.83130950
N   -0.37269115  -1.64621706   2.84903619
C    2.81058774  -3.12857694  -2.99773832
H    2.60782614  -4.17801632  -2.94809054
H    3.28953262  -2.81469706  -2.09386316
H    3.45284548  -2.92837576  -3.82979817
C    1.48871689  -2.35805979  -3.17255471
N    0.50452395  -1.78437475  -3.30271346
C    5.17209101  -2.71186754   0.52153507
H    5.35800090  -1.88957909  -0.13738784
H    4.72942414  -3.51622761  -0.02796472
H    6.09515556  -3.03959455   0.95216941
C    4.21310448  -2.26598830   1.64097089
N    3.49909542  -1.93401093   2.47444173
C   -2.12304398   5.69826285  -3.58879347
H   -2.98816203   5.11627287  -3.82912367
H   -1.71274150   6.11425292  -4.48517689
H   -2.39878871   6.48872088  -2.92243019
C   -1.07158141   4.79950835  -2.91183941
N   -0.28871973   4.13034477  -2.40781634
C   -3.67043463  -2.62707768   2.30119450
H   -2.67065896  -3.00552618   2.25509123
H   -4.33852593  -3.32818001   1.84621248
H   -3.94947920  -2.48039638   3.32370015
C   -3.74619675  -1.28444051   1.55073761
N   -3.80260509  -0.28478611   0.99198834
C   -2.70326747  -0.87913233  -2.18835173
H   -2.26508415  -1.49994059  -2.94167281
H   -3.59368344  -0.42684618  -2.57240347
H   -2.94588818  -1.47397532  -1.33266715
C   -1.70319630   0.21954474  -1.78293052
N   -0.95859785   1.03755975  -1.48107600
C   -2.24556326   1.08212374   4.05459630
H   -3.29323818   1.29828704   4.03112587
H   -1.78980147   1.61343309   4.86384945
H   -2.10128223   0.03083369   4.19196916
C   -1.60130650   1.51939446   2.72594001
N   -1.12162805   1.84496239   1.73669501
C    3.69585190   1.62944656   1.78329453
H    4.50905536   1.33630759   1.15268383
H    3.34552437   0.78000128   2.33157587
H    4.02805123   2.38280253   2.46666667
C    2.55153585   2.18964531   0.91824070
N    1.69954054   2.60673874   0.27416879
C   -5.24737381   2.18419312  -1.21692643
H   -5.26069575   2.00945344  -2.27247782
H   -6.08710363   2.78896740  -0.94489522
H   -5.29905120   1.24883549  -0.69988228
C   -3.94523779   2.91148181  -0.83339943
N   -2.97573834   3.45298130  -0.54784614
C    1.91051836  -0.70995504   5.34736236
H    2.87089870  -1.03703532   5.00737963
H    1.16809234  -1.42519445   5.06076982
H    1.92248488  -0.61585754   6.41314918
C    1.57960362   0.65477852   4.71522491
N    1.33322255   1.67088469   4.24456985
C   -0.73404805  -5.09361149  -2.30208868
H    0.27655587  -5.39529779  -2.12163014
H   -0.77752695  -4.51012483  -3.19794134
H   -1.35113448  -5.96092540  -2.41103830
C   -1.23784284  -4.25090820  -1.11564780
N   -1.61294097  -3.62347729  -0.23228864
C    1.03043957  -4.77262042   2.42635751
H   -0.02686410  -4.60846144   2.41854977
H    1.49443201  -4.07719113   3.09418099
H    1.23397096  -5.77097242   2.75311024
C    1.59143215  -4.57290404   1.00614601
N    2.00911662  -4.42420611  -0.05126600
C    2.21433039   1.45383967  -3.01163237
H    2.74139596   1.52990599  -3.93970348
H    2.11589679   2.42644529  -2.57660568
H    1.24265648   1.04114237  -3.18607384
C    2.99590626   0.53850998  -2.05094994
N    3.57782501  -0.14299458  -1.33567821
Na  -0.61337315   3.08678213  -0.24022729
