91
Energy:   -780.90137355
C    1.51473036   5.54708917  -5.16309880
H    2.51081412   5.88743654  -4.97105458
H    0.84226951   6.37895360  -5.13669695
H    1.47494596   5.08679092  -6.12821114
C    1.10621435   4.52246400  -4.08845564
N    0.80205561   3.75958399  -3.28833495
C   -0.38005148   4.88556927   2.61266364
H   -0.52344582   5.89861966   2.92582038
H    0.54628880   4.51922305   3.00328268
H   -1.18465988   4.28209178   2.97779286
C   -0.34887369   4.82335503   1.07423674
N   -0.32566040   4.77703370  -0.07119202
C    0.57370463  -1.37228450   0.24473812
H    0.58065774  -0.35734979  -0.09402342
H    0.19063336  -2.00401961  -0.52925557
H    1.57077740  -1.67327242   0.48999562
C   -0.32000744  -1.49060804   1.49328860
N   -0.98541669  -1.57870530   2.42289118
C    3.68142742  -4.11623960  -2.14459789
H    4.29887670  -4.24434999  -3.00903082
H    3.48647708  -5.07022929  -1.70097968
H    4.18362978  -3.48988890  -1.43722480
C    2.35054641  -3.46029999  -2.55702846
N    1.35964500  -2.97192314  -2.86410177
C    4.96810548  -2.82684310   1.60895880
H    4.66764418  -3.71863737   1.09971803
H    5.75092650  -3.05776198   2.30088858
H    5.32153007  -2.11110105   0.89642566
C    3.76519870  -2.24110788   2.37153965
N    2.86957993  -1.80500139   2.93931575
C   -4.89955619   2.04900783  -1.41800377
H   -4.98467438   1.08295336  -1.87010313
H   -5.72016519   2.66156321  -1.72828727
H   -4.91344401   1.94686079  -0.35298161
C   -3.57599564   2.70479879  -1.85357890
N   -2.59054466   3.19306498  -2.17788438
C   -4.03878054  -2.95417424   1.29153725
H   -3.16274422  -3.11818654   1.88361875
H   -4.24589535  -3.82888185   0.71111573
H   -4.86946187  -2.74710139   1.93340052
C   -3.80596691  -1.75722202   0.35095061
N   -3.63262658  -0.86603669  -0.34935889
C   -1.78791600  -1.66780088  -3.04622395
H   -1.24798823  -2.22924965  -3.77981338
H   -2.76893456  -1.45073025  -3.41416690
H   -1.86345523  -2.23887706  -2.14452282
C   -1.04435364  -0.35022866  -2.75861579
N   -0.49073766   0.63076375  -2.54447844
C   -2.95263655   1.26019323   2.58899128
H   -3.27181815   2.19593054   2.99815992
H   -2.41000056   0.71289029   3.33122087
H   -3.80774587   0.69452708   2.28287210
C   -2.04352403   1.51527499   1.37241916
N   -1.36664844   1.70519495   0.46662592
C    3.37691332   1.53753892   1.69218872
H    3.63061810   2.40712609   2.26170800
H    4.26861681   1.09674926   1.29789384
H    2.87853690   0.83114281   2.32268422
C    2.44566949   1.93707408   0.53255232
N    1.75231613   2.23454617  -0.33084969
C   -3.58682634   6.39074075  -0.50174726
H   -4.52027346   6.53805893  -1.00361777
H   -2.82699885   6.16552719  -1.22066320
H   -3.32281487   7.28147242   0.02909557
C   -3.71692326   5.22086201   0.49125754
N   -3.81378633   4.34983412   1.23059475
C    0.76868063  -0.33694424   5.19475205
H    1.80175197  -0.60552341   5.26910932
H    0.21017085  -1.16844563   4.81849236
H    0.39956603  -0.06789458   6.16236033
C    0.61691555   0.85912117   4.23663154
N    0.50391956   1.74964623   3.52326727
C   -0.14630779  -5.99549677  -1.90230026
H    0.81430735  -6.20769426  -1.48147850
H   -0.02292416  -5.57003749  -2.87629203
H   -0.71067632  -6.90142316  -1.97769676
C   -0.89418824  -4.99857576  -0.99763273
N   -1.45101923  -4.25632275  -0.32406664
C    0.47273751  -4.64972118   2.86673307
H    0.75448215  -3.81572543   3.47498567
H    0.56964673  -5.55270584   3.43253022
H   -0.54304881  -4.53391369   2.55103406
C    1.38973361  -4.71710509   1.63134748
N    2.07247889  -4.76727547   0.71154675
C    2.85124091   0.35581481  -3.22811729
H    3.62535838   0.45563553  -3.96001765
H    2.44490675   1.32017043  -3.00493603
H    2.07805490  -0.27714410  -3.61079927
C    3.43471877  -0.26481706  -1.94516379
N    3.86914455  -0.72690569  -0.98994659
Na  -0.32764739   2.75948875  -1.42660228
