91
Energy:   -777.72596924
C    3.60222034   5.33300740   0.01941986
H    4.41372501   4.65187663  -0.13031734
H    3.34765609   5.36162847   1.05830242
H    3.89300217   6.31075680  -0.30361436
C    2.38213181   4.86490450  -0.79535843
N    1.47372044   4.51638061  -1.40199790
C   -0.37286739   6.38571285   3.27367140
H   -0.10626539   7.37700923   2.97175247
H    0.37687258   5.99968443   3.93228443
H   -1.31512943   6.40840240   3.78015588
C   -0.47948732   5.48192186   2.03133729
N   -0.55887070   4.80900838   1.10636308
C   -1.86372203  -2.84905508   4.13916951
H   -2.13320529  -3.85211348   3.88196766
H   -2.18492129  -2.63836713   5.13783898
H   -0.80147512  -2.73755438   4.07515235
C   -2.54242345  -1.86910987   3.16414553
N   -3.04774750  -1.13949611   2.43819586
C    1.69242540  -4.21337181  -3.45431917
H    1.62346771  -5.06021123  -4.10470983
H    2.28477611  -4.46700732  -2.60010096
H    2.14972958  -3.39899184  -3.97638932
C    0.28095200  -3.80160820  -2.99628688
N   -0.76995411  -3.49503148  -2.65526103
C    3.94285369  -1.42436741  -0.21213831
H    4.67379404  -0.64332820  -0.18755896
H    4.43529048  -2.37156814  -0.28435931
H    3.35797477  -1.39380917   0.68334030
C    3.02389192  -1.22919971  -1.43239190
N    2.33968311  -1.08388848  -2.34092617
C   -0.59978344  -0.40673842  -4.18580603
H   -1.40862586  -1.01207153  -3.83332063
H    0.28015872  -1.00790603  -4.28171428
H   -0.85382973   0.00826043  -5.13876749
C   -0.33647672   0.73243461  -3.18353144
N   -0.14043290   1.58060072  -2.43729245
C   -4.64569340   1.51039273   0.85246059
H   -5.09519739   2.41372408   1.20860497
H   -4.84441554   0.71702937   1.54237593
H   -5.05468498   1.26168915  -0.10449892
C   -3.12408748   1.71006864   0.72422268
N   -1.99118271   1.85873642   0.62874372
C   -3.73356356  -2.56349010  -0.91444943
H   -3.29708732  -2.55214884   0.06241292
H   -3.24663275  -3.30391123  -1.51409435
H   -4.77517189  -2.79577424  -0.83702036
C   -3.56344177  -1.17984213  -1.56880168
N   -3.43677836  -0.14965332  -2.05599667
C   -0.31617384  -1.22124582   0.08522234
H    0.18131685  -0.57151613  -0.60416471
H   -1.31270901  -0.86895863   0.25168704
H   -0.35075545  -2.21126304  -0.31921443
C    0.45185015  -1.23851640   1.41992862
N    1.02367893  -1.25137512   2.41367812
C    3.43258986   1.50717995   2.16277038
H    4.33141467   1.53611960   1.58296297
H    3.33800359   0.54751699   2.62645080
H    3.46995764   2.26547385   2.91675519
C    2.22130373   1.75534985   1.24473029
N    1.31944614   1.94012362   0.56120772
C   -4.10450999   2.80745599  -3.64195945
H   -4.26019431   3.49892896  -4.44353771
H   -5.03396568   2.62192444  -3.14538191
H   -3.71948411   1.88890743  -4.03301278
C   -3.09686719   3.40130291  -2.64016015
N   -2.34663133   3.84344893  -1.89427503
C   -0.82191818   1.24056700   3.95952249
H   -0.45305482   0.43010635   4.55281292
H   -0.97769656   0.90546621   2.95536133
H   -1.74806461   1.58836356   4.36718587
C    0.20435909   2.38875412   3.96413870
N    0.96846916   3.24363162   3.96757568
C   -1.06860508  -6.27030086  -0.69179935
H   -0.03180439  -6.30058543  -0.95452992
H   -1.64951763  -6.03437815  -1.55885193
H   -1.36797062  -7.22423973  -0.31064322
C   -1.29388102  -5.19330527   0.38566584
N   -1.46160920  -4.39143310   1.18788766
C    1.83025980  -4.58748619   2.73267224
H    0.80192212  -4.73044220   2.99148759
H    2.20892442  -3.72447025   3.23934340
H    2.39450334  -5.44854310   3.02440725
C    1.95321465  -4.38455560   1.21106083
N    2.04476012  -4.23346455   0.07815197
C    3.15880946   2.13624500  -3.59974934
H    3.84308725   2.52034538  -4.32716325
H    2.30878782   2.78273795  -3.53334781
H    2.84041816   1.15727557  -3.89154538
C    3.85560341   2.06194503  -2.22841507
N    4.37439818   2.00662533  -1.20739436
Na  -0.39283673   3.15666908  -0.63841568
