91
Energy:   -780.27472096
C    4.09710103   4.73867860   2.24451283
H    4.70516696   5.55087110   1.90466088
H    4.72448733   3.93965243   2.58043351
H    3.47833624   5.06999080   3.05213988
C    3.20953055   4.24288615   1.08778966
N    2.54869399   3.87374614   0.22655669
C    4.72917509   1.19881690  -1.06645492
H    4.16331240   2.03094302  -1.43013846
H    4.27683612   0.28762539  -1.39814540
H    5.72988266   1.25711300  -1.44073427
C    4.75435358   1.22870921   0.47304905
N    4.77310011   1.25096540   1.61927974
C   -0.69398825  -1.36808678  -0.78713310
H    0.25778097  -1.14963277  -1.22452695
H   -0.96137158  -0.58708124  -0.10637206
H   -1.43303357  -1.43806240  -1.55772671
C   -0.61531936  -2.70585118  -0.02831982
N   -0.55674680  -3.70187759   0.53665117
C    2.38528332  -4.64771283  -1.63246847
H    1.60853368  -4.94202836  -0.95797714
H    3.28479540  -5.17517631  -1.39255308
H    2.09310365  -4.87870651  -2.63554974
C    2.62911794  -3.13250444  -1.50484316
N    2.81066389  -2.00436292  -1.40982032
C    2.37949094  -1.20824036   1.83272074
H    2.62631011  -1.14216316   2.87176563
H    3.27807751  -1.28408978   1.25679702
H    1.77380066  -2.07409022   1.66436879
C    1.60270277   0.05200316   1.40847267
N    1.02434866   0.99031173   1.09260070
C   -4.19076621   0.84102827  -1.04771064
H   -4.11236184   0.24876423  -1.93539091
H   -4.92462606   1.60603398  -1.19302090
H   -4.48232049   0.21818679  -0.22797673
C   -2.82777764   1.48883667  -0.74077999
N   -1.81297069   1.97115947  -0.51225617
C   -4.28515012  -3.47927012   0.95555141
H   -3.38352864  -3.91349177   1.33427354
H   -5.06318850  -4.21381053   0.95795062
H   -4.57125461  -2.65464810   1.57445514
C   -4.05124040  -2.98396486  -0.48373971
N   -3.87708398  -2.61518757  -1.55535738
C   -2.98843155  -1.80799445  -4.96868664
H   -3.62941223  -1.48594464  -5.76261855
H   -3.55878437  -2.36084513  -4.25178157
H   -2.21437695  -2.43101651  -5.36565273
C   -2.35907571  -0.57912549  -4.28648995
N   -1.89049168   0.33582330  -3.77856351
C    3.11853388   1.05065375   4.88523061
H    3.84275045   0.76201515   4.15236070
H    2.49188368   0.21461616   5.11598971
H    3.61956504   1.37654920   5.77273218
C    2.25699939   2.20030296   4.33055501
N    1.61554781   3.05626905   3.91757381
C   -1.62508154   3.67681123  -4.42453927
H   -1.06711754   2.98337446  -5.01844312
H   -1.78955423   4.57396078  -4.98397694
H   -2.56705847   3.24325361  -4.16070916
C   -0.83567084   4.00761659  -3.14430547
N   -0.24791869   4.25391622  -2.19111323
C   -0.19188927   6.01502454   3.44472705
H   -1.15429969   6.35815459   3.76241893
H    0.40890954   6.85290065   3.15853915
H    0.28384002   5.49296155   4.24848757
C   -0.35613372   5.06663728   2.24256843
N   -0.47842117   4.36051985   1.34750669
C   -1.69099922   1.52573869   3.23827555
H   -1.94320960   2.40950543   2.69032807
H   -0.62656095   1.43589006   3.29989923
H   -2.10134573   1.58826879   4.22448284
C   -2.26940904   0.29309127   2.51881573
N   -2.70006144  -0.62467076   1.98314519
C   -1.98768153  -5.42363510  -2.46035083
H   -1.84359825  -5.50636244  -1.40332842
H   -1.75418987  -6.35809563  -2.92635970
H   -3.00712266  -5.16914158  -2.66251887
C   -1.06387237  -4.32592343  -3.01999868
N   -0.37605445  -3.50862719  -3.43668194
C   -1.23981046  -3.34454227   3.91677361
H   -1.53594437  -3.77060648   4.85254825
H   -0.66684737  -4.05986610   3.36457418
H   -2.11042433  -3.07544976   3.35595296
C   -0.38520284  -2.08908654   4.17187501
N    0.25109137  -1.15434268   4.36180959
C    1.50448622  -0.29965903  -4.09430679
H    1.34520518   0.20535833  -5.02408483
H    0.75798650  -1.05550666  -3.96651155
H    2.47394243  -0.75248488  -4.09588434
C    1.41284099   0.71308157  -2.93777853
N    1.34460695   1.46711299  -2.07669067
Na   0.42660587   2.87723604  -0.32082840
