91
Energy:   -776.61116400
C    4.62218615   3.64166409   2.29248129
H    4.61909666   2.90934901   3.07261286
H    4.97324940   4.57489969   2.68071448
H    5.26756813   3.31856676   1.50255136
C    3.19249390   3.81750767   1.74781707
N    2.12802304   3.94843121   1.34228980
C    0.83808781   1.65317559   3.86558116
H    1.81083972   1.52150486   4.29139417
H    0.27699087   2.34046724   4.46366100
H    0.93286517   2.03961839   2.87231467
C    0.10920252   0.29730566   3.82150200
N   -0.43348570  -0.71220114   3.78868307
C   -2.11534605  -3.51259738   4.41760711
H   -1.04864851  -3.53046865   4.49968727
H   -2.51956782  -4.41584768   4.82459942
H   -2.50070376  -2.67380443   4.95874011
C   -2.51418962  -3.39410548   2.93487872
N   -2.81114679  -3.30588287   1.83092004
C    1.46614303  -3.24720644  -2.63233945
H    0.61782543  -3.57539958  -2.06882663
H    1.86398508  -4.06947545  -3.18955974
H    1.16833897  -2.47083733  -3.30573594
C    2.54310824  -2.70879113  -1.67220669
N    3.34495779  -2.30791646  -0.95734421
C    5.46286500  -0.22557370   0.54018653
H    5.09042193  -0.11397821  -0.45667494
H    5.80083984  -1.23052053   0.68424889
H    6.27790728   0.45036386   0.69417870
C    4.33941988   0.08734018   1.54594791
N    3.50296393   0.32031879   2.29478298
C   -6.25150557  -1.73714938  -2.86194458
H   -5.82450322  -1.16971653  -3.66231271
H   -6.96255374  -1.13409962  -2.33692974
H   -6.74125369  -2.60155767  -3.25924066
C   -5.13781876  -2.17766838  -1.89383060
N   -4.30862830  -2.50565479  -1.17302573
C   -3.65870285   0.63807810   3.07261420
H   -4.59118865   0.13350831   3.21676602
H   -3.82803031   1.69347562   3.02399959
H   -3.00451290   0.41911034   3.89053089
C   -3.01445875   0.16044696   1.75792106
N   -2.53478974  -0.19517112   0.77907226
C   -1.18168154   0.61288741  -4.19319223
H   -0.68860196   0.20310623  -5.04984391
H   -0.64809498   1.47585083  -3.85337079
H   -2.18064249   0.89187387  -4.45614216
C   -1.22155637  -0.44089008  -3.07088968
N   -1.25124499  -1.22547532  -2.23528442
C    0.88856193   0.81587654   0.00000425
H    1.78641795   1.27065832   0.36322358
H    1.13799203   0.00867465  -0.65658453
H    0.31929884   0.44161871   0.82509194
C    0.05663939   1.86175141  -0.76527390
N   -0.56276476   2.64045278  -1.33505826
C    2.44491121   3.98739728  -2.29600306
H    1.82879511   4.42901057  -1.54083499
H    1.84321338   3.37375288  -2.93341923
H    2.90658462   4.75903362  -2.87594625
C    3.53319026   3.12441241  -1.63079195
N    4.34346349   2.48188096  -1.13551203
C   -0.81603158   5.39937660   0.91942025
H   -1.63128915   6.08518533   0.81981274
H   -0.46535316   5.11872114  -0.05174207
H   -0.02204974   5.86588657   1.46426920
C   -1.29012604   4.14483089   1.67635453
N   -1.64311092   3.21076458   2.23992650
C   -3.80491130   2.90602126  -0.77406192
H   -3.31054701   3.71668965  -1.26733760
H   -3.19312376   2.55058296   0.02860782
H   -4.74273808   3.24382352  -0.38512792
C   -4.04717398   1.76464546  -1.77913410
N   -4.22754957   0.91483930  -2.52745602
C    2.13443376  -2.79512049   2.43273458
H    2.10626482  -2.01704762   3.16670277
H    3.06422225  -2.75395191   1.90481641
H    2.04053483  -3.74504807   2.91618021
C    0.97191778  -2.60702984   1.44037451
N    0.10637180  -2.46698779   0.70151733
C    4.73134404  -0.09324902  -3.52093032
H    4.98044017  -0.95842475  -2.94272426
H    5.26896946   0.75278343  -3.14664820
H    4.99600015  -0.25981682  -4.54421494
C    3.21814346   0.17403660  -3.41903620
N    2.09149685   0.37304288  -3.34317140
C   -3.34817137  -6.73787662  -1.00228297
H   -4.24313393  -6.50276305  -0.46500854
H   -2.83148429  -7.53171888  -0.50454004
H   -3.59895516  -7.04373744  -1.99649408
C   -2.44279467  -5.49351183  -1.06101354
N   -1.76870056  -4.56702568  -1.10474113
Na  -2.08572126  -2.30930176  -0.27353698
