
                                 *****************
                                 * O   R   C   A *
                                 *****************

           --- An Ab Initio, DFT and Semiempirical electronic structure package ---

                  #######################################################
                  #                        -***-                        #
                  #          Department of theory and spectroscopy      #
                  #               Directorship: Frank Neese             #
                  #        Max Planck Institute fuer Kohlenforschung    #
                  #                Kaiser Wilhelm Platz 1               #
                  #                 D-45470 Muelheim/Ruhr               #
                  #                      Germany                        #
                  #                                                     #
                  #                  All rights reserved                #
                  #                        -***-                        #
                  #######################################################


                         Program Version 4.2.0 -  RELEASE  -


 With contributions from (in alphabetic order):
   Daniel Aravena         : Magnetic Suceptibility
   Michael Atanasov       : Ab Initio Ligand Field Theory (pilot matlab implementation)
   Alexander A. Auer      : GIAO ZORA, VPT2
   Ute Becker             : Parallelization
   Giovanni Bistoni       : ED, misc. LED, open-shell LED, HFLED
   Martin Brehm           : Molecular dynamics
   Dmytro Bykov           : SCF Hessian
   Vijay G. Chilkuri      : MRCI spin determinant printing, contributions to CSF-ICE
   Dipayan Datta          : RHF DLPNO-CCSD density
   Achintya Kumar Dutta   : EOM-CC, STEOM-CC
   Dmitry Ganyushin       : Spin-Orbit,Spin-Spin,Magnetic field MRCI
   Miquel Garcia          : C-PCM Hessian, Gaussian charge scheme
   Yang Guo               : DLPNO-NEVPT2, CIM, IAO-localization
   Andreas Hansen         : Spin unrestricted coupled pair/coupled cluster methods
   Benjamin Helmich-Paris : CASSCF linear response (MC-RPA)
   Lee Huntington         : MR-EOM, pCC
   Robert Izsak           : Overlap fitted RIJCOSX, COSX-SCS-MP3, EOM
   Christian Kollmar      : KDIIS, OOCD, Brueckner-CCSD(T), CCSD density
   Simone Kossmann        : Meta GGA functionals, TD-DFT gradient, OOMP2, MP2 Hessian
   Martin Krupicka        : AUTO-CI
   Lucas Lang             : DCDCAS
   Dagmar Lenk            : GEPOL surface, SMD
   Dimitrios Liakos       : Extrapolation schemes; Compound Job, initial MDCI parallelization
   Dimitrios Manganas     : Further ROCIS development; embedding schemes
   Dimitrios Pantazis     : SARC Basis sets
   Taras Petrenko         : DFT Hessian,TD-DFT gradient, ASA, ECA, R-Raman, ABS, FL, XAS/XES, NRVS
   Peter Pinski           : DLPNO-MP2, DLPNO-MP2 Gradient
   Christoph Reimann      : Effective Core Potentials
   Marius Retegan         : Local ZFS, SOC
   Christoph Riplinger    : Optimizer, TS searches, QM/MM, DLPNO-CCSD(T), (RO)-DLPNO pert. Triples
   Tobias Risthaus        : Range-separated hybrids, TD-DFT gradient, RPA, STAB
   Michael Roemelt        : Original ROCIS implementation
   Masaaki Saitow         : Open-shell DLPNO-CCSD energy and density
   Barbara Sandhoefer     : DKH picture change effects
   Avijit Sen             : IP-ROCIS
   Kantharuban Sivalingam : CASSCF convergence, NEVPT2, FIC-MRCI
   Bernardo de Souza      : ESD, SOC TD-DFT
   Georgi Stoychev        : AutoAux, RI-MP2 NMR
   Willem Van den Heuvel  : Paramagnetic NMR
   Boris Wezisla          : Elementary symmetry handling
   Frank Wennmohs         : Technical directorship


 We gratefully acknowledge several colleagues who have allowed us to
 interface, adapt or use parts of their codes:
   Stefan Grimme, W. Hujo, H. Kruse,             : VdW corrections, initial TS optimization,
                  C. Bannwarth                     DFT functionals, gCP, sTDA/sTD-DF
   Ed Valeev, F. Pavosevic, A. Kumar             : LibInt (2-el integral package), F12 methods
   Garnet Chan, S. Sharma, J. Yang, R. Olivares  : DMRG
   Ulf Ekstrom                                   : XCFun DFT Library
   Mihaly Kallay                                 : mrcc  (arbitrary order and MRCC methods)
   Andreas Klamt, Michael Diedenhofen            : otool_cosmo (COSMO solvation model)
   Jiri Pittner, Ondrej Demel                    : Mk-CCSD
   Frank Weinhold                                : gennbo (NPA and NBO analysis)
   Christopher J. Cramer and Donald G. Truhlar   : smd solvation model
   Lars Goerigk                                  : TD-DFT with DH, B97 family of functionals
   V. Asgeirsson, H. Jonsson                     : NEB implementation
   FAccTs GmbH                                   : IRC, NEB, NEB-TS, Multilevel, MM, QM/MM, CI optimization
   S Lehtola, MJT Oliveira, MAL Marques          : LibXC Library


 Your calculation uses the libint2 library for the computation of 2-el integrals
 For citations please refer to: http://libint.valeyev.net

 Your ORCA version has been built with support for libXC version: 4.2.3
 For citations please refer to: https://tddft.org/programs/libxc/

 This ORCA versions uses:
   CBLAS   interface :  Fast vector & matrix operations
   LAPACKE interface :  Fast linear algebra routines
   SCALAPACK package :  Parallel linear algebra routines


----- Orbital basis set information -----
Your calculation utilizes the basis: def2-TZVP
   F. Weigend and R. Ahlrichs, Phys. Chem. Chem. Phys. 7, 3297 (2005).

================================================================================
                                        WARNINGS
                       Please study these warnings very carefully!
================================================================================


WARNING: The frozen-core approximation for MP2-gradient calculations is turned on by default.

INFO   : the flag for use of LIBINT has been found!

================================================================================
                                       INPUT FILE
================================================================================
NAME = 12h2o.su.etal.mol0,1,2,4,7,8,9,10-orca.engrad-mp2.def2tzvp.frozencore.inp
|  1> # 12h2o.su.etal.mol0,1,2,4,7,8,9,10
|  2> ! MP2 def2-TZVP EnGrad TightSCF
|  3> 
|  4> %pal
|  5>     nprocs 6
|  6> end
|  7> 
|  8> %maxcore 8000
|  9> 
| 10> %scf
| 11>     ConvForced true
| 12> end
| 13> 
| 14> *xyz 0 1
| 15> O   1.794470000   0.923410000   2.768350000
| 16> H   2.338250000   1.359750000   3.430940000
| 17> H   0.879480000   1.303000000   2.865760000
| 18> O  -1.794470000  -0.923410000   2.768350000
| 19> H  -2.338250000  -1.359750000   3.430940000
| 20> H  -0.879480000  -1.303000000   2.865760000
| 21> O   0.923410000  -1.794470000  -2.768350000
| 22> H   1.359750000  -2.338250000  -3.430940000
| 23> H   1.303000000  -0.879480000  -2.865760000
| 24> O  -0.885520000   1.737840000   0.052730000
| 25> H  -1.032320000   2.090180000  -0.841890000
| 26> H  -1.284090000   0.839590000   0.017130000
| 27> O  -1.737840000  -0.885520000  -0.052730000
| 28> H  -2.090180000  -1.032320000   0.841890000
| 29> H  -0.839590000  -1.284090000  -0.017130000
| 30> O   1.752130000   0.741530000  -2.896280000
| 31> H   2.036450000   0.920500000  -1.984040000
| 32> H   0.921210000   1.242140000  -2.984230000
| 33> O   0.741530000  -1.752130000   2.896280000
| 34> H   0.920500000  -2.036450000   1.984040000
| 35> H   1.242140000  -0.921210000   2.984230000
| 36> O  -0.923410000   1.794470000  -2.768350000
| 37> H  -1.359750000   2.338250000  -3.430940000
| 38> H  -1.303000000   0.879480000  -2.865760000
| 39> *
| 40> 
| 41>                          ****END OF INPUT****
================================================================================

                     *******************************
                     * Energy+Gradient Calculation *
                     *******************************

---------------------------------
CARTESIAN COORDINATES (ANGSTROEM)
---------------------------------
  O      1.794470    0.923410    2.768350
  H      2.338250    1.359750    3.430940
  H      0.879480    1.303000    2.865760
  O     -1.794470   -0.923410    2.768350
  H     -2.338250   -1.359750    3.430940
  H     -0.879480   -1.303000    2.865760
  O      0.923410   -1.794470   -2.768350
  H      1.359750   -2.338250   -3.430940
  H      1.303000   -0.879480   -2.865760
  O     -0.885520    1.737840    0.052730
  H     -1.032320    2.090180   -0.841890
  H     -1.284090    0.839590    0.017130
  O     -1.737840   -0.885520   -0.052730
  H     -2.090180   -1.032320    0.841890
  H     -0.839590   -1.284090   -0.017130
  O      1.752130    0.741530   -2.896280
  H      2.036450    0.920500   -1.984040
  H      0.921210    1.242140   -2.984230
  O      0.741530   -1.752130    2.896280
  H      0.920500   -2.036450    1.984040
  H      1.242140   -0.921210    2.984230
  O     -0.923410    1.794470   -2.768350
  H     -1.359750    2.338250   -3.430940
  H     -1.303000    0.879480   -2.865760

----------------------------
CARTESIAN COORDINATES (A.U.)
----------------------------
  NO LB      ZA    FRAG     MASS         X           Y           Z
   0 O     8.0000    0    15.999    3.391057    1.744992    5.231423
   1 H     1.0000    0     1.008    4.418652    2.569555    6.483537
   2 H     1.0000    0     1.008    1.661976    2.462313    5.415502
   3 O     8.0000    0    15.999   -3.391057   -1.744992    5.231423
   4 H     1.0000    0     1.008   -4.418652   -2.569555    6.483537
   5 H     1.0000    0     1.008   -1.661976   -2.462313    5.415502
   6 O     8.0000    0    15.999    1.744992   -3.391057   -5.231423
   7 H     1.0000    0     1.008    2.569555   -4.418652   -6.483537
   8 H     1.0000    0     1.008    2.462313   -1.661976   -5.415502
   9 O     8.0000    0    15.999   -1.673390    3.284042    0.099645
  10 H     1.0000    0     1.008   -1.950802    3.949868   -1.590942
  11 H     1.0000    0     1.008   -2.426578    1.586595    0.032371
  12 O     8.0000    0    15.999   -3.284042   -1.673390   -0.099645
  13 H     1.0000    0     1.008   -3.949868   -1.950802    1.590942
  14 H     1.0000    0     1.008   -1.586595   -2.426578   -0.032371
  15 O     8.0000    0    15.999    3.311046    1.401289   -5.473176
  16 H     1.0000    0     1.008    3.848333    1.739493   -3.749292
  17 H     1.0000    0     1.008    1.740835    2.347304   -5.639377
  18 O     8.0000    0    15.999    1.401289   -3.311046    5.473176
  19 H     1.0000    0     1.008    1.739493   -3.848333    3.749292
  20 H     1.0000    0     1.008    2.347304   -1.740835    5.639377
  21 O     8.0000    0    15.999   -1.744992    3.391057   -5.231423
  22 H     1.0000    0     1.008   -2.569555    4.418652   -6.483537
  23 H     1.0000    0     1.008   -2.462313    1.661976   -5.415502

--------------------------------
INTERNAL COORDINATES (ANGSTROEM)
--------------------------------
 O      0   0   0     0.000000000000     0.00000000     0.00000000
 H      1   0   0     0.961828878803     0.00000000     0.00000000
 H      1   2   0     0.995381322057   106.21731035     0.00000000
 O      3   1   2     3.480861789658   117.35405144   223.81249033
 H      4   3   1     0.961828878803   134.84484566    98.22461471
 H      4   3   1     0.995381322057    62.29205096    12.66575463
 O      6   4   3     5.935920367146   102.58474291   273.48279218
 H      7   6   4     0.961828878803   146.97742434   224.01286022
 H      7   6   4     0.995381322057    97.62005672    87.72090689
 O      3   1   2     3.349245975813   116.85538783   143.82107740
 H     10   3   1     0.972645187106   154.03893681   304.15813038
 H     10   3   1     0.983350632989    97.20424340    87.67157074
 O     12  10   3     1.785153773264   170.81379649   301.36914736
 H     13  12  10     0.972645187106   101.65007623   109.44492584
 H     13  12  10     0.983350632989    99.09581498     3.33484705
 O      9   7   6     1.682356278379   171.61043709   321.17145860
 H     16   9   7     0.972136791249   103.79460456    70.64587838
 H     16   9   7     0.974050112161   105.61118924   321.69395179
 O      6   4   3     1.682356278379   171.61043709   328.33166207
 H     19   6   4     0.972136791249   103.79460456   289.35412162
 H     19   6   4     0.974050112161   105.61118924    38.30604821
 O     18  16   9     1.937600461318   161.54375213    39.05245435
 H     22  18  16     0.961828878803   121.08403650   202.75419110
 H     22  18  16     0.995381322057    95.17003195   315.21089530

---------------------------
INTERNAL COORDINATES (A.U.)
---------------------------
 O      0   0   0     0.000000000000     0.00000000     0.00000000
 H      1   0   0     1.817593168635     0.00000000     0.00000000
 H      1   2   0     1.880998097508   106.21731035     0.00000000
 O      3   1   2     6.577875492484   117.35405144   223.81249033
 H      4   3   1     1.817593168635   134.84484566    98.22461471
 H      4   3   1     1.880998097508    62.29205096    12.66575463
 O      6   4   3    11.217263846671   102.58474291   273.48279218
 H      7   6   4     1.817593168635   146.97742434   224.01286022
 H      7   6   4     1.880998097508    97.62005672    87.72090689
 O      3   1   2     6.329157649425   116.85538783   143.82107740
 H     10   3   1     1.838033029106   154.03893681   304.15813038
 H     10   3   1     1.858263389967    97.20424340    87.67157074
 O     12  10   3     3.373451738406   170.81379649   301.36914736
 H     13  12  10     1.838033029106   101.65007623   109.44492584
 H     13  12  10     1.858263389967    99.09581498     3.33484705
 O      9   7   6     3.179192625819   171.61043709   321.17145860
 H     16   9   7     1.837072300170   103.79460456    70.64587838
 H     16   9   7     1.840687952699   105.61118924   321.69395179
 O      6   4   3     3.179192625819   171.61043709   328.33166207
 H     19   6   4     1.837072300170   103.79460456   289.35412162
 H     19   6   4     1.840687952699   105.61118924    38.30604821
 O     18  16   9     3.661534228851   161.54375213    39.05245435
 H     22  18  16     1.817593168635   121.08403650   202.75419110
 H     22  18  16     1.880998097508    95.17003195   315.21089530

---------------------
BASIS SET INFORMATION
---------------------
There are 2 groups of distinct atoms

 Group   1 Type O   : 11s6p2d1f contracted to 5s3p2d1f pattern {62111/411/11/1}
 Group   2 Type H   : 5s1p contracted to 3s1p pattern {311/1}

Atom   0O    basis set group =>   1
Atom   1H    basis set group =>   2
Atom   2H    basis set group =>   2
Atom   3O    basis set group =>   1
Atom   4H    basis set group =>   2
Atom   5H    basis set group =>   2
Atom   6O    basis set group =>   1
Atom   7H    basis set group =>   2
Atom   8H    basis set group =>   2
Atom   9O    basis set group =>   1
Atom  10H    basis set group =>   2
Atom  11H    basis set group =>   2
Atom  12O    basis set group =>   1
Atom  13H    basis set group =>   2
Atom  14H    basis set group =>   2
Atom  15O    basis set group =>   1
Atom  16H    basis set group =>   2
Atom  17H    basis set group =>   2
Atom  18O    basis set group =>   1
Atom  19H    basis set group =>   2
Atom  20H    basis set group =>   2
Atom  21O    basis set group =>   1
Atom  22H    basis set group =>   2
Atom  23H    basis set group =>   2


           ************************************************************
           *        Program running with 6 parallel MPI-processes     *
           *              working on a common directory               *
           ************************************************************
------------------------------------------------------------------------------
                           ORCA GTO INTEGRAL CALCULATION
------------------------------------------------------------------------------

                         BASIS SET STATISTICS AND STARTUP INFO

 # of primitive gaussian shells          ...  256
 # of primitive gaussian functions       ...  496
 # of contracted shells                  ...  152
 # of contracted basis functions         ...  344
 Highest angular momentum                ...    3
 Maximum contraction depth               ...    6
 Integral package used                   ... LIBINT
 Integral threshhold            Thresh   ...  2.500e-11
 Primitive cut-off              TCut     ...  2.500e-12


------------------------------ INTEGRAL EVALUATION ----------------------------


 * One electron integrals 
 Pre-screening matrix                    ... done
 Shell pair data                         ... done (   0.002 sec)



           ************************************************************
           *        Program running with 6 parallel MPI-processes     *
           *              working on a common directory               *
           ************************************************************
-------------------------------------------------------------------------------
                                 ORCA SCF
-------------------------------------------------------------------------------

------------
SCF SETTINGS
------------
Hamiltonian:
 Ab initio Hamiltonian  Method          .... Hartree-Fock(GTOs)


General Settings:
 Integral files         IntName         .... 12h2o.su.etal.mol0,1,2,4,7,8,9,10-orca.engrad-mp2.def2tzvp.frozencore
 Hartree-Fock type      HFTyp           .... RHF
 Total Charge           Charge          ....    0
 Multiplicity           Mult            ....    1
 Number of Electrons    NEL             ....   80
 Basis Dimension        Dim             ....  344
 Nuclear Repulsion      ENuc            ....    433.0493775942 Eh

Convergence Acceleration:
 DIIS                   CNVDIIS         .... on
   Start iteration      DIISMaxIt       ....    12
   Startup error        DIISStart       ....  0.200000
   # of expansion vecs  DIISMaxEq       ....     5
   Bias factor          DIISBfac        ....   1.050
   Max. coefficient     DIISMaxC        ....  10.000
 Newton-Raphson         CNVNR           .... off
 SOSCF                  CNVSOSCF        .... on
   Start iteration      SOSCFMaxIt      ....   150
   Startup grad/error   SOSCFStart      ....  0.003300
 Level Shifting         CNVShift        .... on
   Level shift para.    LevelShift      ....    0.2500
   Turn off err/grad.   ShiftErr        ....    0.0010
 Zerner damping         CNVZerner       .... off
 Static damping         CNVDamp         .... on
   Fraction old density DampFac         ....    0.7000
   Max. Damping (<1)    DampMax         ....    0.9800
   Min. Damping (>=0)   DampMin         ....    0.0000
   Turn off err/grad.   DampErr         ....    0.1000
 Fernandez-Rico         CNVRico         .... off

SCF Procedure:
 Maximum # iterations   MaxIter         ....   125
 SCF integral mode      SCFMode         .... Direct
   Integral package                     .... LIBINT
 Reset frequency        DirectResetFreq ....    20
 Integral Threshold     Thresh          ....  2.500e-11 Eh
 Primitive CutOff       TCut            ....  2.500e-12 Eh

Convergence Tolerance:
 Convergence Check Mode ConvCheckMode   .... Total+1el-Energy
 Convergence forced     ConvForced      .... 1
 Energy Change          TolE            ....  1.000e-08 Eh
 1-El. energy change                    ....  1.000e-05 Eh
 Orbital Gradient       TolG            ....  1.000e-05
 Orbital Rotation angle TolX            ....  1.000e-05
 DIIS Error             TolErr          ....  5.000e-07


Diagonalization of the overlap matrix:
Smallest eigenvalue                        ... 4.086e-03
Time for diagonalization                   ...    0.015 sec
Threshold for overlap eigenvalues          ... 1.000e-08
Number of eigenvalues below threshold      ... 0
Time for construction of square roots      ...    0.008 sec
Total time needed                          ...    0.024 sec

-------------------
DFT GRID GENERATION
-------------------

General Integration Accuracy     IntAcc      ...  4.340
Radial Grid Type                 RadialGrid  ... Gauss-Chebyshev
Angular Grid (max. acc.)         AngularGrid ... Lebedev-110
Angular grid pruning method      GridPruning ... 3 (G Style)
Weight generation scheme         WeightScheme... Becke
Basis function cutoff            BFCut       ...    1.0000e-11
Integration weight cutoff        WCut        ...    1.0000e-14
Grids for H and He will be reduced by one unit

# of grid points (after initial pruning)     ...  26432 (   0.0 sec)
# of grid points (after weights+screening)   ...  24789 (   0.0 sec)
nearest neighbour list constructed           ...    0.0 sec
Grid point re-assignment to atoms done       ...    0.0 sec
Grid point division into batches done        ...    0.0 sec
Reduced shell lists constructed in    0.1 sec

Total number of grid points                  ...    24789
Total number of batches                      ...      400
Average number of points per batch           ...       61
Average number of grid points per atom       ...     1033
Average number of shells per batch           ...    64.74 (42.59%)
Average number of basis functions per batch  ...   127.06 (36.94%)
Average number of large shells per batch     ...    40.99 (63.31%)
Average number of large basis fcns per batch ...    79.28 (62.40%)
Maximum spatial batch extension              ...  14.53, 15.58, 16.21 au
Average spatial batch extension              ...   0.54,  0.59,  0.54 au

Time for grid setup =    0.090 sec

------------------------------
INITIAL GUESS: MODEL POTENTIAL
------------------------------
Loading Hartree-Fock densities                     ... done
Calculating cut-offs                               ... done
Setting up the integral package                    ... done
Initializing the effective Hamiltonian             ... done
Starting the Coulomb interaction                   ... done (   0.0 sec)
Reading the grid                                   ... done
Mapping shells                                     ... done
Starting the XC term evaluation                    ... done (   0.0 sec)
Transforming the Hamiltonian                       ... done (   0.0 sec)
Diagonalizing the Hamiltonian                      ... done (   0.0 sec)
Back transforming the eigenvectors                 ... done (   0.0 sec)
Now organizing SCF variables                       ... done
                      ------------------
                      INITIAL GUESS DONE (   0.3 sec)
                      ------------------
--------------
SCF ITERATIONS
--------------
ITER       Energy         Delta-E        Max-DP      RMS-DP      [F,P]     Damp
               ***  Starting incremental Fock matrix formation  ***
  0   -607.7974130840   0.000000000000 0.04446995  0.00083709  0.3500620 0.7000
  1   -608.0739158193  -0.276502735252 0.02940948  0.00057948  0.2167423 0.7000
                               ***Turning on DIIS***
  2   -608.2204513652  -0.146535545965 0.01644717  0.00032348  0.1634575 0.7000
  3   -609.5694311435  -1.348979778283 0.00766230  0.00014766  0.1218245 0.7000
  4   -609.2976148284   0.271816315084 0.01706251  0.00034174  0.0861881 0.0000
  5   -608.5569973509   0.740617477534 0.00214614  0.00005519  0.0054569 0.0000
                      *** Initiating the SOSCF procedure ***
                           *** Shutting down DIIS ***
                      *** Re-Reading the Fockian *** 
                      *** Removing any level shift *** 
ITER      Energy       Delta-E        Grad      Rot      Max-DP    RMS-DP
  6   -608.51659085   0.0404065040  0.000720  0.000720  0.001408  0.000034
               *** Restarting incremental Fock matrix formation ***
  7   -608.50341137   0.0131794795  0.000262  0.000357  0.000667  0.000015
  8   -608.50342329  -0.0000119263  0.000116  0.000290  0.000515  0.000012
  9   -608.50342618  -0.0000028895  0.000069  0.000040  0.000092  0.000002
 10   -608.50342641  -0.0000002318  0.000014  0.000008  0.000021  0.000000
                  ***Gradient check signals convergence***
              ***Rediagonalizing the Fockian in SOSCF/NRSCF***

               *****************************************************
               *                     SUCCESS                       *
               *           SCF CONVERGED AFTER  11 CYCLES          *
               *****************************************************


----------------
TOTAL SCF ENERGY
----------------

Total Energy       :         -608.50342642 Eh          -16558.22004 eV

Components:
Nuclear Repulsion  :          433.04937759 Eh           11783.87264 eV
Electronic Energy  :        -1041.55280402 Eh          -28342.09268 eV
One Electron Energy:        -1704.15194554 Eh          -46372.33196 eV
Two Electron Energy:          662.59914153 Eh           18030.23928 eV

Virial components:
Potential Energy   :        -1216.17802350 Eh          -33093.88648 eV
Kinetic Energy     :          607.67459707 Eh           16535.66644 eV
Virial Ratio       :            2.00136394


---------------
SCF CONVERGENCE
---------------

  Last Energy change         ...   -6.8012e-09  Tolerance :   1.0000e-08
  Last MAX-Density change    ...    4.5383e-06  Tolerance :   1.0000e-07
  Last RMS-Density change    ...    1.1176e-07  Tolerance :   5.0000e-09
  Last Orbital Gradient      ...    2.2274e-06  Tolerance :   1.0000e-05
  Last Orbital Rotation      ...    2.2991e-06  Tolerance :   1.0000e-05

             **** THE GBW FILE WAS UPDATED (12h2o.su.etal.mol0,1,2,4,7,8,9,10-orca.engrad-mp2.def2tzvp.frozencore.gbw) ****
             **** DENSITY FILE WAS UPDATED (12h2o.su.etal.mol0,1,2,4,7,8,9,10-orca.engrad-mp2.def2tzvp.frozencore.scfp) ****
             **** ENERGY FILE WAS UPDATED (12h2o.su.etal.mol0,1,2,4,7,8,9,10-orca.engrad-mp2.def2tzvp.frozencore.en.tmp) ****
             **** THE GBW FILE WAS UPDATED (12h2o.su.etal.mol0,1,2,4,7,8,9,10-orca.engrad-mp2.def2tzvp.frozencore.gbw) ****
             **** DENSITY FILE WAS UPDATED (12h2o.su.etal.mol0,1,2,4,7,8,9,10-orca.engrad-mp2.def2tzvp.frozencore.scfp) ****
----------------
ORBITAL ENERGIES
----------------

  NO   OCC          E(Eh)            E(eV) 
   0   2.0000     -20.602760      -560.6296 
   1   2.0000     -20.586904      -560.1981 
   2   2.0000     -20.577287      -559.9364 
   3   2.0000     -20.565696      -559.6210 
   4   2.0000     -20.549395      -559.1775 
   5   2.0000     -20.543361      -559.0133 
   6   2.0000     -20.518825      -558.3456 
   7   2.0000     -20.497934      -557.7771 
   8   2.0000      -1.383469       -37.6461 
   9   2.0000      -1.371209       -37.3125 
  10   2.0000      -1.360098       -37.0101 
  11   2.0000      -1.354186       -36.8493 
  12   2.0000      -1.336750       -36.3748 
  13   2.0000      -1.323220       -36.0066 
  14   2.0000      -1.300501       -35.3884 
  15   2.0000      -1.281927       -34.8830 
  16   2.0000      -0.749019       -20.3818 
  17   2.0000      -0.736134       -20.0312 
  18   2.0000      -0.722072       -19.6486 
  19   2.0000      -0.716254       -19.4903 
  20   2.0000      -0.710977       -19.3467 
  21   2.0000      -0.695622       -18.9288 
  22   2.0000      -0.687549       -18.7092 
  23   2.0000      -0.666941       -18.1484 
  24   2.0000      -0.622997       -16.9526 
  25   2.0000      -0.621641       -16.9157 
  26   2.0000      -0.598213       -16.2782 
  27   2.0000      -0.594852       -16.1868 
  28   2.0000      -0.581469       -15.8226 
  29   2.0000      -0.564466       -15.3599 
  30   2.0000      -0.554431       -15.0868 
  31   2.0000      -0.543730       -14.7956 
  32   2.0000      -0.528985       -14.3944 
  33   2.0000      -0.520683       -14.1685 
  34   2.0000      -0.513907       -13.9841 
  35   2.0000      -0.499375       -13.5887 
  36   2.0000      -0.492455       -13.4004 
  37   2.0000      -0.483205       -13.1487 
  38   2.0000      -0.469647       -12.7797 
  39   2.0000      -0.448844       -12.2137 
  40   0.0000       0.098565         2.6821 
  41   0.0000       0.114725         3.1218 
  42   0.0000       0.135762         3.6943 
  43   0.0000       0.154244         4.1972 
  44   0.0000       0.166708         4.5363 
  45   0.0000       0.179804         4.8927 
  46   0.0000       0.196080         5.3356 
  47   0.0000       0.205851         5.6015 
  48   0.0000       0.228459         6.2167 
  49   0.0000       0.261544         7.1170 
  50   0.0000       0.276993         7.5374 
  51   0.0000       0.280886         7.6433 
  52   0.0000       0.298397         8.1198 
  53   0.0000       0.334636         9.1059 
  54   0.0000       0.348290         9.4774 
  55   0.0000       0.352248         9.5852 
  56   0.0000       0.438704        11.9377 
  57   0.0000       0.468034        12.7359 
  58   0.0000       0.488859        13.3025 
  59   0.0000       0.495065        13.4714 
  60   0.0000       0.509647        13.8682 
  61   0.0000       0.511713        13.9244 
  62   0.0000       0.527429        14.3521 
  63   0.0000       0.546143        14.8613 
  64   0.0000       0.553649        15.0656 
  65   0.0000       0.556026        15.1302 
  66   0.0000       0.560976        15.2649 
  67   0.0000       0.564218        15.3532 
  68   0.0000       0.575451        15.6588 
  69   0.0000       0.597815        16.2674 
  70   0.0000       0.601136        16.3577 
  71   0.0000       0.607386        16.5278 
  72   0.0000       0.621772        16.9193 
  73   0.0000       0.628162        17.0932 
  74   0.0000       0.639484        17.4013 
  75   0.0000       0.643263        17.5041 
  76   0.0000       0.654020        17.7968 
  77   0.0000       0.663208        18.0468 
  78   0.0000       0.685830        18.6624 
  79   0.0000       0.697334        18.9754 
  80   0.0000       0.716315        19.4919 
  81   0.0000       0.733098        19.9486 
  82   0.0000       0.733757        19.9665 
  83   0.0000       0.747143        20.3308 
  84   0.0000       0.752941        20.4886 
  85   0.0000       0.757256        20.6060 
  86   0.0000       0.773103        21.0372 
  87   0.0000       0.785514        21.3749 
  88   0.0000       0.793688        21.5973 
  89   0.0000       0.800419        21.7805 
  90   0.0000       0.814014        22.1505 
  91   0.0000       0.838696        22.8221 
  92   0.0000       0.856654        23.3107 
  93   0.0000       0.865711        23.5572 
  94   0.0000       0.873521        23.7697 
  95   0.0000       0.901881        24.5414 
  96   0.0000       0.933319        25.3969 
  97   0.0000       0.974128        26.5074 
  98   0.0000       0.984919        26.8010 
  99   0.0000       1.006026        27.3754 
 100   0.0000       1.041092        28.3296 
 101   0.0000       1.045437        28.4478 
 102   0.0000       1.071060        29.1450 
 103   0.0000       1.088523        29.6202 
 104   0.0000       1.355767        36.8923 
 105   0.0000       1.362947        37.0877 
 106   0.0000       1.391949        37.8768 
 107   0.0000       1.401786        38.1445 
 108   0.0000       1.406480        38.2723 
 109   0.0000       1.412270        38.4298 
 110   0.0000       1.416425        38.5429 
 111   0.0000       1.424945        38.7747 
 112   0.0000       1.430052        38.9137 
 113   0.0000       1.447671        39.3931 
 114   0.0000       1.466545        39.9067 
 115   0.0000       1.482985        40.3541 
 116   0.0000       1.496263        40.7154 
 117   0.0000       1.504981        40.9526 
 118   0.0000       1.518540        41.3216 
 119   0.0000       1.531716        41.6801 
 120   0.0000       1.551142        42.2087 
 121   0.0000       1.578749        42.9600 
 122   0.0000       1.583210        43.0813 
 123   0.0000       1.601127        43.5689 
 124   0.0000       1.619224        44.0613 
 125   0.0000       1.630381        44.3649 
 126   0.0000       1.640521        44.6408 
 127   0.0000       1.679810        45.7100 
 128   0.0000       1.805757        49.1372 
 129   0.0000       1.818291        49.4782 
 130   0.0000       1.823773        49.6274 
 131   0.0000       1.831783        49.8453 
 132   0.0000       1.855750        50.4975 
 133   0.0000       1.864677        50.7404 
 134   0.0000       1.876281        51.0562 
 135   0.0000       1.885021        51.2940 
 136   0.0000       1.890805        51.4514 
 137   0.0000       1.941523        52.8315 
 138   0.0000       1.970344        53.6158 
 139   0.0000       1.978334        53.8332 
 140   0.0000       1.981940        53.9313 
 141   0.0000       1.989163        54.1279 
 142   0.0000       2.016275        54.8656 
 143   0.0000       2.031129        55.2698 
 144   0.0000       2.054700        55.9112 
 145   0.0000       2.059438        56.0401 
 146   0.0000       2.075067        56.4654 
 147   0.0000       2.121066        57.7171 
 148   0.0000       2.138777        58.1991 
 149   0.0000       2.155691        58.6593 
 150   0.0000       2.176144        59.2159 
 151   0.0000       2.185613        59.4736 
 152   0.0000       2.238568        60.9145 
 153   0.0000       2.251506        61.2666 
 154   0.0000       2.287220        62.2384 
 155   0.0000       2.295369        62.4602 
 156   0.0000       2.306579        62.7652 
 157   0.0000       2.312377        62.9230 
 158   0.0000       2.313378        62.9502 
 159   0.0000       2.343567        63.7717 
 160   0.0000       2.351067        63.9758 
 161   0.0000       2.362545        64.2881 
 162   0.0000       2.378852        64.7319 
 163   0.0000       2.380455        64.7755 
 164   0.0000       2.391698        65.0814 
 165   0.0000       2.404735        65.4362 
 166   0.0000       2.406943        65.4963 
 167   0.0000       2.420009        65.8518 
 168   0.0000       2.427474        66.0549 
 169   0.0000       2.471400        67.2502 
 170   0.0000       2.512213        68.3608 
 171   0.0000       2.527690        68.7819 
 172   0.0000       2.542302        69.1796 
 173   0.0000       2.561204        69.6939 
 174   0.0000       2.577479        70.1368 
 175   0.0000       2.582466        70.2725 
 176   0.0000       2.593282        70.5668 
 177   0.0000       2.598235        70.7016 
 178   0.0000       2.609573        71.0101 
 179   0.0000       2.615529        71.1722 
 180   0.0000       2.638752        71.8041 
 181   0.0000       2.644989        71.9738 
 182   0.0000       2.663034        72.4648 
 183   0.0000       2.670298        72.6625 
 184   0.0000       2.679581        72.9151 
 185   0.0000       2.698287        73.4241 
 186   0.0000       2.704120        73.5828 
 187   0.0000       2.722380        74.0797 
 188   0.0000       2.749935        74.8295 
 189   0.0000       2.772091        75.4324 
 190   0.0000       2.798693        76.1563 
 191   0.0000       2.806311        76.3636 
 192   0.0000       2.880902        78.3933 
 193   0.0000       2.892383        78.7058 
 194   0.0000       2.929126        79.7056 
 195   0.0000       2.932686        79.8024 
 196   0.0000       2.949434        80.2582 
 197   0.0000       2.958025        80.4920 
 198   0.0000       2.969800        80.8124 
 199   0.0000       2.977040        81.0094 
 200   0.0000       2.988751        81.3281 
 201   0.0000       3.003709        81.7351 
 202   0.0000       3.019058        82.1527 
 203   0.0000       3.024848        82.3103 
 204   0.0000       3.037267        82.6482 
 205   0.0000       3.046403        82.8968 
 206   0.0000       3.074081        83.6500 
 207   0.0000       3.083984        83.9195 
 208   0.0000       3.103592        84.4530 
 209   0.0000       3.112585        84.6977 
 210   0.0000       3.129551        85.1594 
 211   0.0000       3.173601        86.3581 
 212   0.0000       3.188743        86.7701 
 213   0.0000       3.236498        88.0696 
 214   0.0000       3.238485        88.1237 
 215   0.0000       3.271788        89.0299 
 216   0.0000       3.284389        89.3728 
 217   0.0000       3.292083        89.5821 
 218   0.0000       3.308185        90.0203 
 219   0.0000       3.332912        90.6932 
 220   0.0000       3.341892        90.9375 
 221   0.0000       3.471767        94.4716 
 222   0.0000       3.519364        95.7668 
 223   0.0000       3.530346        96.0656 
 224   0.0000       3.976071       108.1944 
 225   0.0000       3.985502       108.4510 
 226   0.0000       4.034727       109.7905 
 227   0.0000       4.044199       110.0483 
 228   0.0000       4.090402       111.3055 
 229   0.0000       4.117188       112.0344 
 230   0.0000       4.122780       112.1866 
 231   0.0000       4.156458       113.1030 
 232   0.0000       4.279905       116.4621 
 233   0.0000       4.288008       116.6826 
 234   0.0000       4.309857       117.2772 
 235   0.0000       4.317146       117.4755 
 236   0.0000       4.329604       117.8145 
 237   0.0000       4.385244       119.3286 
 238   0.0000       4.401943       119.7830 
 239   0.0000       4.408378       119.9581 
 240   0.0000       5.511643       149.9794 
 241   0.0000       5.524194       150.3210 
 242   0.0000       5.526855       150.3934 
 243   0.0000       5.538587       150.7126 
 244   0.0000       5.553594       151.1210 
 245   0.0000       5.565163       151.4358 
 246   0.0000       5.586416       152.0141 
 247   0.0000       5.603968       152.4917 
 248   0.0000       5.606514       152.5610 
 249   0.0000       5.620580       152.9438 
 250   0.0000       5.649465       153.7298 
 251   0.0000       5.674093       154.3999 
 252   0.0000       5.675383       154.4350 
 253   0.0000       5.689335       154.8147 
 254   0.0000       5.691152       154.8641 
 255   0.0000       5.713591       155.4747 
 256   0.0000       5.775217       157.1516 
 257   0.0000       5.790356       157.5636 
 258   0.0000       5.808372       158.0539 
 259   0.0000       5.811577       158.1411 
 260   0.0000       5.816265       158.2686 
 261   0.0000       5.828034       158.5889 
 262   0.0000       5.828476       158.6009 
 263   0.0000       5.838801       158.8819 
 264   0.0000       5.844716       159.0428 
 265   0.0000       5.851077       159.2159 
 266   0.0000       5.869395       159.7144 
 267   0.0000       5.872240       159.7918 
 268   0.0000       5.877645       159.9389 
 269   0.0000       5.880919       160.0279 
 270   0.0000       5.883629       160.1017 
 271   0.0000       5.886254       160.1731 
 272   0.0000       5.889229       160.2541 
 273   0.0000       5.896433       160.4501 
 274   0.0000       5.896610       160.4549 
 275   0.0000       5.911408       160.8576 
 276   0.0000       5.927114       161.2850 
 277   0.0000       5.944917       161.7694 
 278   0.0000       5.958692       162.1443 
 279   0.0000       5.968235       162.4039 
 280   0.0000       6.392957       173.9612 
 281   0.0000       6.408329       174.3795 
 282   0.0000       6.469214       176.0363 
 283   0.0000       6.478976       176.3019 
 284   0.0000       6.481277       176.3645 
 285   0.0000       6.486816       176.5152 
 286   0.0000       6.508763       177.1124 
 287   0.0000       6.530071       177.6923 
 288   0.0000       6.662416       181.2936 
 289   0.0000       6.672644       181.5719 
 290   0.0000       6.689350       182.0265 
 291   0.0000       6.702751       182.3911 
 292   0.0000       6.728134       183.0818 
 293   0.0000       6.746523       183.5822 
 294   0.0000       6.762724       184.0231 
 295   0.0000       6.780950       184.5190 
 296   0.0000       6.838640       186.0888 
 297   0.0000       6.839177       186.1035 
 298   0.0000       6.850640       186.4154 
 299   0.0000       6.856764       186.5820 
 300   0.0000       6.868780       186.9090 
 301   0.0000       6.876330       187.1145 
 302   0.0000       6.888903       187.4566 
 303   0.0000       6.890362       187.4963 
 304   0.0000       6.900173       187.7633 
 305   0.0000       6.910337       188.0398 
 306   0.0000       6.912507       188.0989 
 307   0.0000       6.923529       188.3988 
 308   0.0000       6.925245       188.4455 
 309   0.0000       6.935404       188.7219 
 310   0.0000       6.948855       189.0880 
 311   0.0000       6.960585       189.4071 
 312   0.0000       6.966499       189.5681 
 313   0.0000       6.978642       189.8985 
 314   0.0000       6.991833       190.2574 
 315   0.0000       6.996947       190.3966 
 316   0.0000       7.031960       191.3494 
 317   0.0000       7.052780       191.9159 
 318   0.0000       7.087180       192.8520 
 319   0.0000       7.103163       193.2869 
 320   0.0000       7.352712       200.0775 
 321   0.0000       7.357779       200.2154 
 322   0.0000       7.394117       201.2042 
 323   0.0000       7.435985       202.3434 
 324   0.0000       7.440856       202.4760 
 325   0.0000       7.476448       203.4445 
 326   0.0000       7.478248       203.4935 
 327   0.0000       7.491511       203.8544 
 328   0.0000       7.503552       204.1820 
 329   0.0000       7.516117       204.5239 
 330   0.0000       7.531700       204.9480 
 331   0.0000       7.542585       205.2442 
 332   0.0000       7.568261       205.9429 
 333   0.0000       7.579546       206.2499 
 334   0.0000       7.585581       206.4141 
 335   0.0000       7.646220       208.0642 
 336   0.0000      44.867565      1220.9085 
 337   0.0000      44.904273      1221.9074 
 338   0.0000      44.964238      1223.5391 
 339   0.0000      44.978061      1223.9153 
 340   0.0000      44.984097      1224.0795 
 341   0.0000      44.991685      1224.2860 
 342   0.0000      45.018400      1225.0129 
 343   0.0000      45.085473      1226.8381 

                    ********************************
                    * MULLIKEN POPULATION ANALYSIS *
                    ********************************

-----------------------
MULLIKEN ATOMIC CHARGES
-----------------------
   0 O :   -0.732549
   1 H :    0.360000
   2 H :    0.391103
   3 O :   -0.769644
   4 H :    0.345916
   5 H :    0.396877
   6 O :   -0.764359
   7 H :    0.333798
   8 H :    0.392700
   9 O :   -0.772030
  10 H :    0.365617
  11 H :    0.376981
  12 O :   -0.737533
  13 H :    0.400189
  14 H :    0.348403
  15 O :   -0.737442
  16 H :    0.367799
  17 H :    0.394053
  18 O :   -0.734867
  19 H :    0.358866
  20 H :    0.400315
  21 O :   -0.748922
  22 H :    0.369447
  23 H :    0.395281
Sum of atomic charges:   -0.0000000

--------------------------------
MULLIKEN REDUCED ORBITAL CHARGES
--------------------------------
  0 O s       :     3.809569  s :     3.809569
      pz      :     1.734620  p :     4.897059
      px      :     1.383944
      py      :     1.778495
      dz2     :     0.004450  d :     0.024423
      dxz     :     0.005088
      dyz     :     0.005496
      dx2y2   :     0.002559
      dxy     :     0.006830
      f0      :     0.000093  f :     0.001498
      f+1     :     0.000351
      f-1     :     0.000184
      f+2     :     0.000060
      f-2     :     0.000355
      f+3     :     0.000091
      f-3     :     0.000364
  1 H s       :     0.594594  s :     0.594594
      pz      :     0.017326  p :     0.045406
      px      :     0.013287
      py      :     0.014793
  2 H s       :     0.567907  s :     0.567907
      pz      :     0.010803  p :     0.040989
      px      :     0.018190
      py      :     0.011996
  3 O s       :     3.809093  s :     3.809093
      pz      :     1.708990  p :     4.936218
      px      :     1.417880
      py      :     1.809348
      dz2     :     0.003570  d :     0.022908
      dxz     :     0.004188
      dyz     :     0.005445
      dx2y2   :     0.002250
      dxy     :     0.007455
      f0      :     0.000078  f :     0.001425
      f+1     :     0.000310
      f-1     :     0.000176
      f+2     :     0.000070
      f-2     :     0.000348
      f+3     :     0.000089
      f-3     :     0.000355
  4 H s       :     0.608305  s :     0.608305
      pz      :     0.016871  p :     0.045779
      px      :     0.013934
      py      :     0.014974
  5 H s       :     0.546446  s :     0.546446
      pz      :     0.010247  p :     0.056677
      px      :     0.032328
      py      :     0.014103
  6 O s       :     3.808935  s :     3.808935
      pz      :     1.718429  p :     4.930327
      px      :     1.800516
      py      :     1.411382
      dz2     :     0.003988  d :     0.023636
      dxz     :     0.005533
      dyz     :     0.004654
      dx2y2   :     0.002304
      dxy     :     0.007157
      f0      :     0.000087  f :     0.001461
      f+1     :     0.000183
      f-1     :     0.000326
      f+2     :     0.000069
      f-2     :     0.000358
      f+3     :     0.000349
      f-3     :     0.000088
  7 H s       :     0.620150  s :     0.620150
      pz      :     0.017065  p :     0.046052
      px      :     0.015075
      py      :     0.013912
  8 H s       :     0.550211  s :     0.550211
      pz      :     0.010717  p :     0.057090
      px      :     0.014052
      py      :     0.032320
  9 O s       :     3.805866  s :     3.805866
      pz      :     1.567807  p :     4.940828
      px      :     1.876060
      py      :     1.496961
      dz2     :     0.010854  d :     0.023934
      dxz     :     0.002460
      dyz     :     0.002860
      dx2y2   :     0.002887
      dxy     :     0.004874
      f0      :     0.000170  f :     0.001402
      f+1     :     0.000120
      f-1     :     0.000438
      f+2     :     0.000076
      f-2     :     0.000040
      f+3     :     0.000442
      f-3     :     0.000115
 10 H s       :     0.585252  s :     0.585252
      pz      :     0.023597  p :     0.049131
      px      :     0.013847
      py      :     0.011688
 11 H s       :     0.568851  s :     0.568851
      pz      :     0.009757  p :     0.054169
      px      :     0.015683
      py      :     0.028729
 12 O s       :     3.802299  s :     3.802299
      pz      :     1.607427  p :     4.909065
      px      :     1.457134
      py      :     1.844504
      dz2     :     0.011253  d :     0.024784
      dxz     :     0.002803
      dyz     :     0.002191
      dx2y2   :     0.003552
      dxy     :     0.004985
      f0      :     0.000147  f :     0.001385
      f+1     :     0.000454
      f-1     :     0.000114
      f+2     :     0.000069
      f-2     :     0.000040
      f+3     :     0.000109
      f-3     :     0.000452
 13 H s       :     0.551314  s :     0.551314
      pz      :     0.025408  p :     0.048497
      px      :     0.010722
      py      :     0.012367
 14 H s       :     0.608809  s :     0.608809
      pz      :     0.010119  p :     0.042787
      px      :     0.018326
      py      :     0.014343
 15 O s       :     3.795106  s :     3.795106
      pz      :     1.528097  p :     4.916117
      px      :     1.595263
      py      :     1.792757
      dz2     :     0.012224  d :     0.024816
      dxz     :     0.001227
      dyz     :     0.002358
      dx2y2   :     0.002328
      dxy     :     0.006678
      f0      :     0.000251  f :     0.001402
      f+1     :     0.000389
      f-1     :     0.000158
      f+2     :     0.000052
      f-2     :     0.000056
      f+3     :     0.000049
      f-3     :     0.000447
 16 H s       :     0.588673  s :     0.588673
      pz      :     0.019355  p :     0.043528
      px      :     0.011570
      py      :     0.012602
 17 H s       :     0.556766  s :     0.556766
      pz      :     0.009588  p :     0.049181
      px      :     0.024018
      py      :     0.015575
 18 O s       :     3.794868  s :     3.794868
      pz      :     1.519509  p :     4.913825
      px      :     1.792924
      py      :     1.601392
      dz2     :     0.012272  d :     0.024780
      dxz     :     0.002347
      dyz     :     0.001258
      dx2y2   :     0.002306
      dxy     :     0.006596
      f0      :     0.000252  f :     0.001394
      f+1     :     0.000156
      f-1     :     0.000388
      f+2     :     0.000051
      f-2     :     0.000056
      f+3     :     0.000444
      f-3     :     0.000047
 19 H s       :     0.597230  s :     0.597230
      pz      :     0.019163  p :     0.043904
      px      :     0.012869
      py      :     0.011872
 20 H s       :     0.550532  s :     0.550532
      pz      :     0.009389  p :     0.049153
      px      :     0.015360
      py      :     0.024404
 21 O s       :     3.808642  s :     3.808642
      pz      :     1.733604  p :     4.914815
      px      :     1.790223
      py      :     1.390988
      dz2     :     0.004174  d :     0.023996
      dxz     :     0.005424
      dyz     :     0.004677
      dx2y2   :     0.002510
      dxy     :     0.007210
      f0      :     0.000086  f :     0.001468
      f+1     :     0.000179
      f-1     :     0.000336
      f+2     :     0.000061
      f-2     :     0.000347
      f+3     :     0.000368
      f-3     :     0.000092
 22 H s       :     0.585560  s :     0.585560
      pz      :     0.017109  p :     0.044994
      px      :     0.014623
      py      :     0.013262
 23 H s       :     0.564337  s :     0.564337
      pz      :     0.010275  p :     0.040382
      px      :     0.011926
      py      :     0.018181


                     *******************************
                     * LOEWDIN POPULATION ANALYSIS *
                     *******************************

----------------------
LOEWDIN ATOMIC CHARGES
----------------------
   0 O :   -0.318234
   1 H :    0.162907
   2 H :    0.196459
   3 O :   -0.347015
   4 H :    0.153217
   5 H :    0.152817
   6 O :   -0.377114
   7 H :    0.148199
   8 H :    0.151087
   9 O :   -0.377154
  10 H :    0.144739
  11 H :    0.146986
  12 O :   -0.312194
  13 H :    0.160155
  14 H :    0.168748
  15 O :   -0.293338
  16 H :    0.173383
  17 H :    0.159979
  18 O :   -0.290724
  19 H :    0.168441
  20 H :    0.162998
  21 O :   -0.297930
  22 H :    0.165676
  23 H :    0.197911

-------------------------------
LOEWDIN REDUCED ORBITAL CHARGES
-------------------------------
  0 O s       :     3.466810  s :     3.466810
      pz      :     1.710812  p :     4.818109
      px      :     1.366258
      py      :     1.741039
      dz2     :     0.004977  d :     0.031262
      dxz     :     0.007287
      dyz     :     0.005486
      dx2y2   :     0.004227
      dxy     :     0.009285
      f0      :     0.000079  f :     0.002053
      f+1     :     0.000451
      f-1     :     0.000271
      f+2     :     0.000033
      f-2     :     0.000616
      f+3     :     0.000089
      f-3     :     0.000514
  1 H s       :     0.673682  s :     0.673682
      pz      :     0.066429  p :     0.163411
      px      :     0.044450
      py      :     0.052532
  2 H s       :     0.654519  s :     0.654519
      pz      :     0.033013  p :     0.149022
      px      :     0.072772
      py      :     0.043237
  3 O s       :     3.461130  s :     3.461130
      pz      :     1.676359  p :     4.854621
      px      :     1.396888
      py      :     1.781374
      dz2     :     0.004564  d :     0.029284
      dxz     :     0.006748
      dyz     :     0.005662
      dx2y2   :     0.003226
      dxy     :     0.009083
      f0      :     0.000082  f :     0.001981
      f+1     :     0.000426
      f-1     :     0.000261
      f+2     :     0.000034
      f-2     :     0.000616
      f+3     :     0.000084
      f-3     :     0.000477
  4 H s       :     0.681963  s :     0.681963
      pz      :     0.065718  p :     0.164819
      px      :     0.045793
      py      :     0.053308
  5 H s       :     0.650609  s :     0.650609
      pz      :     0.033395  p :     0.196574
      px      :     0.115391
      py      :     0.047789
  6 O s       :     3.467650  s :     3.467650
      pz      :     1.705413  p :     4.877962
      px      :     1.779055
      py      :     1.393494
      dz2     :     0.004235  d :     0.029497
      dxz     :     0.005786
      dyz     :     0.007143
      dx2y2   :     0.003318
      dxy     :     0.009014
      f0      :     0.000072  f :     0.002005
      f+1     :     0.000265
      f-1     :     0.000439
      f+2     :     0.000034
      f-2     :     0.000632
      f+3     :     0.000478
      f-3     :     0.000084
  7 H s       :     0.687465  s :     0.687465
      pz      :     0.065488  p :     0.164335
      px      :     0.053243
      py      :     0.045604
  8 H s       :     0.653510  s :     0.653510
      pz      :     0.033496  p :     0.195403
      px      :     0.047750
      py      :     0.114157
  9 O s       :     3.464501  s :     3.464501
      pz      :     1.561078  p :     4.881555
      px      :     1.837963
      py      :     1.482514
      dz2     :     0.013764  d :     0.029134
      dxz     :     0.001579
      dyz     :     0.004110
      dx2y2   :     0.003779
      dxy     :     0.005902
      f0      :     0.000363  f :     0.001963
      f+1     :     0.000189
      f-1     :     0.000710
      f+2     :     0.000044
      f-2     :     0.000043
      f+3     :     0.000549
      f-3     :     0.000065
 10 H s       :     0.683781  s :     0.683781
      pz      :     0.090206  p :     0.171479
      px      :     0.043766
      py      :     0.037507
 11 H s       :     0.667428  s :     0.667428
      pz      :     0.030220  p :     0.185586
      px      :     0.052554
      py      :     0.102812
 12 O s       :     3.462502  s :     3.462502
      pz      :     1.581208  p :     4.816513
      px      :     1.450982
      py      :     1.784323
      dz2     :     0.014041  d :     0.031153
      dxz     :     0.003660
      dyz     :     0.001287
      dx2y2   :     0.005494
      dxy     :     0.006671
      f0      :     0.000316  f :     0.002026
      f+1     :     0.000711
      f-1     :     0.000207
      f+2     :     0.000038
      f-2     :     0.000042
      f+3     :     0.000076
      f-3     :     0.000635
 13 H s       :     0.665711  s :     0.665711
      pz      :     0.095962  p :     0.174135
      px      :     0.035776
      py      :     0.042396
 14 H s       :     0.677245  s :     0.677245
      pz      :     0.030704  p :     0.154007
      px      :     0.073926
      py      :     0.049377
 15 O s       :     3.452550  s :     3.452550
      pz      :     1.519402  p :     4.807261
      px      :     1.554533
      py      :     1.733326
      dz2     :     0.015990  d :     0.031421
      dxz     :     0.002023
      dyz     :     0.001884
      dx2y2   :     0.003374
      dxy     :     0.008150
      f0      :     0.000460  f :     0.002106
      f+1     :     0.000575
      f-1     :     0.000333
      f+2     :     0.000022
      f-2     :     0.000051
      f+3     :     0.000026
      f-3     :     0.000640
 16 H s       :     0.667281  s :     0.667281
      pz      :     0.081078  p :     0.159336
      px      :     0.036455
      py      :     0.041802
 17 H s       :     0.665889  s :     0.665889
      pz      :     0.029622  p :     0.174132
      px      :     0.086517
      py      :     0.057994
 18 O s       :     3.452333  s :     3.452333
      pz      :     1.514191  p :     4.804829
      px      :     1.732729
      py      :     1.557910
      dz2     :     0.016259  d :     0.031464
      dxz     :     0.001887
      dyz     :     0.002087
      dx2y2   :     0.003316
      dxy     :     0.007915
      f0      :     0.000472  f :     0.002099
      f+1     :     0.000331
      f-1     :     0.000573
      f+2     :     0.000021
      f-2     :     0.000051
      f+3     :     0.000625
      f-3     :     0.000025
 19 H s       :     0.672232  s :     0.672232
      pz      :     0.080425  p :     0.159327
      px      :     0.042129
      py      :     0.036772
 20 H s       :     0.661804  s :     0.661804
      pz      :     0.029316  p :     0.175198
      px      :     0.057986
      py      :     0.087896
 21 O s       :     3.461977  s :     3.461977
      pz      :     1.688359  p :     4.802557
      px      :     1.745727
      py      :     1.368471
      dz2     :     0.005505  d :     0.031345
      dxz     :     0.005369
      dyz     :     0.006908
      dx2y2   :     0.004115
      dxy     :     0.009447
      f0      :     0.000094  f :     0.002052
      f+1     :     0.000269
      f-1     :     0.000445
      f+2     :     0.000033
      f-2     :     0.000603
      f+3     :     0.000519
      f-3     :     0.000089
 22 H s       :     0.670156  s :     0.670156
      pz      :     0.066860  p :     0.164168
      px      :     0.052682
      py      :     0.044626
 23 H s       :     0.652470  s :     0.652470
      pz      :     0.033159  p :     0.149620
      px      :     0.043303
      py      :     0.073157


                      *****************************
                      * MAYER POPULATION ANALYSIS *
                      *****************************

  NA   - Mulliken gross atomic population
  ZA   - Total nuclear charge
  QA   - Mulliken gross atomic charge
  VA   - Mayer's total valence
  BVA  - Mayer's bonded valence
  FA   - Mayer's free valence

  ATOM       NA         ZA         QA         VA         BVA        FA
  0 O      8.7325     8.0000    -0.7325     1.7626     1.7626     0.0000
  1 H      0.6400     1.0000     0.3600     0.8852     0.8852     0.0000
  2 H      0.6089     1.0000     0.3911     0.8624     0.8624    -0.0000
  3 O      8.7696     8.0000    -0.7696     1.6908     1.6908    -0.0000
  4 H      0.6541     1.0000     0.3459     0.8967     0.8967     0.0000
  5 H      0.6031     1.0000     0.3969     0.8808     0.8808    -0.0000
  6 O      8.7644     8.0000    -0.7644     1.6895     1.6895    -0.0000
  7 H      0.6662     1.0000     0.3338     0.9043     0.9043    -0.0000
  8 H      0.6073     1.0000     0.3927     0.8837     0.8837     0.0000
  9 O      8.7720     8.0000    -0.7720     1.6954     1.6954     0.0000
 10 H      0.6344     1.0000     0.3656     0.8906     0.8906     0.0000
 11 H      0.6230     1.0000     0.3770     0.8962     0.8962     0.0000
 12 O      8.7375     8.0000    -0.7375     1.7468     1.7468    -0.0000
 13 H      0.5998     1.0000     0.4002     0.8733     0.8733     0.0000
 14 H      0.6516     1.0000     0.3484     0.8993     0.8993     0.0000
 15 O      8.7374     8.0000    -0.7374     1.7460     1.7460    -0.0000
 16 H      0.6322     1.0000     0.3678     0.8804     0.8804    -0.0000
 17 H      0.6059     1.0000     0.3941     0.8752     0.8752    -0.0000
 18 O      8.7349     8.0000    -0.7349     1.7424     1.7424    -0.0000
 19 H      0.6411     1.0000     0.3589     0.8862     0.8862    -0.0000
 20 H      0.5997     1.0000     0.4003     0.8736     0.8736    -0.0000
 21 O      8.7489     8.0000    -0.7489     1.7507     1.7507     0.0000
 22 H      0.6306     1.0000     0.3694     0.8789     0.8789     0.0000
 23 H      0.6047     1.0000     0.3953     0.8596     0.8596    -0.0000

  Mayer bond orders larger than 0.100000
B(  0-O ,  1-H ) :   0.8776 B(  0-O ,  2-H ) :   0.8497 B(  3-O ,  4-H ) :   0.8884 
B(  3-O ,  5-H ) :   0.7954 B(  6-O ,  7-H ) :   0.8983 B(  6-O ,  8-H ) :   0.8088 
B(  9-O , 10-H ) :   0.8726 B(  9-O , 11-H ) :   0.8320 B( 12-O , 13-H ) :   0.8263 
B( 12-O , 14-H ) :   0.8817 B( 15-O , 16-H ) :   0.8720 B( 15-O , 17-H ) :   0.8354 
B( 18-O , 19-H ) :   0.8792 B( 18-O , 20-H ) :   0.8225 B( 21-O , 22-H ) :   0.8696 
B( 21-O , 23-H ) :   0.8453 

-------
TIMINGS
-------

Total SCF time: 0 days 0 hours 0 min 22 sec 

Total time                  ....      22.133 sec
Sum of individual times     ....      21.817 sec  ( 98.6%)

Fock matrix formation       ....      21.247 sec  ( 96.0%)
Diagonalization             ....       0.137 sec  (  0.6%)
Density matrix formation    ....       0.014 sec  (  0.1%)
Population analysis         ....       0.027 sec  (  0.1%)
Initial guess               ....       0.187 sec  (  0.8%)
Orbital Transformation      ....       0.000 sec  (  0.0%)
Orbital Orthonormalization  ....       0.000 sec  (  0.0%)
DIIS solution               ....       0.053 sec  (  0.2%)
SOSCF solution              ....       0.061 sec  (  0.3%)


           ************************************************************
           *        Program running with 6 parallel MPI-processes     *
           *              working on a common directory               *
           ************************************************************

------------------------------------------------------------------------------
                                ORCA  MP2 
------------------------------------------------------------------------------

Freezing NCore=16 chemical core electrons
MP2 will be done in the AO integral direct mode
The Q1-step will be done using symmetric double matrices
Dimension of the basis                    ...  344
Memory devoted for MP2                    ... 8000 MB   
Memory needed for all in one shot         ...  935 MB
Number of MOs that can be treated together...   50      
MP2 density construction                  ... relaxed
The MP2 gradient is requested => amplitudes will be stored on disk
Total number of MOs              ...   32
Number of MOs treated per batch  ...    6 
Number of batches necessary      ...    1 
OPERATORS   0/  0 PASS   0
-----------------------------------------------
 MP2 CORRELATION ENERGY   :     -2.067765245 Eh
-----------------------------------------------


---------------------
MP2 DENSITY FORMATION
---------------------

Completing the external part of the density      ... done
Storing the unrelaxed density                    ... done

Calculating G(D)                                 ... done
Completing the Lagrangian                        ... done
Solving the Z-vector equations                   ... 

------------------------------------------------------------------------------
                           ORCA CP-SCF CALCULATION
------------------------------------------------------------------------------

Input orbitals are from        ... 12h2o.su.etal.mol0,1,2,4,7,8,9,10-orca.engrad-mp2.def2tzvp.frozencore.gbw
Input Perturbation             ... 12h2o.su.etal.mol0,1,2,4,7,8,9,10-orca.engrad-mp2.def2tzvp.frozencore.pin.tmp
Wavefunction output            ... 12h2o.su.etal.mol0,1,2,4,7,8,9,10-orca.engrad-mp2.def2tzvp.frozencore.pout.tmp
Perturbation mode              ... Real perturbation (singlet)
Solver                         ... POPLE
Max. number of iterations      ... 128
Convergence tolerance          ... 1.000e-08
Integral handling              ... Direct
Number of perturbations        ... 1
Number of operators            ... 1
Orbital ranges used for CP-SCF:
 Operator 0:  Orbitals   0... 39  to  40...343
Variables per vector in CP-SCF ... 12160
Number of vectors sought       ... 1
     CP-SCF ITERATION   0: 
     CP-SCF ITERATION   1:      0.001023381847
     CP-SCF ITERATION   2:      0.000025674250
     CP-SCF ITERATION   3:      0.000000907582
     CP-SCF ITERATION   4:      0.000000109557
     CP-SCF ITERATION   5:      0.000000008805
                                                 ... done
Finalizing the relaxed density                   ... done
Transforming P to the AO basis                   ... done
Storing the relaxed density                      ... done

------------------------------------
ENERGY WEIGHTED DENSITY FINALIZATION
------------------------------------

Gathering the parts of the W-matrix              ...                                                      done
Forming the Z-density                            ... done
Transforming Z to the AO basis                   ... done
Calculating G(Z)                                 ... done
Finalizing the W-matrix                          ...                                                      done
Transforming W to the AO basis and storing       ... done

                *********************************************
                * UNRELAXED MP2 DENSITY POPULATION ANALYSIS *
                *********************************************

------------------------------------------------------------------------------
                           ORCA POPULATION ANALYSIS
------------------------------------------------------------------------------
Input electron density              ... 12h2o.su.etal.mol0,1,2,4,7,8,9,10-orca.engrad-mp2.def2tzvp.frozencore.pmp2ur
BaseName (.gbw .S,...)              ... 12h2o.su.etal.mol0,1,2,4,7,8,9,10-orca.engrad-mp2.def2tzvp.frozencore

                    ********************************
                    * MULLIKEN POPULATION ANALYSIS *
                    ********************************

-----------------------
MULLIKEN ATOMIC CHARGES
-----------------------
   0 O :   -0.726872
   1 H :    0.357821
   2 H :    0.388276
   3 O :   -0.763515
   4 H :    0.343635
   5 H :    0.392048
   6 O :   -0.758857
   7 H :    0.331551
   8 H :    0.388135
   9 O :   -0.765877
  10 H :    0.362694
  11 H :    0.372703
  12 O :   -0.730959
  13 H :    0.396933
  14 H :    0.345522
  15 O :   -0.730887
  16 H :    0.365286
  17 H :    0.390747
  18 O :   -0.728136
  19 H :    0.356398
  20 H :    0.396946
  21 O :   -0.743143
  22 H :    0.367187
  23 H :    0.392363
Sum of atomic charges:   -0.0000000

--------------------------------
MULLIKEN REDUCED ORBITAL CHARGES
--------------------------------
  0 O s       :     3.804709  s :     3.804709
      pz      :     1.723972  p :     4.866825
      px      :     1.376192
      py      :     1.766661
      dz2     :     0.009838  d :     0.051284
      dxz     :     0.010374
      dyz     :     0.010889
      dx2y2   :     0.008013
      dxy     :     0.012171
      f0      :     0.000462  f :     0.004053
      f+1     :     0.000712
      f-1     :     0.000549
      f+2     :     0.000428
      f-2     :     0.000718
      f+3     :     0.000461
      f-3     :     0.000723
  1 H s       :     0.595212  s :     0.595212
      pz      :     0.017809  p :     0.046967
      px      :     0.013680
      py      :     0.015479
  2 H s       :     0.569268  s :     0.569268
      pz      :     0.011627  p :     0.042456
      px      :     0.018116
      py      :     0.012712
  3 O s       :     3.804151  s :     3.804151
      pz      :     1.698009  p :     4.904958
      px      :     1.409105
      py      :     1.797844
      dz2     :     0.009217  d :     0.050399
      dxz     :     0.009678
      dyz     :     0.010889
      dx2y2   :     0.007789
      dxy     :     0.012826
      f0      :     0.000451  f :     0.004007
      f+1     :     0.000676
      f-1     :     0.000542
      f+2     :     0.000439
      f-2     :     0.000714
      f+3     :     0.000463
      f-3     :     0.000721
  4 H s       :     0.608925  s :     0.608925
      pz      :     0.017355  p :     0.047440
      px      :     0.014382
      py      :     0.015703
  5 H s       :     0.549625  s :     0.549625
      pz      :     0.011062  p :     0.058327
      px      :     0.032429
      py      :     0.014836
  6 O s       :     3.804029  s :     3.804029
      pz      :     1.708014  p :     4.900102
      px      :     1.789194
      py      :     1.402894
      dz2     :     0.009467  d :     0.050697
      dxz     :     0.010876
      dyz     :     0.010026
      dx2y2   :     0.007810
      dxy     :     0.012518
      f0      :     0.000455  f :     0.004028
      f+1     :     0.000546
      f-1     :     0.000690
      f+2     :     0.000438
      f-2     :     0.000723
      f+3     :     0.000715
      f-3     :     0.000461
  7 H s       :     0.620676  s :     0.620676
      pz      :     0.017574  p :     0.047773
      px      :     0.015822
      py      :     0.014376
  8 H s       :     0.553103  s :     0.553103
      pz      :     0.011549  p :     0.058762
      px      :     0.014790
      py      :     0.032424
  9 O s       :     3.800906  s :     3.800906
      pz      :     1.558158  p :     4.909836
      px      :     1.864027
      py      :     1.487651
      dz2     :     0.016095  d :     0.051154
      dxz     :     0.008041
      dyz     :     0.008276
      dx2y2   :     0.008426
      dxy     :     0.010316
      f0      :     0.000554  f :     0.003980
      f+1     :     0.000492
      f-1     :     0.000808
      f+2     :     0.000440
      f-2     :     0.000406
      f+3     :     0.000799
      f-3     :     0.000481
 10 H s       :     0.586517  s :     0.586517
      pz      :     0.023726  p :     0.050789
      px      :     0.014730
      py      :     0.012332
 11 H s       :     0.571424  s :     0.571424
      pz      :     0.010598  p :     0.055873
      px      :     0.016402
      py      :     0.028874
 12 O s       :     3.797200  s :     3.797200
      pz      :     1.597372  p :     4.877701
      px      :     1.448484
      py      :     1.831845
      dz2     :     0.016504  d :     0.052088
      dxz     :     0.008180
      dyz     :     0.007841
      dx2y2   :     0.009102
      dxy     :     0.010461
      f0      :     0.000534  f :     0.003970
      f+1     :     0.000821
      f-1     :     0.000491
      f+2     :     0.000434
      f-2     :     0.000406
      f+3     :     0.000477
      f-3     :     0.000807
 13 H s       :     0.553122  s :     0.553122
      pz      :     0.025488  p :     0.049946
      px      :     0.011286
      py      :     0.013172
 14 H s       :     0.610041  s :     0.610041
      pz      :     0.010972  p :     0.044437
      px      :     0.018379
      py      :     0.015086
 15 O s       :     3.789921  s :     3.789921
      pz      :     1.518892  p :     4.884786
      px      :     1.585667
      py      :     1.780226
      dz2     :     0.017362  d :     0.052180
      dxz     :     0.006676
      dyz     :     0.007948
      dx2y2   :     0.008043
      dxy     :     0.012151
      f0      :     0.000631  f :     0.004000
      f+1     :     0.000756
      f-1     :     0.000534
      f+2     :     0.000415
      f-2     :     0.000424
      f+3     :     0.000427
      f-3     :     0.000812
 16 H s       :     0.589623  s :     0.589623
      pz      :     0.019421  p :     0.045092
      px      :     0.012256
      py      :     0.013415
 17 H s       :     0.558571  s :     0.558571
      pz      :     0.010339  p :     0.050682
      px      :     0.024211
      py      :     0.016132
 18 O s       :     3.789624  s :     3.789624
      pz      :     1.510378  p :     4.882367
      px      :     1.780292
      py      :     1.591697
      dz2     :     0.017394  d :     0.052153
      dxz     :     0.007947
      dyz     :     0.006706
      dx2y2   :     0.008024
      dxy     :     0.012082
      f0      :     0.000632  f :     0.003993
      f+1     :     0.000532
      f-1     :     0.000755
      f+2     :     0.000415
      f-2     :     0.000424
      f+3     :     0.000809
      f-3     :     0.000426
 19 H s       :     0.598093  s :     0.598093
      pz      :     0.019246  p :     0.045508
      px      :     0.013696
      py      :     0.012567
 20 H s       :     0.552441  s :     0.552441
      pz      :     0.010124  p :     0.050613
      px      :     0.015902
      py      :     0.024587
 21 O s       :     3.803788  s :     3.803788
      pz      :     1.722625  p :     4.884035
      px      :     1.778338
      py      :     1.383072
      dz2     :     0.009734  d :     0.051282
      dxz     :     0.010918
      dyz     :     0.010076
      dx2y2   :     0.007998
      dxy     :     0.012556
      f0      :     0.000458  f :     0.004038
      f+1     :     0.000546
      f-1     :     0.000699
      f+2     :     0.000430
      f-2     :     0.000712
      f+3     :     0.000729
      f-3     :     0.000464
 22 H s       :     0.586291  s :     0.586291
      pz      :     0.017578  p :     0.046521
      px      :     0.015300
      py      :     0.013644
 23 H s       :     0.565810  s :     0.565810
      pz      :     0.011082  p :     0.041827
      px      :     0.012646
      py      :     0.018098


                     *******************************
                     * LOEWDIN POPULATION ANALYSIS *
                     *******************************

----------------------
LOEWDIN ATOMIC CHARGES
----------------------
   0 O :   -0.314376
   1 H :    0.161790
   2 H :    0.194762
   3 O :   -0.343661
   4 H :    0.151904
   5 H :    0.150166
   6 O :   -0.374697
   7 H :    0.146912
   8 H :    0.148542
   9 O :   -0.374278
  10 H :    0.142684
  11 H :    0.144420
  12 O :   -0.307887
  13 H :    0.158085
  14 H :    0.166841
  15 O :   -0.289304
  16 H :    0.171935
  17 H :    0.157836
  18 O :   -0.286563
  19 H :    0.166947
  20 H :    0.160882
  21 O :   -0.293528
  22 H :    0.164481
  23 H :    0.196106

-------------------------------
LOEWDIN REDUCED ORBITAL CHARGES
-------------------------------
  0 O s       :     3.463032  s :     3.463032
      pz      :     1.700234  p :     4.787387
      px      :     1.358183
      py      :     1.728970
      dz2     :     0.010489  d :     0.059156
      dxz     :     0.012788
      dyz     :     0.011161
      dx2y2   :     0.009771
      dxy     :     0.014947
      f0      :     0.000457  f :     0.004800
      f+1     :     0.000859
      f-1     :     0.000655
      f+2     :     0.000408
      f-2     :     0.001022
      f+3     :     0.000473
      f-3     :     0.000926
  1 H s       :     0.671796  s :     0.671796
      pz      :     0.067645  p :     0.166414
      px      :     0.045278
      py      :     0.053491
  2 H s       :     0.653362  s :     0.653362
      pz      :     0.033821  p :     0.151876
      px      :     0.073897
      py      :     0.044158
  3 O s       :     3.457485  s :     3.457485
      pz      :     1.664901  p :     4.823522
      px      :     1.388393
      py      :     1.770228
      dz2     :     0.010302  d :     0.057894
      dxz     :     0.012454
      dyz     :     0.011439
      dx2y2   :     0.008877
      dxy     :     0.014823
      f0      :     0.000466  f :     0.004760
      f+1     :     0.000841
      f-1     :     0.000646
      f+2     :     0.000411
      f-2     :     0.001027
      f+3     :     0.000472
      f-3     :     0.000897
  4 H s       :     0.680054  s :     0.680054
      pz      :     0.066976  p :     0.168041
      px      :     0.046743
      py      :     0.054322
  5 H s       :     0.650832  s :     0.650832
      pz      :     0.034228  p :     0.199001
      px      :     0.116109
      py      :     0.048665
  6 O s       :     3.464017  s :     3.464017
      pz      :     1.695000  p :     4.848281
      px      :     1.768085
      py      :     1.385195
      dz2     :     0.009794  d :     0.057631
      dxz     :     0.011449
      dyz     :     0.012740
      dx2y2   :     0.008927
      dxy     :     0.014722
      f0      :     0.000451  f :     0.004767
      f+1     :     0.000647
      f-1     :     0.000851
      f+2     :     0.000410
      f-2     :     0.001041
      f+3     :     0.000896
      f-3     :     0.000472
  7 H s       :     0.685439  s :     0.685439
      pz      :     0.066794  p :     0.167649
      px      :     0.054272
      py      :     0.046583
  8 H s       :     0.653600  s :     0.653600
      pz      :     0.034329  p :     0.197858
      px      :     0.048626
      py      :     0.114902
  9 O s       :     3.460851  s :     3.460851
      pz      :     1.551222  p :     4.851169
      px      :     1.826515
      py      :     1.473432
      dz2     :     0.019634  d :     0.057519
      dxz     :     0.007092
      dyz     :     0.009574
      dx2y2   :     0.009519
      dxy     :     0.011699
      f0      :     0.000778  f :     0.004739
      f+1     :     0.000576
      f-1     :     0.001149
      f+2     :     0.000415
      f-2     :     0.000416
      f+3     :     0.000961
      f-3     :     0.000443
 10 H s       :     0.682702  s :     0.682702
      pz      :     0.091688  p :     0.174613
      px      :     0.044577
      py      :     0.038348
 11 H s       :     0.667185  s :     0.667185
      pz      :     0.031056  p :     0.188395
      px      :     0.053416
      py      :     0.103923
 12 O s       :     3.458701  s :     3.458701
      pz      :     1.571228  p :     4.784854
      px      :     1.441998
      py      :     1.771628
      dz2     :     0.019904  d :     0.059525
      dxz     :     0.009077
      dyz     :     0.006856
      dx2y2   :     0.011233
      dxy     :     0.012454
      f0      :     0.000734  f :     0.004808
      f+1     :     0.001148
      f-1     :     0.000599
      f+2     :     0.000410
      f-2     :     0.000415
      f+3     :     0.000455
      f-3     :     0.001046
 13 H s       :     0.665091  s :     0.665091
      pz      :     0.097179  p :     0.176824
      px      :     0.036492
      py      :     0.043153
 14 H s       :     0.675872  s :     0.675872
      pz      :     0.031548  p :     0.157287
      px      :     0.075394
      py      :     0.050346
 15 O s       :     3.448768  s :     3.448768
      pz      :     1.509984  p :     4.775833
      px      :     1.544970
      py      :     1.720879
      dz2     :     0.021824  d :     0.059802
      dxz     :     0.007412
      dyz     :     0.007400
      dx2y2   :     0.009042
      dxy     :     0.014124
      f0      :     0.000881  f :     0.004901
      f+1     :     0.000997
      f-1     :     0.000733
      f+2     :     0.000390
      f-2     :     0.000426
      f+3     :     0.000409
      f-3     :     0.001065
 16 H s       :     0.665690  s :     0.665690
      pz      :     0.082554  p :     0.162375
      px      :     0.037222
      py      :     0.042599
 17 H s       :     0.665266  s :     0.665266
      pz      :     0.030360  p :     0.176898
      px      :     0.087641
      py      :     0.058897
 18 O s       :     3.448541  s :     3.448541
      pz      :     1.504744  p :     4.773270
      px      :     1.720201
      py      :     1.548325
      dz2     :     0.022091  d :     0.059858
      dxz     :     0.007411
      dyz     :     0.007477
      dx2y2   :     0.008986
      dxy     :     0.013892
      f0      :     0.000894  f :     0.004894
      f+1     :     0.000731
      f-1     :     0.000996
      f+2     :     0.000389
      f-2     :     0.000426
      f+3     :     0.001050
      f-3     :     0.000409
 19 H s       :     0.670569  s :     0.670569
      pz      :     0.081991  p :     0.162483
      px      :     0.042940
      py      :     0.037552
 20 H s       :     0.661258  s :     0.661258
      pz      :     0.030035  p :     0.177860
      px      :     0.058853
      py      :     0.088972
 21 O s       :     3.458213  s :     3.458213
      pz      :     1.676936  p :     4.770778
      px      :     1.733600
      py      :     1.360242
      dz2     :     0.011201  d :     0.059722
      dxz     :     0.011157
      dyz     :     0.012520
      dx2y2   :     0.009703
      dxy     :     0.015142
      f0      :     0.000478  f :     0.004815
      f+1     :     0.000656
      f-1     :     0.000856
      f+2     :     0.000409
      f-2     :     0.001011
      f+3     :     0.000933
      f-3     :     0.000474
 22 H s       :     0.668389  s :     0.668389
      pz      :     0.068059  p :     0.167130
      px      :     0.053638
      py      :     0.045433
 23 H s       :     0.651413  s :     0.651413
      pz      :     0.033983  p :     0.152481
      px      :     0.044236
      py      :     0.074262


                      *****************************
                      * MAYER POPULATION ANALYSIS *
                      *****************************

  NA   - Mulliken gross atomic population
  ZA   - Total nuclear charge
  QA   - Mulliken gross atomic charge
[...]
      f+1     :     0.000523
      f-1     :     0.000734
      f+2     :     0.000415
      f-2     :     0.000422
      f+3     :     0.000786
      f-3     :     0.000425
 19 H s       :     0.602970  s :     0.602970
      pz      :     0.018476  p :     0.046172
      px      :     0.014578
      py      :     0.013117
 20 H s       :     0.569481  s :     0.569481
      pz      :     0.010699  p :     0.051015
      px      :     0.016200
      py      :     0.024116
 21 O s       :     3.807375  s :     3.807375
      pz      :     1.714179  p :     4.860137
      px      :     1.766103
      py      :     1.379856
      dz2     :     0.009528  d :     0.049157
      dxz     :     0.010657
      dyz     :     0.009479
      dx2y2   :     0.007738
      dxy     :     0.011755
      f0      :     0.000456  f :     0.003965
      f+1     :     0.000538
      f-1     :     0.000680
      f+2     :     0.000430
      f-2     :     0.000691
      f+3     :     0.000708
      f-3     :     0.000462
 22 H s       :     0.592553  s :     0.592553
      pz      :     0.017741  p :     0.047208
      px      :     0.015900
      py      :     0.013566
 23 H s       :     0.573544  s :     0.573544
      pz      :     0.011883  p :     0.042301
      px      :     0.013284
      py      :     0.017134


                     *******************************
                     * LOEWDIN POPULATION ANALYSIS *
                     *******************************

----------------------
LOEWDIN ATOMIC CHARGES
----------------------
   0 O :   -0.311305
   1 H :    0.163812
   2 H :    0.195537
   3 O :   -0.340909
   4 H :    0.153832
   5 H :    0.142526
   6 O :   -0.376805
   7 H :    0.148808
   8 H :    0.141050
   9 O :   -0.374114
  10 H :    0.139287
  11 H :    0.137812
  12 O :   -0.301944
  13 H :    0.153143
  14 H :    0.167495
  15 O :   -0.283457
  16 H :    0.173158
  17 H :    0.152994
  18 O :   -0.280283
  19 H :    0.168592
  20 H :    0.155837
  21 O :   -0.287804
  22 H :    0.166149
  23 H :    0.196587

-------------------------------
LOEWDIN REDUCED ORBITAL CHARGES
-------------------------------
  0 O s       :     3.464546  s :     3.464546
      pz      :     1.699453  p :     4.783971
      px      :     1.363199
      py      :     1.721319
      dz2     :     0.010339  d :     0.057971
      dxz     :     0.012401
      dyz     :     0.011125
      dx2y2   :     0.009556
      dxy     :     0.014550
      f0      :     0.000459  f :     0.004817
      f+1     :     0.000864
      f-1     :     0.000655
      f+2     :     0.000408
      f-2     :     0.001022
      f+3     :     0.000476
      f-3     :     0.000932
  1 H s       :     0.669983  s :     0.669983
      pz      :     0.067762  p :     0.166205
      px      :     0.044565
      py      :     0.053878
  2 H s       :     0.652871  s :     0.652871
      pz      :     0.034548  p :     0.151592
      px      :     0.072365
      py      :     0.044679
  3 O s       :     3.459065  s :     3.459065
      pz      :     1.659305  p :     4.819784
      px      :     1.391922
      py      :     1.768556
      dz2     :     0.010346  d :     0.057261
      dxz     :     0.012107
      dyz     :     0.011369
      dx2y2   :     0.008885
      dxy     :     0.014553
      f0      :     0.000469  f :     0.004799
      f+1     :     0.000853
      f-1     :     0.000647
      f+2     :     0.000412
      f-2     :     0.001029
      f+3     :     0.000476
      f-3     :     0.000913
  4 H s       :     0.678024  s :     0.678024
      pz      :     0.066926  p :     0.168144
      px      :     0.046311
      py      :     0.054907
  5 H s       :     0.658193  s :     0.658193
      pz      :     0.034788  p :     0.199281
      px      :     0.115247
      py      :     0.049247
  6 O s       :     3.465599  s :     3.465599
      pz      :     1.694543  p :     4.849569
      px      :     1.766238
      py      :     1.388789
      dz2     :     0.009742  d :     0.056831
      dxz     :     0.011348
      dyz     :     0.012371
      dx2y2   :     0.008915
      dxy     :     0.014455
      f0      :     0.000453  f :     0.004806
      f+1     :     0.000648
      f-1     :     0.000864
      f+2     :     0.000410
      f-2     :     0.001042
      f+3     :     0.000913
      f-3     :     0.000476
  7 H s       :     0.683286  s :     0.683286
      pz      :     0.066860  p :     0.167906
      px      :     0.054851
      py      :     0.046196
  8 H s       :     0.660860  s :     0.660860
      pz      :     0.034992  p :     0.198090
      px      :     0.049216
      py      :     0.113882
  9 O s       :     3.461696  s :     3.461696
      pz      :     1.551926  p :     4.850884
      px      :     1.823270
      py      :     1.475689
      dz2     :     0.019203  d :     0.056762
      dxz     :     0.007148
      dyz     :     0.009369
      dx2y2   :     0.009462
      dxy     :     0.011580
      f0      :     0.000780  f :     0.004772
      f+1     :     0.000577
      f-1     :     0.001163
      f+2     :     0.000417
      f-2     :     0.000415
      f+3     :     0.000975
      f-3     :     0.000446
 10 H s       :     0.685444  s :     0.685444
      pz      :     0.091119  p :     0.175268
      px      :     0.045514
      py      :     0.038635
 11 H s       :     0.673003  s :     0.673003
      pz      :     0.031575  p :     0.189185
      px      :     0.054051
      py      :     0.103559
 12 O s       :     3.459763  s :     3.459763
      pz      :     1.572444  p :     4.778755
      px      :     1.445010
      py      :     1.761301
      dz2     :     0.019467  d :     0.058600
      dxz     :     0.008885
      dyz     :     0.006929
      dx2y2   :     0.011092
      dxy     :     0.012227
      f0      :     0.000734  f :     0.004827
      f+1     :     0.001156
      f-1     :     0.000600
      f+2     :     0.000412
      f-2     :     0.000414
      f+3     :     0.000458
      f-3     :     0.001053
 13 H s       :     0.669756  s :     0.669756
      pz      :     0.096722  p :     0.177101
      px      :     0.036521
      py      :     0.043858
 14 H s       :     0.674926  s :     0.674926
      pz      :     0.032199  p :     0.157579
      px      :     0.074419
      py      :     0.050960
 15 O s       :     3.449591  s :     3.449591
      pz      :     1.512181  p :     4.769911
      px      :     1.546889
      py      :     1.710841
      dz2     :     0.021200  d :     0.059031
      dxz     :     0.007281
      dyz     :     0.007431
      dx2y2   :     0.009146
      dxy     :     0.013973
      f0      :     0.000880  f :     0.004924
      f+1     :     0.001005
      f-1     :     0.000734
      f+2     :     0.000392
      f-2     :     0.000426
      f+3     :     0.000410
      f-3     :     0.001077
 16 H s       :     0.664543  s :     0.664543
      pz      :     0.081600  p :     0.162299
      px      :     0.037491
      py      :     0.043208
 17 H s       :     0.669690  s :     0.669690
      pz      :     0.030745  p :     0.177316
      px      :     0.087243
      py      :     0.059329
 18 O s       :     3.449398  s :     3.449398
      pz      :     1.506967  p :     4.766887
      px      :     1.709720
      py      :     1.550201
      dz2     :     0.021439  d :     0.059082
      dxz     :     0.007445
      dyz     :     0.007345
      dx2y2   :     0.009089
      dxy     :     0.013764
      f0      :     0.000892  f :     0.004916
      f+1     :     0.000731
      f-1     :     0.001003
      f+2     :     0.000391
      f-2     :     0.000426
      f+3     :     0.001061
      f-3     :     0.000410
 19 H s       :     0.668769  s :     0.668769
      pz      :     0.081168  p :     0.162638
      px      :     0.043601
      py      :     0.037869
 20 H s       :     0.665930  s :     0.665930
      pz      :     0.030370  p :     0.178233
      px      :     0.059206
      py      :     0.088657
 21 O s       :     3.459997  s :     3.459997
      pz      :     1.672334  p :     4.764250
      px      :     1.726663
      py      :     1.365253
      dz2     :     0.011173  d :     0.058722
      dxz     :     0.011155
      dyz     :     0.012160
      dx2y2   :     0.009501
      dxy     :     0.014733
      f0      :     0.000481  f :     0.004834
      f+1     :     0.000656
      f-1     :     0.000861
      f+2     :     0.000410
      f-2     :     0.001011
      f+3     :     0.000938
      f-3     :     0.000476
 22 H s       :     0.666941  s :     0.666941
      pz      :     0.068168  p :     0.166910
      px      :     0.054073
      py      :     0.044669
 23 H s       :     0.651188  s :     0.651188
      pz      :     0.034669  p :     0.152225
      px      :     0.044789
      py      :     0.072767


                      *****************************
                      * MAYER POPULATION ANALYSIS *
                      *****************************

  NA   - Mulliken gross atomic population
  ZA   - Total nuclear charge
  QA   - Mulliken gross atomic charge
  VA   - Mayer's total valence
  BVA  - Mayer's bonded valence
  FA   - Mayer's free valence

  ATOM       NA         ZA         QA         VA         BVA        FA
  0 O      8.7058     8.0000    -0.7058     2.0977     1.7134     0.3843
  1 H      0.6483     1.0000     0.3517     0.8952     0.8497     0.0455
  2 H      0.6197     1.0000     0.3803     0.8764     0.8306     0.0458
  3 O      8.7383     8.0000    -0.7383     2.0302     1.6417     0.3885
  4 H      0.6629     1.0000     0.3371     0.9069     0.8597     0.0472
  5 H      0.6319     1.0000     0.3681     0.9175     0.8720     0.0455
  6 O      8.7393     8.0000    -0.7393     2.0108     1.6232     0.3876
  7 H      0.6747     1.0000     0.3253     0.9141     0.8661     0.0480
  8 H      0.6348     1.0000     0.3652     0.9193     0.8740     0.0453
  9 O      8.7415     8.0000    -0.7415     2.0264     1.6376     0.3888
 10 H      0.6505     1.0000     0.3495     0.9137     0.8677     0.0460
 11 H      0.6493     1.0000     0.3507     0.9332     0.8871     0.0461
 12 O      8.7025     8.0000    -0.7025     2.0956     1.7103     0.3852
 13 H      0.6203     1.0000     0.3797     0.9040     0.8610     0.0430
 14 H      0.6629     1.0000     0.3371     0.9156     0.8667     0.0489
 15 O      8.7040     8.0000    -0.7040     2.0895     1.7073     0.3822
 16 H      0.6414     1.0000     0.3586     0.8921     0.8462     0.0459
 17 H      0.6259     1.0000     0.3741     0.9049     0.8613     0.0435
 18 O      8.7002     8.0000    -0.7002     2.0857     1.7033     0.3824
 19 H      0.6491     1.0000     0.3509     0.8962     0.8494     0.0469
 20 H      0.6205     1.0000     0.3795     0.9039     0.8609     0.0429
 21 O      8.7206     8.0000    -0.7206     2.1024     1.7162     0.3863
 22 H      0.6398     1.0000     0.3602     0.8898     0.8448     0.0450
 23 H      0.6158     1.0000     0.3842     0.8746     0.8288     0.0458

  Mayer bond orders larger than 0.100000
B(  0-O ,  1-H ) :   0.8417 B(  0-O ,  2-H ) :   0.8141 B(  3-O ,  4-H ) :   0.8506 
B(  3-O ,  5-H ) :   0.7580 B(  5-H , 18-O ) :   0.1007 B(  6-O ,  7-H ) :   0.8601 
B(  6-O ,  8-H ) :   0.7736 B(  9-O , 10-H ) :   0.8384 B(  9-O , 11-H ) :   0.7945 
B( 12-O , 13-H ) :   0.7945 B( 12-O , 14-H ) :   0.8423 B( 15-O , 16-H ) :   0.8355 
B( 15-O , 17-H ) :   0.8019 B( 18-O , 19-H ) :   0.8415 B( 18-O , 20-H ) :   0.7890 
B( 21-O , 22-H ) :   0.8340 B( 21-O , 23-H ) :   0.8095 


----------------------------------
MP2 DERIVATIVE INTEGRAL GENERATION
----------------------------------


Input Wavefunction Amplitudes       ... 12h2o.su.etal.mol0,1,2,4,7,8,9,10-orca.engrad-mp2.def2tzvp.frozencore.mp2tsaa.tmp
Input Correlated Electron Density   ... 12h2o.su.etal.mol0,1,2,4,7,8,9,10-orca.engrad-mp2.def2tzvp.frozencore.pmp2re
Input Energy Weighted Density       ... 12h2o.su.etal.mol0,1,2,4,7,8,9,10-orca.engrad-mp2.def2tzvp.frozencore.wmp2.tmp
Input SCF Electron Density          ... 12h2o.su.etal.mol0,1,2,4,7,8,9,10-orca.engrad-mp2.def2tzvp.frozencore.scfp

One-Electron Terms    ...
                        ... One-Electron Terms done
Prescreening matrices              ... done

Batch handling in the gradient evaluation:
Memory available                      ... 8000.0 MB
Memory per occupied orbital in Q2     ...   28.9 MB
Memory per occupied orbital in Q3     ...    0.1 MB
Total memory requirement per |i>      ...   29.0 MB
Max. Number of orbitals possible      ...    275
Number of orbitals treated per batch  ...     32
Number of batches to be done          ...      1
Batch   0: i=    8 ...    39

---------------------------------------
MP2 TOTAL ENERGY:     -610.571191666 Eh
---------------------------------------

The final MP2 gradient
  0:   0.02664541  -0.00233935  -0.00304741
  1:   0.00109762  -0.00229932  -0.00130902
  2:  -0.02529884   0.00620911   0.00502554
  3:  -0.00529268   0.00427932   0.00203928
  4:  -0.00088563   0.00032555  -0.00060223
  5:   0.01178929  -0.00443880  -0.00292258
  6:  -0.00202292  -0.00873387  -0.00128682
  7:  -0.00013289  -0.00173104  -0.00048512
  8:   0.00450818   0.01581291   0.00121939
  9:   0.00220858   0.00144482   0.00392074
 10:  -0.00246212   0.00384733  -0.00855606
 11:  -0.00277261  -0.00875336  -0.00060783
 12:  -0.01583448   0.00961460   0.00184079
 13:  -0.00211208  -0.00185518  -0.00432811
 14:   0.01796361  -0.00571361   0.00415293
 15:  -0.00229554  -0.00624027  -0.00783242
 16:   0.00205862  -0.00051944   0.00672145
 17:  -0.00111106  -0.00086926  -0.00182641
 18:  -0.00286019   0.00313893   0.00982046
 19:  -0.00183478  -0.00043669  -0.00828019
 20:  -0.00227020  -0.00247791   0.00114176
 21:   0.00573958   0.02510126   0.00511278
 22:   0.00256503   0.00043308   0.00273109
 23:  -0.00738990  -0.02379881  -0.00264201

-----------------------------------
NORM OF THE MP2 GRADIENT:  0.068197
-----------------------------------

-------------------------   --------------------
FINAL SINGLE POINT ENERGY      -610.571191666362
-------------------------   --------------------


                            ***************************************
                            *     ORCA property calculations      *
                            ***************************************

                                    ---------------------
                                    Active property flags
                                    ---------------------
   (+) Dipole Moment


------------------------------------------------------------------------------
                       ORCA ELECTRIC PROPERTIES CALCULATION
------------------------------------------------------------------------------

Dipole Moment Calculation                       ... on
Quadrupole Moment Calculation                   ... off
Polarizability Calculation                      ... off
GBWName                                         ... 12h2o.su.etal.mol0,1,2,4,7,8,9,10-orca.engrad-mp2.def2tzvp.frozencore.gbw
Electron density file                           ... 12h2o.su.etal.mol0,1,2,4,7,8,9,10-orca.engrad-mp2.def2tzvp.frozencore.scfp
The origin for moment calculation is the CENTER OF MASS  = (-0.028872, -0.035605 -0.000000)

-------------
DIPOLE MOMENT
-------------
                                X             Y             Z
Electronic contribution:      0.14847       0.26238       0.11004
Nuclear contribution   :      0.11114       0.11229       0.00000
                        -----------------------------------------
Total Dipole Moment    :      0.25961       0.37467       0.11004
                        -----------------------------------------
Magnitude (a.u.)       :      0.46891
Magnitude (Debye)      :      1.19189



--------------------
Rotational spectrum 
--------------------
 
Rotational constants in cm-1:     0.031363     0.014647     0.014266 
Rotational constants in MHz :   940.230176   439.117891   427.697733 

 Dipole components along the rotational axes: 
x,y,z [a.u.] :     0.010940    -0.110728    -0.455522 
x,y,z [Debye]:     0.027807    -0.281449    -1.157845 

 

                         *** MP2 UNRELAXED DENSITY ***

------------------------------------------------------------------------------
                       ORCA ELECTRIC PROPERTIES CALCULATION
------------------------------------------------------------------------------

Dipole Moment Calculation                       ... on
Quadrupole Moment Calculation                   ... off
Polarizability Calculation                      ... off
GBWName                                         ... 12h2o.su.etal.mol0,1,2,4,7,8,9,10-orca.engrad-mp2.def2tzvp.frozencore.gbw
Electron density file                           ... 12h2o.su.etal.mol0,1,2,4,7,8,9,10-orca.engrad-mp2.def2tzvp.frozencore.pmp2ur
The origin for moment calculation is the CENTER OF MASS  = (-0.028872, -0.035605 -0.000000)

-------------
DIPOLE MOMENT
-------------
                                X             Y             Z
Electronic contribution:      0.15017       0.26526       0.11225
Nuclear contribution   :      0.11114       0.11229       0.00000
                        -----------------------------------------
Total Dipole Moment    :      0.26131       0.37754       0.11225
                        -----------------------------------------
Magnitude (a.u.)       :      0.47267
Magnitude (Debye)      :      1.20144



--------------------
Rotational spectrum 
--------------------
 
Rotational constants in cm-1:     0.031363     0.014647     0.014266 
Rotational constants in MHz :   940.230176   439.117891   427.697733 

 Dipole components along the rotational axes: 
x,y,z [a.u.] :     0.012371    -0.111304    -0.459214 
x,y,z [Debye]:     0.031446    -0.282913    -1.167228 

 

                           *** MP2 RELAXED DENSITY ***

------------------------------------------------------------------------------
                       ORCA ELECTRIC PROPERTIES CALCULATION
------------------------------------------------------------------------------

Dipole Moment Calculation                       ... on
Quadrupole Moment Calculation                   ... off
Polarizability Calculation                      ... off
GBWName                                         ... 12h2o.su.etal.mol0,1,2,4,7,8,9,10-orca.engrad-mp2.def2tzvp.frozencore.gbw
Electron density file                           ... 12h2o.su.etal.mol0,1,2,4,7,8,9,10-orca.engrad-mp2.def2tzvp.frozencore.pmp2re
The origin for moment calculation is the CENTER OF MASS  = (-0.028872, -0.035605 -0.000000)

-------------
DIPOLE MOMENT
-------------
                                X             Y             Z
Electronic contribution:      0.16466       0.27410       0.12337
Nuclear contribution   :      0.11114       0.11229       0.00000
                        -----------------------------------------
Total Dipole Moment    :      0.27579       0.38639       0.12337
                        -----------------------------------------
Magnitude (a.u.)       :      0.49049
Magnitude (Debye)      :      1.24672



--------------------
Rotational spectrum 
--------------------
 
Rotational constants in cm-1:     0.031363     0.014647     0.014266 
Rotational constants in MHz :   940.230176   439.117891   427.697733 

 Dipole components along the rotational axes: 
x,y,z [a.u.] :     0.020311    -0.121735    -0.474707 
x,y,z [Debye]:     0.051626    -0.309426    -1.206610 

 

Timings for individual modules:

Sum of individual times         ...      161.570 sec (=   2.693 min)
GTO integral calculation        ...        1.011 sec (=   0.017 min)   0.6 %
SCF iterations                  ...       22.841 sec (=   0.381 min)  14.1 %
MP2 module                      ...      137.719 sec (=   2.295 min)  85.2 %
                             ****ORCA TERMINATED NORMALLY****
TOTAL RUN TIME: 0 days 0 hours 2 minutes 42 seconds 555 msec
