
                                 *****************
                                 * O   R   C   A *
                                 *****************

           --- An Ab Initio, DFT and Semiempirical electronic structure package ---

                  #######################################################
                  #                        -***-                        #
                  #          Department of theory and spectroscopy      #
                  #               Directorship: Frank Neese             #
                  #        Max Planck Institute fuer Kohlenforschung    #
                  #                Kaiser Wilhelm Platz 1               #
                  #                 D-45470 Muelheim/Ruhr               #
                  #                      Germany                        #
                  #                                                     #
                  #                  All rights reserved                #
                  #                        -***-                        #
                  #######################################################


                         Program Version 4.2.0 -  RELEASE  -


 With contributions from (in alphabetic order):
   Daniel Aravena         : Magnetic Suceptibility
   Michael Atanasov       : Ab Initio Ligand Field Theory (pilot matlab implementation)
   Alexander A. Auer      : GIAO ZORA, VPT2
   Ute Becker             : Parallelization
   Giovanni Bistoni       : ED, misc. LED, open-shell LED, HFLED
   Martin Brehm           : Molecular dynamics
   Dmytro Bykov           : SCF Hessian
   Vijay G. Chilkuri      : MRCI spin determinant printing, contributions to CSF-ICE
   Dipayan Datta          : RHF DLPNO-CCSD density
   Achintya Kumar Dutta   : EOM-CC, STEOM-CC
   Dmitry Ganyushin       : Spin-Orbit,Spin-Spin,Magnetic field MRCI
   Miquel Garcia          : C-PCM Hessian, Gaussian charge scheme
   Yang Guo               : DLPNO-NEVPT2, CIM, IAO-localization
   Andreas Hansen         : Spin unrestricted coupled pair/coupled cluster methods
   Benjamin Helmich-Paris : CASSCF linear response (MC-RPA)
   Lee Huntington         : MR-EOM, pCC
   Robert Izsak           : Overlap fitted RIJCOSX, COSX-SCS-MP3, EOM
   Christian Kollmar      : KDIIS, OOCD, Brueckner-CCSD(T), CCSD density
   Simone Kossmann        : Meta GGA functionals, TD-DFT gradient, OOMP2, MP2 Hessian
   Martin Krupicka        : AUTO-CI
   Lucas Lang             : DCDCAS
   Dagmar Lenk            : GEPOL surface, SMD
   Dimitrios Liakos       : Extrapolation schemes; Compound Job, initial MDCI parallelization
   Dimitrios Manganas     : Further ROCIS development; embedding schemes
   Dimitrios Pantazis     : SARC Basis sets
   Taras Petrenko         : DFT Hessian,TD-DFT gradient, ASA, ECA, R-Raman, ABS, FL, XAS/XES, NRVS
   Peter Pinski           : DLPNO-MP2, DLPNO-MP2 Gradient
   Christoph Reimann      : Effective Core Potentials
   Marius Retegan         : Local ZFS, SOC
   Christoph Riplinger    : Optimizer, TS searches, QM/MM, DLPNO-CCSD(T), (RO)-DLPNO pert. Triples
   Tobias Risthaus        : Range-separated hybrids, TD-DFT gradient, RPA, STAB
   Michael Roemelt        : Original ROCIS implementation
   Masaaki Saitow         : Open-shell DLPNO-CCSD energy and density
   Barbara Sandhoefer     : DKH picture change effects
   Avijit Sen             : IP-ROCIS
   Kantharuban Sivalingam : CASSCF convergence, NEVPT2, FIC-MRCI
   Bernardo de Souza      : ESD, SOC TD-DFT
   Georgi Stoychev        : AutoAux, RI-MP2 NMR
   Willem Van den Heuvel  : Paramagnetic NMR
   Boris Wezisla          : Elementary symmetry handling
   Frank Wennmohs         : Technical directorship


 We gratefully acknowledge several colleagues who have allowed us to
 interface, adapt or use parts of their codes:
   Stefan Grimme, W. Hujo, H. Kruse,             : VdW corrections, initial TS optimization,
                  C. Bannwarth                     DFT functionals, gCP, sTDA/sTD-DF
   Ed Valeev, F. Pavosevic, A. Kumar             : LibInt (2-el integral package), F12 methods
   Garnet Chan, S. Sharma, J. Yang, R. Olivares  : DMRG
   Ulf Ekstrom                                   : XCFun DFT Library
   Mihaly Kallay                                 : mrcc  (arbitrary order and MRCC methods)
   Andreas Klamt, Michael Diedenhofen            : otool_cosmo (COSMO solvation model)
   Jiri Pittner, Ondrej Demel                    : Mk-CCSD
   Frank Weinhold                                : gennbo (NPA and NBO analysis)
   Christopher J. Cramer and Donald G. Truhlar   : smd solvation model
   Lars Goerigk                                  : TD-DFT with DH, B97 family of functionals
   V. Asgeirsson, H. Jonsson                     : NEB implementation
   FAccTs GmbH                                   : IRC, NEB, NEB-TS, Multilevel, MM, QM/MM, CI optimization
   S Lehtola, MJT Oliveira, MAL Marques          : LibXC Library


 Your calculation uses the libint2 library for the computation of 2-el integrals
 For citations please refer to: http://libint.valeyev.net

 Your ORCA version has been built with support for libXC version: 4.2.3
 For citations please refer to: https://tddft.org/programs/libxc/

 This ORCA versions uses:
   CBLAS   interface :  Fast vector & matrix operations
   LAPACKE interface :  Fast linear algebra routines
   SCALAPACK package :  Parallel linear algebra routines


----- Orbital basis set information -----
Your calculation utilizes the basis: def2-TZVP
   F. Weigend and R. Ahlrichs, Phys. Chem. Chem. Phys. 7, 3297 (2005).

================================================================================
                                        WARNINGS
                       Please study these warnings very carefully!
================================================================================


WARNING: The frozen-core approximation for MP2-gradient calculations is turned on by default.

INFO   : the flag for use of LIBINT has been found!

================================================================================
                                       INPUT FILE
================================================================================
NAME = 12mecn.remya.etal.2.mol1,5,8-orca.engrad-mp2.def2tzvp.frozencore.inp
|  1> # 12mecn.remya.etal.2.mol1,5,8
|  2> ! MP2 def2-TZVP EnGrad TightSCF
|  3> 
|  4> %pal
|  5>     nprocs 6
|  6> end
|  7> 
|  8> %maxcore 8000
|  9> 
| 10> %scf
| 11>     ConvForced true
| 12> end
| 13> 
| 14> *xyz 0 1
| 15> C  -4.697980000  -0.249690000   1.746215000
| 16> H  -4.927570000   0.755530000   2.111799000
| 17> H  -3.709180000  -0.561560000   2.093253000
| 18> H  -5.432280000  -0.961520000   2.128066000
| 19> C  -4.714100000  -0.247110000   0.301670000
| 20> N  -4.729750000  -0.234960000  -0.865260000
| 21> C  -1.955700000   2.515080000   1.698463000
| 22> H  -2.923830000   2.883163000   2.049269000
| 23> H  -1.154850000   3.171830000   2.050990000
| 24> H  -1.790380000   1.506115000   2.087896000
| 25> C  -1.948230000   2.482156000   0.253672000
| 26> N  -1.937550000   2.462523000  -0.913150000
| 27> C   1.912641000  -2.468050000  -1.750510000
| 28> H   2.876947000  -2.793500000  -2.151200000
| 29> H   1.688016000  -1.463720000  -2.122170000
| 30> H   1.123460000  -3.154780000  -2.069590000
| 31> C   1.977850000  -2.444240000  -0.306900000
| 32> N   2.036566000  -2.426130000   0.858249000
| 33> *
| 34> 
| 35>                          ****END OF INPUT****
================================================================================

                     *******************************
                     * Energy+Gradient Calculation *
                     *******************************

---------------------------------
CARTESIAN COORDINATES (ANGSTROEM)
---------------------------------
  C     -4.697980   -0.249690    1.746215
  H     -4.927570    0.755530    2.111799
  H     -3.709180   -0.561560    2.093253
  H     -5.432280   -0.961520    2.128066
  C     -4.714100   -0.247110    0.301670
  N     -4.729750   -0.234960   -0.865260
  C     -1.955700    2.515080    1.698463
  H     -2.923830    2.883163    2.049269
  H     -1.154850    3.171830    2.050990
  H     -1.790380    1.506115    2.087896
  C     -1.948230    2.482156    0.253672
  N     -1.937550    2.462523   -0.913150
  C      1.912641   -2.468050   -1.750510
  H      2.876947   -2.793500   -2.151200
  H      1.688016   -1.463720   -2.122170
  H      1.123460   -3.154780   -2.069590
  C      1.977850   -2.444240   -0.306900
  N      2.036566   -2.426130    0.858249

----------------------------
CARTESIAN COORDINATES (A.U.)
----------------------------
  NO LB      ZA    FRAG     MASS         X           Y           Z
   0 C     6.0000    0    12.011   -8.877896   -0.471846    3.299868
   1 H     1.0000    0     1.008   -9.311758    1.427745    3.990722
   2 H     1.0000    0     1.008   -7.009334   -1.061195    3.955675
   3 H     1.0000    0     1.008  -10.265521   -1.817009    4.021462
   4 C     6.0000    0    12.011   -8.908358   -0.466970    0.570074
   5 N     7.0000    0    14.007   -8.937932   -0.444010   -1.635104
   6 C     6.0000    0    12.011   -3.695737    4.752812    3.209630
   7 H     1.0000    0     1.008   -5.525238    5.448388    3.872557
   8 H     1.0000    0     1.008   -2.182350    5.993890    3.875809
   9 H     1.0000    0     1.008   -3.383328    2.846145    3.945552
  10 C     6.0000    0    12.011   -3.681621    4.690595    0.479371
  11 N     7.0000    0    14.007   -3.661439    4.653494   -1.725603
  12 C     6.0000    0    12.011    3.614368   -4.663939   -3.307984
  13 H     1.0000    0     1.008    5.436642   -5.278950   -4.065179
  14 H     1.0000    0     1.008    3.189888   -2.766030   -4.010320
  15 H     1.0000    0     1.008    2.123032   -5.961670   -3.910958
  16 C     6.0000    0    12.011    3.737595   -4.618944   -0.579957
  17 N     7.0000    0    14.007    3.848552   -4.584721    1.621856

--------------------------------
INTERNAL COORDINATES (ANGSTROEM)
--------------------------------
 C      0   0   0     0.000000000000     0.00000000     0.00000000
 H      1   0   0     1.093997476028     0.00000000     0.00000000
 H      1   2   0     1.093354338878   110.23188073     0.00000000
 H      1   2   3     1.091654077582   109.94364040   119.12222513
 C      1   2   3     1.444637244371   109.27900475   240.05041290
 N      5   1   2     1.167098183488   179.48927802   358.44615688
 C      2   1   3     3.478343592616   104.22867607    42.02094339
 H      7   2   1     1.093538129845    51.37214058   176.35579542
 H      7   2   1     1.094055104064   152.97247095   229.39443994
 H      7   2   1     1.094074556470    67.68477476   318.03897180
 C      7   2   1     1.445185394459    96.41278655    66.53540675
 N     11   7   2     1.167036030623   179.58931694   154.52786171
 C     12  11   7     6.311552314162    98.70640354   108.24038428
 H     13  12  11     1.093780709391   144.97049880   243.24871437
 H     13  12  11     1.094196643719    37.13601447   222.07416927
 H     13  12  11     1.093716960672    95.10848064   106.65418781
 C     13  12  11     1.445278160729    83.23114504   357.54432454
 N     17  13  12     1.166768071622   179.69652586   221.34270611

---------------------------
INTERNAL COORDINATES (A.U.)
---------------------------
 C      0   0   0     0.000000000000     0.00000000     0.00000000
 H      1   0   0     2.067355620894     0.00000000     0.00000000
 H      1   2   0     2.066140267815   110.23188073     0.00000000
 H      1   2   3     2.062927239608   109.94364040   119.12222513
 C      1   2   3     2.729968754725   109.27900475   240.05041290
 N      5   1   2     2.205495938188   179.48927802   358.44615688
 C      2   1   3     6.573116789725   104.22867607    42.02094339
 H      7   2   1     2.066487582408    51.37214058   176.35579542
 H      7   2   1     2.067464522100   152.97247095   229.39443994
 H      7   2   1     2.067501281819    67.68477476   318.03897180
 C      7   2   1     2.731004608270    96.41278655    66.53540675
 N     11   7   2     2.205378486297   179.58931694   154.52786171
 C     12  11   7    11.927105353684    98.70640354   108.24038428
 H     13  12  11     2.066945991315   144.97049880   243.24871437
 H     13  12  11     2.067731993284    37.13601447   222.07416927
 H     13  12  11     2.066825523694    95.10848064   106.65418781
 C     13  12  11     2.731179911116    83.23114504   357.54432454
 N     17  13  12     2.204872117169   179.69652586   221.34270611

---------------------
BASIS SET INFORMATION
---------------------
There are 3 groups of distinct atoms

 Group   1 Type C   : 11s6p2d1f contracted to 5s3p2d1f pattern {62111/411/11/1}
 Group   2 Type H   : 5s1p contracted to 3s1p pattern {311/1}
 Group   3 Type N   : 11s6p2d1f contracted to 5s3p2d1f pattern {62111/411/11/1}

Atom   0C    basis set group =>   1
Atom   1H    basis set group =>   2
Atom   2H    basis set group =>   2
Atom   3H    basis set group =>   2
Atom   4C    basis set group =>   1
Atom   5N    basis set group =>   3
Atom   6C    basis set group =>   1
Atom   7H    basis set group =>   2
Atom   8H    basis set group =>   2
Atom   9H    basis set group =>   2
Atom  10C    basis set group =>   1
Atom  11N    basis set group =>   3
Atom  12C    basis set group =>   1
Atom  13H    basis set group =>   2
Atom  14H    basis set group =>   2
Atom  15H    basis set group =>   2
Atom  16C    basis set group =>   1
Atom  17N    basis set group =>   3


           ************************************************************
           *        Program running with 6 parallel MPI-processes     *
           *              working on a common directory               *
           ************************************************************
------------------------------------------------------------------------------
                           ORCA GTO INTEGRAL CALCULATION
------------------------------------------------------------------------------

                         BASIS SET STATISTICS AND STARTUP INFO

 # of primitive gaussian shells          ...  234
 # of primitive gaussian functions       ...  486
 # of contracted shells                  ...  135
 # of contracted basis functions         ...  333
 Highest angular momentum                ...    3
 Maximum contraction depth               ...    6
 Integral package used                   ... LIBINT
 Integral threshhold            Thresh   ...  2.500e-11
 Primitive cut-off              TCut     ...  2.500e-12


------------------------------ INTEGRAL EVALUATION ----------------------------


 * One electron integrals 
 Pre-screening matrix                    ... done
 Shell pair data                         ... done (   0.002 sec)



           ************************************************************
           *        Program running with 6 parallel MPI-processes     *
           *              working on a common directory               *
           ************************************************************
-------------------------------------------------------------------------------
                                 ORCA SCF
-------------------------------------------------------------------------------

------------
SCF SETTINGS
------------
Hamiltonian:
 Ab initio Hamiltonian  Method          .... Hartree-Fock(GTOs)


General Settings:
 Integral files         IntName         .... 12mecn.remya.etal.2.mol1,5,8-orca.engrad-mp2.def2tzvp.frozencore
 Hartree-Fock type      HFTyp           .... RHF
 Total Charge           Charge          ....    0
 Multiplicity           Mult            ....    1
 Number of Electrons    NEL             ....   66
 Basis Dimension        Dim             ....  333
 Nuclear Repulsion      ENuc            ....    310.5745523559 Eh

Convergence Acceleration:
 DIIS                   CNVDIIS         .... on
   Start iteration      DIISMaxIt       ....    12
   Startup error        DIISStart       ....  0.200000
   # of expansion vecs  DIISMaxEq       ....     5
   Bias factor          DIISBfac        ....   1.050
   Max. coefficient     DIISMaxC        ....  10.000
 Newton-Raphson         CNVNR           .... off
 SOSCF                  CNVSOSCF        .... on
   Start iteration      SOSCFMaxIt      ....   150
   Startup grad/error   SOSCFStart      ....  0.003300
 Level Shifting         CNVShift        .... on
   Level shift para.    LevelShift      ....    0.2500
   Turn off err/grad.   ShiftErr        ....    0.0010
 Zerner damping         CNVZerner       .... off
 Static damping         CNVDamp         .... on
   Fraction old density DampFac         ....    0.7000
   Max. Damping (<1)    DampMax         ....    0.9800
   Min. Damping (>=0)   DampMin         ....    0.0000
   Turn off err/grad.   DampErr         ....    0.1000
 Fernandez-Rico         CNVRico         .... off

SCF Procedure:
 Maximum # iterations   MaxIter         ....   125
 SCF integral mode      SCFMode         .... Direct
   Integral package                     .... LIBINT
 Reset frequency        DirectResetFreq ....    20
 Integral Threshold     Thresh          ....  2.500e-11 Eh
 Primitive CutOff       TCut            ....  2.500e-12 Eh

Convergence Tolerance:
 Convergence Check Mode ConvCheckMode   .... Total+1el-Energy
 Convergence forced     ConvForced      .... 1
 Energy Change          TolE            ....  1.000e-08 Eh
 1-El. energy change                    ....  1.000e-05 Eh
 Orbital Gradient       TolG            ....  1.000e-05
 Orbital Rotation angle TolX            ....  1.000e-05
 DIIS Error             TolErr          ....  5.000e-07


Diagonalization of the overlap matrix:
Smallest eigenvalue                        ... 1.385e-04
Time for diagonalization                   ...    0.016 sec
Threshold for overlap eigenvalues          ... 1.000e-08
Number of eigenvalues below threshold      ... 0
Time for construction of square roots      ...    0.009 sec
Total time needed                          ...    0.025 sec

-------------------
DFT GRID GENERATION
-------------------

General Integration Accuracy     IntAcc      ...  4.340
Radial Grid Type                 RadialGrid  ... Gauss-Chebyshev
Angular Grid (max. acc.)         AngularGrid ... Lebedev-110
Angular grid pruning method      GridPruning ... 3 (G Style)
Weight generation scheme         WeightScheme... Becke
Basis function cutoff            BFCut       ...    1.0000e-11
Integration weight cutoff        WCut        ...    1.0000e-14
Grids for H and He will be reduced by one unit

# of grid points (after initial pruning)     ...  22188 (   0.0 sec)
# of grid points (after weights+screening)   ...  20968 (   0.0 sec)
nearest neighbour list constructed           ...    0.0 sec
Grid point re-assignment to atoms done       ...    0.0 sec
Grid point division into batches done        ...    0.0 sec
Reduced shell lists constructed in    0.0 sec

Total number of grid points                  ...    20968
Total number of batches                      ...      338
Average number of points per batch           ...       62
Average number of grid points per atom       ...     1165
Average number of shells per batch           ...    64.72 (47.94%)
Average number of basis functions per batch  ...   151.86 (45.60%)
Average number of large shells per batch     ...    46.14 (71.28%)
Average number of large basis fcns per batch ...   107.62 (70.87%)
Maximum spatial batch extension              ...  17.55, 17.58, 19.63 au
Average spatial batch extension              ...   0.65,  0.66,  0.74 au

Time for grid setup =    0.074 sec

------------------------------
INITIAL GUESS: MODEL POTENTIAL
------------------------------
Loading Hartree-Fock densities                     ... done
Calculating cut-offs                               ... done
Setting up the integral package                    ... done
Initializing the effective Hamiltonian             ... done
Starting the Coulomb interaction                   ... done (   0.0 sec)
Reading the grid                                   ... done
Mapping shells                                     ... done
Starting the XC term evaluation                    ... done (   0.0 sec)
Transforming the Hamiltonian                       ... done (   0.0 sec)
Diagonalizing the Hamiltonian                      ... done (   0.0 sec)
Back transforming the eigenvectors                 ... done (   0.0 sec)
Now organizing SCF variables                       ... done
                      ------------------
                      INITIAL GUESS DONE (   0.3 sec)
                      ------------------
--------------
SCF ITERATIONS
--------------
ITER       Energy         Delta-E        Max-DP      RMS-DP      [F,P]     Damp
               ***  Starting incremental Fock matrix formation  ***
  0   -395.4152199931   0.000000000000 0.03826664  0.00088270  0.2875422 0.7000
  1   -395.5971111839  -0.181891190774 0.02735476  0.00070188  0.1880613 0.7000
                               ***Turning on DIIS***
  2   -395.7028066048  -0.105695420954 0.01621010  0.00045579  0.1423099 0.7000
  3   -396.6488047313  -0.945998126466 0.00994559  0.00029108  0.1057270 0.7000
  4   -396.6072292444   0.041575486895 0.02669703  0.00071131  0.0744762 0.0000
  5   -395.9494999686   0.657729275835 0.00654672  0.00012728  0.0063848 0.0000
                      *** Initiating the SOSCF procedure ***
                           *** Shutting down DIIS ***
                      *** Re-Reading the Fockian *** 
                      *** Removing any level shift *** 
ITER      Energy       Delta-E        Grad      Rot      Max-DP    RMS-DP
  6   -395.93149135   0.0180086136  0.001274  0.001274  0.004415  0.000079
               *** Restarting incremental Fock matrix formation ***
  7   -395.92022079   0.0112705670  0.000417  0.000607  0.003084  0.000056
  8   -395.92023948  -0.0000186880  0.000330  0.000529  0.002557  0.000047
  9   -395.92024332  -0.0000038429  0.000129  0.000158  0.000822  0.000014
 10   -395.92024412  -0.0000007970  0.000013  0.000016  0.000072  0.000001
 11   -395.92024412  -0.0000000087  0.000011  0.000013  0.000024  0.000000
 12   -395.92024413  -0.0000000006  0.000003  0.000004  0.000013  0.000000
                  ***Gradient check signals convergence***
              ***Rediagonalizing the Fockian in SOSCF/NRSCF***

               *****************************************************
               *                     SUCCESS                       *
               *           SCF CONVERGED AFTER  13 CYCLES          *
               *****************************************************


----------------
TOTAL SCF ENERGY
----------------

Total Energy       :         -395.92024413 Eh          -10773.53756 eV

Components:
Nuclear Repulsion  :          310.57455236 Eh            8451.16322 eV
Electronic Energy  :         -706.49479648 Eh          -19224.70078 eV
One Electron Energy:        -1150.01035703 Eh          -31293.37274 eV
Two Electron Energy:          443.51556055 Eh           12068.67196 eV

Virial components:
Potential Energy   :         -791.04321692 Eh          -21525.38026 eV
Kinetic Energy     :          395.12297279 Eh           10751.84270 eV
Virial Ratio       :            2.00201778


---------------
SCF CONVERGENCE
---------------

  Last Energy change         ...   -1.6385e-09  Tolerance :   1.0000e-08
  Last MAX-Density change    ...    4.9882e-06  Tolerance :   1.0000e-07
  Last RMS-Density change    ...    8.4437e-08  Tolerance :   5.0000e-09
  Last Orbital Gradient      ...    1.0901e-06  Tolerance :   1.0000e-05
  Last Orbital Rotation      ...    1.3010e-06  Tolerance :   1.0000e-05

             **** THE GBW FILE WAS UPDATED (12mecn.remya.etal.2.mol1,5,8-orca.engrad-mp2.def2tzvp.frozencore.gbw) ****
             **** DENSITY FILE WAS UPDATED (12mecn.remya.etal.2.mol1,5,8-orca.engrad-mp2.def2tzvp.frozencore.scfp) ****
             **** ENERGY FILE WAS UPDATED (12mecn.remya.etal.2.mol1,5,8-orca.engrad-mp2.def2tzvp.frozencore.en.tmp) ****
             **** THE GBW FILE WAS UPDATED (12mecn.remya.etal.2.mol1,5,8-orca.engrad-mp2.def2tzvp.frozencore.gbw) ****
             **** DENSITY FILE WAS UPDATED (12mecn.remya.etal.2.mol1,5,8-orca.engrad-mp2.def2tzvp.frozencore.scfp) ****
----------------
ORBITAL ENERGIES
----------------

  NO   OCC          E(Eh)            E(eV) 
   0   2.0000     -15.572764      -423.7564 
   1   2.0000     -15.572238      -423.7421 
   2   2.0000     -15.572103      -423.7385 
   3   2.0000     -11.289139      -307.1931 
   4   2.0000     -11.288589      -307.1781 
   5   2.0000     -11.281580      -306.9874 
   6   2.0000     -11.279912      -306.9420 
   7   2.0000     -11.278111      -306.8930 
   8   2.0000     -11.277858      -306.8861 
   9   2.0000      -1.214009       -33.0349 
  10   2.0000      -1.213322       -33.0162 
  11   2.0000      -1.212308       -32.9886 
  12   2.0000      -1.048251       -28.5244 
  13   2.0000      -1.045418       -28.4473 
  14   2.0000      -1.040942       -28.3255 
  15   2.0000      -0.703663       -19.1477 
  16   2.0000      -0.700773       -19.0690 
  17   2.0000      -0.696880       -18.9631 
  18   2.0000      -0.641880       -17.4664 
  19   2.0000      -0.638750       -17.3813 
  20   2.0000      -0.633719       -17.2444 
  21   2.0000      -0.629597       -17.1322 
  22   2.0000      -0.628497       -17.1023 
  23   2.0000      -0.627383       -17.0719 
  24   2.0000      -0.555819       -15.1246 
  25   2.0000      -0.554797       -15.0968 
  26   2.0000      -0.552961       -15.0468 
  27   2.0000      -0.462257       -12.5787 
  28   2.0000      -0.457652       -12.4533 
  29   2.0000      -0.457145       -12.4396 
  30   2.0000      -0.456804       -12.4303 
  31   2.0000      -0.455092       -12.3837 
  32   2.0000      -0.449379       -12.2282 
  33   0.0000       0.096242         2.6189 
  34   0.0000       0.122829         3.3423 
  35   0.0000       0.144201         3.9239 
  36   0.0000       0.148368         4.0373 
  37   0.0000       0.156261         4.2521 
  38   0.0000       0.173885         4.7316 
  39   0.0000       0.174631         4.7520 
  40   0.0000       0.184545         5.0217 
  41   0.0000       0.188285         5.1235 
  42   0.0000       0.190680         5.1887 
  43   0.0000       0.200426         5.4539 
  44   0.0000       0.209991         5.7141 
  45   0.0000       0.214874         5.8470 
  46   0.0000       0.222406         6.0520 
  47   0.0000       0.226722         6.1694 
  48   0.0000       0.232424         6.3246 
  49   0.0000       0.245763         6.6876 
  50   0.0000       0.250043         6.8040 
  51   0.0000       0.267005         7.2656 
  52   0.0000       0.279252         7.5988 
  53   0.0000       0.284772         7.7490 
  54   0.0000       0.295812         8.0495 
  55   0.0000       0.320266         8.7149 
  56   0.0000       0.323814         8.8114 
  57   0.0000       0.326854         8.8941 
  58   0.0000       0.334010         9.0889 
  59   0.0000       0.362814         9.8727 
  60   0.0000       0.372828        10.1452 
  61   0.0000       0.382407        10.4058 
  62   0.0000       0.383573        10.4376 
  63   0.0000       0.395255        10.7554 
  64   0.0000       0.405517        11.0347 
  65   0.0000       0.410077        11.1588 
  66   0.0000       0.436430        11.8759 
  67   0.0000       0.476096        12.9552 
  68   0.0000       0.480238        13.0679 
  69   0.0000       0.498900        13.5758 
  70   0.0000       0.520996        14.1770 
  71   0.0000       0.531222        14.4553 
  72   0.0000       0.533245        14.5103 
  73   0.0000       0.534436        14.5428 
  74   0.0000       0.564524        15.3615 
  75   0.0000       0.581113        15.8129 
  76   0.0000       0.588724        16.0200 
  77   0.0000       0.591962        16.1081 
  78   0.0000       0.597815        16.2674 
  79   0.0000       0.602489        16.3946 
  80   0.0000       0.603463        16.4211 
  81   0.0000       0.611978        16.6528 
  82   0.0000       0.619349        16.8533 
  83   0.0000       0.624479        16.9929 
  84   0.0000       0.640735        17.4353 
  85   0.0000       0.654104        17.7991 
  86   0.0000       0.660276        17.9670 
  87   0.0000       0.660348        17.9690 
  88   0.0000       0.693261        18.8646 
  89   0.0000       0.706283        19.2189 
  90   0.0000       0.719443        19.5770 
  91   0.0000       0.744404        20.2563 
  92   0.0000       0.804609        21.8945 
  93   0.0000       0.810648        22.0589 
  94   0.0000       0.813529        22.1372 
  95   0.0000       0.814947        22.1758 
  96   0.0000       0.815891        22.2015 
  97   0.0000       0.816258        22.2115 
  98   0.0000       0.816400        22.2154 
  99   0.0000       0.832600        22.6562 
 100   0.0000       0.852549        23.1990 
 101   0.0000       0.906143        24.6574 
 102   0.0000       0.920402        25.0454 
 103   0.0000       0.921537        25.0763 
 104   0.0000       0.922523        25.1031 
 105   0.0000       0.923558        25.1313 
 106   0.0000       0.927884        25.2490 
 107   0.0000       0.966545        26.3010 
 108   0.0000       1.030776        28.0488 
 109   0.0000       1.034383        28.1470 
 110   0.0000       1.048879        28.5415 
 111   0.0000       1.119668        30.4677 
 112   0.0000       1.122701        30.5502 
 113   0.0000       1.126224        30.6461 
 114   0.0000       1.127658        30.6851 
 115   0.0000       1.169210        31.8158 
 116   0.0000       1.176797        32.0223 
 117   0.0000       1.316451        35.8225 
 118   0.0000       1.324697        36.0468 
 119   0.0000       1.333097        36.2754 
 120   0.0000       1.417296        38.5666 
 121   0.0000       1.420395        38.6509 
 122   0.0000       1.423105        38.7246 
 123   0.0000       1.424774        38.7701 
 124   0.0000       1.427964        38.8569 
 125   0.0000       1.449592        39.4454 
 126   0.0000       1.449873        39.4530 
 127   0.0000       1.455426        39.6042 
 128   0.0000       1.471325        40.0368 
 129   0.0000       1.471630        40.0451 
 130   0.0000       1.472393        40.0658 
 131   0.0000       1.473434        40.0942 
 132   0.0000       1.476418        40.1754 
 133   0.0000       1.481362        40.3099 
 134   0.0000       1.504928        40.9512 
 135   0.0000       1.505931        40.9785 
 136   0.0000       1.511939        41.1420 
 137   0.0000       1.589688        43.2576 
 138   0.0000       1.688937        45.9583 
 139   0.0000       1.699136        46.2358 
 140   0.0000       1.700592        46.2755 
 141   0.0000       1.713079        46.6153 
 142   0.0000       1.725487        46.9529 
 143   0.0000       1.739373        47.3307 
 144   0.0000       1.742452        47.4145 
 145   0.0000       1.746382        47.5215 
 146   0.0000       1.749514        47.6067 
 147   0.0000       1.753273        47.7090 
 148   0.0000       1.766693        48.0742 
 149   0.0000       1.773898        48.2702 
 150   0.0000       1.801562        49.0230 
 151   0.0000       1.805324        49.1254 
 152   0.0000       1.805686        49.1352 
 153   0.0000       1.808185        49.2032 
 154   0.0000       1.826284        49.6957 
 155   0.0000       1.891042        51.4579 
 156   0.0000       1.924303        52.3630 
 157   0.0000       1.930510        52.5318 
 158   0.0000       1.935919        52.6790 
 159   0.0000       1.936661        52.6992 
 160   0.0000       1.948281        53.0154 
 161   0.0000       1.963997        53.4431 
 162   0.0000       1.971924        53.6588 
 163   0.0000       1.979161        53.8557 
 164   0.0000       1.995781        54.3080 
 165   0.0000       2.219617        60.3988 
 166   0.0000       2.225870        60.5690 
 167   0.0000       2.229246        60.6609 
 168   0.0000       2.240315        60.9621 
 169   0.0000       2.241781        61.0019 
 170   0.0000       2.245670        61.1078 
 171   0.0000       2.247703        61.1631 
 172   0.0000       2.262662        61.5702 
 173   0.0000       2.274885        61.9028 
 174   0.0000       2.345172        63.8154 
 175   0.0000       2.383172        64.8494 
 176   0.0000       2.451846        66.7181 
 177   0.0000       2.539639        69.1071 
 178   0.0000       2.545886        69.2771 
 179   0.0000       2.550689        69.4078 
 180   0.0000       2.553590        69.4867 
 181   0.0000       2.554509        69.5117 
 182   0.0000       2.572745        70.0080 
 183   0.0000       2.585545        70.3563 
 184   0.0000       2.593276        70.5666 
 185   0.0000       2.618371        71.2495 
 186   0.0000       2.620732        71.3137 
 187   0.0000       2.622940        71.3738 
 188   0.0000       2.627215        71.4902 
 189   0.0000       2.629158        71.5430 
 190   0.0000       2.644885        71.9710 
 191   0.0000       2.660564        72.3976 
 192   0.0000       2.704670        73.5978 
 193   0.0000       2.710215        73.7487 
 194   0.0000       2.726585        74.1942 
 195   0.0000       2.739353        74.5416 
 196   0.0000       2.742219        74.6196 
 197   0.0000       2.744967        74.6944 
 198   0.0000       2.746148        74.7265 
 199   0.0000       2.754088        74.9425 
 200   0.0000       2.802062        76.2480 
 201   0.0000       2.913194        79.2720 
 202   0.0000       2.914220        79.3000 
 203   0.0000       2.914375        79.3042 
 204   0.0000       2.914704        79.3131 
 205   0.0000       2.915109        79.3241 
 206   0.0000       2.916161        79.3528 
 207   0.0000       2.941213        80.0345 
 208   0.0000       2.949516        80.2604 
 209   0.0000       2.950016        80.2740 
 210   0.0000       2.954375        80.3926 
 211   0.0000       2.954916        80.4074 
 212   0.0000       2.965690        80.7005 
 213   0.0000       3.013782        82.0092 
 214   0.0000       3.025061        82.3161 
 215   0.0000       3.036893        82.6381 
 216   0.0000       3.080579        83.8268 
 217   0.0000       3.091492        84.1238 
 218   0.0000       3.094426        84.2036 
 219   0.0000       3.095243        84.2258 
 220   0.0000       3.098662        84.3189 
 221   0.0000       3.100976        84.3818 
 222   0.0000       3.216213        87.5176 
 223   0.0000       3.237171        88.0879 
 224   0.0000       3.238954        88.1364 
 225   0.0000       3.244155        88.2779 
 226   0.0000       3.245715        88.3204 
 227   0.0000       3.246574        88.3438 
 228   0.0000       3.253368        88.5286 
 229   0.0000       3.256224        88.6064 
 230   0.0000       3.296608        89.7053 
 231   0.0000       3.322517        90.4103 
 232   0.0000       3.330703        90.6330 
 233   0.0000       3.333193        90.7008 
 234   0.0000       3.335636        90.7673 
 235   0.0000       3.336651        90.7949 
 236   0.0000       3.386460        92.1503 
 237   0.0000       3.432601        93.4058 
 238   0.0000       3.446261        93.7775 
 239   0.0000       3.448279        93.8324 
 240   0.0000       3.456870        94.0662 
 241   0.0000       3.469026        94.3970 
 242   0.0000       3.471628        94.4678 
 243   0.0000       3.488168        94.9179 
 244   0.0000       3.506457        95.4156 
 245   0.0000       3.539708        96.3203 
 246   0.0000       3.627333        98.7047 
 247   0.0000       3.636042        98.9417 
 248   0.0000       3.651125        99.3522 
 249   0.0000       3.654953        99.4563 
 250   0.0000       3.656813        99.5069 
 251   0.0000       3.658463        99.5518 
 252   0.0000       3.798710       103.3681 
 253   0.0000       3.801437       103.4424 
 254   0.0000       3.802684       103.4763 
 255   0.0000       3.803367       103.4949 
 256   0.0000       3.805440       103.5513 
 257   0.0000       3.808143       103.6248 
 258   0.0000       3.926290       106.8398 
 259   0.0000       3.931005       106.9681 
 260   0.0000       3.932286       107.0029 
 261   0.0000       3.941489       107.2534 
 262   0.0000       3.944396       107.3325 
 263   0.0000       3.951994       107.5392 
 264   0.0000       3.955127       107.6245 
 265   0.0000       3.959948       107.7557 
 266   0.0000       4.001644       108.8903 
 267   0.0000       4.238384       115.3323 
 268   0.0000       4.244346       115.4945 
 269   0.0000       4.246618       115.5564 
 270   0.0000       4.250915       115.6733 
 271   0.0000       4.255717       115.8039 
 272   0.0000       4.274911       116.3262 
 273   0.0000       4.342394       118.1625 
 274   0.0000       4.343936       118.2045 
 275   0.0000       4.344784       118.2276 
 276   0.0000       4.347150       118.2920 
 277   0.0000       4.348569       118.3306 
 278   0.0000       4.348962       118.3413 
 279   0.0000       4.556902       123.9996 
 280   0.0000       4.566775       124.2683 
 281   0.0000       4.573552       124.4527 
 282   0.0000       4.731029       128.7379 
 283   0.0000       4.741793       129.0307 
 284   0.0000       4.746122       129.1485 
 285   0.0000       4.752372       129.3186 
 286   0.0000       4.754558       129.3781 
 287   0.0000       4.794474       130.4643 
 288   0.0000       4.824459       131.2802 
 289   0.0000       4.841415       131.7416 
 290   0.0000       4.885971       132.9540 
 291   0.0000       4.961511       135.0096 
 292   0.0000       4.962040       135.0240 
 293   0.0000       4.962084       135.0252 
 294   0.0000       4.962650       135.0406 
 295   0.0000       4.963752       135.0706 
 296   0.0000       4.972283       135.3027 
 297   0.0000       5.067386       137.8906 
 298   0.0000       5.067991       137.9070 
 299   0.0000       5.068243       137.9139 
 300   0.0000       5.068825       137.9298 
 301   0.0000       5.069263       137.9416 
 302   0.0000       5.080448       138.2460 
 303   0.0000       5.190456       141.2395 
 304   0.0000       5.202051       141.5550 
 305   0.0000       5.250070       142.8617 
 306   0.0000       5.553829       151.1274 
 307   0.0000       5.555715       151.1787 
 308   0.0000       5.557646       151.2312 
 309   0.0000       5.558050       151.2422 
 310   0.0000       5.565079       151.4335 
 311   0.0000       5.590263       152.1188 
 312   0.0000       6.020531       163.8270 
 313   0.0000       6.023162       163.8986 
 314   0.0000       6.031199       164.1173 
 315   0.0000       6.083717       165.5463 
 316   0.0000       6.088115       165.6660 
 317   0.0000       6.089670       165.7084 
 318   0.0000       6.094118       165.8294 
 319   0.0000       6.097880       165.9318 
 320   0.0000       6.117997       166.4792 
 321   0.0000       6.459247       175.7650 
 322   0.0000       6.465276       175.9291 
 323   0.0000       6.475951       176.2196 
 324   0.0000      23.468407       638.6078 
 325   0.0000      23.470133       638.6548 
 326   0.0000      23.543001       640.6376 
 327   0.0000      24.375487       663.2907 
 328   0.0000      24.382303       663.4762 
 329   0.0000      24.409609       664.2192 
 330   0.0000      33.389854       908.5841 
 331   0.0000      33.411268       909.1668 
 332   0.0000      33.438191       909.8994 

                    ********************************
                    * MULLIKEN POPULATION ANALYSIS *
                    ********************************

-----------------------
MULLIKEN ATOMIC CHARGES
-----------------------
   0 C :   -0.170217
   1 H :    0.146590
   2 H :    0.152592
   3 H :    0.167281
   4 C :   -0.119399
   5 N :   -0.176914
   6 C :   -0.167291
   7 H :    0.148337
   8 H :    0.168099
   9 H :    0.149511
  10 C :   -0.118418
  11 N :   -0.180161
  12 C :   -0.164758
  13 H :    0.154264
  14 H :    0.163740
  15 H :    0.157341
  16 C :   -0.102398
  17 N :   -0.208198
Sum of atomic charges:   -0.0000000

--------------------------------
MULLIKEN REDUCED ORBITAL CHARGES
--------------------------------
  0 C s       :     3.141945  s :     3.141945
      pz      :     0.797768  p :     2.961502
      px      :     1.087019
      py      :     1.076716
      dz2     :     0.017963  d :     0.063298
      dxz     :     0.011614
      dyz     :     0.011988
      dx2y2   :     0.010721
      dxy     :     0.011011
      f0      :     0.001715  f :     0.003473
      f+1     :     0.000209
      f-1     :     0.000208
      f+2     :     0.000043
      f-2     :     0.000089
      f+3     :     0.000486
      f-3     :     0.000722
  1 H s       :     0.831203  s :     0.831203
      pz      :     0.004829  p :     0.022207
      px      :     0.004160
      py      :     0.013218
  2 H s       :     0.825084  s :     0.825084
      pz      :     0.004727  p :     0.022324
      px      :     0.012949
      py      :     0.004648
  3 H s       :     0.810223  s :     0.810223
      pz      :     0.004969  p :     0.022497
      px      :     0.008916
      py      :     0.008611
  4 C s       :     3.236363  s :     3.236363
      pz      :     0.963306  p :     2.752959
      px      :     0.893869
      py      :     0.895784
      dz2     :     0.027070  d :     0.112682
      dxz     :     0.042609
      dyz     :     0.042436
      dx2y2   :     0.000307
      dxy     :     0.000261
      f0      :     0.004137  f :     0.017395
      f+1     :     0.006597
      f-1     :     0.006594
      f+2     :     0.000038
      f-2     :     0.000029
      f+3     :     0.000000
      f-3     :     0.000000
  5 N s       :     3.720027  s :     3.720027
      pz      :     1.285345  p :     3.398605
      px      :     1.057616
      py      :     1.055645
      dz2     :     0.011778  d :     0.055319
      dxz     :     0.021752
      dyz     :     0.021772
      dx2y2   :     0.000006
      dxy     :     0.000010
      f0      :     0.000620  f :     0.002962
      f+1     :     0.001170
      f-1     :     0.001170
      f+2     :     0.000001
      f-2     :     0.000001
      f+3     :     0.000000
      f-3     :     0.000000
  6 C s       :     3.141233  s :     3.141233
      pz      :     0.797098  p :     2.959453
      px      :     1.083110
      py      :     1.079245
      dz2     :     0.017935  d :     0.063133
      dxz     :     0.011386
      dyz     :     0.012062
      dx2y2   :     0.010653
      dxy     :     0.011097
      f0      :     0.001711  f :     0.003472
      f+1     :     0.000210
      f-1     :     0.000209
      f+2     :     0.000063
      f-2     :     0.000067
      f+3     :     0.000264
      f-3     :     0.000947
  7 H s       :     0.829428  s :     0.829428
      pz      :     0.004734  p :     0.022235
      px      :     0.012514
      py      :     0.004987
  8 H s       :     0.809480  s :     0.809480
      pz      :     0.004713  p :     0.022421
      px      :     0.009883
      py      :     0.007824
  9 H s       :     0.828214  s :     0.828214
      pz      :     0.005042  p :     0.022275
      px      :     0.003941
      py      :     0.013293
 10 C s       :     3.237207  s :     3.237207
      pz      :     0.964335  p :     2.751130
      px      :     0.893623
      py      :     0.893172
      dz2     :     0.027097  d :     0.112700
      dxz     :     0.042273
      dyz     :     0.042756
      dx2y2   :     0.000215
      dxy     :     0.000359
      f0      :     0.004134  f :     0.017382
      f+1     :     0.006578
      f-1     :     0.006597
      f+2     :     0.000029
      f-2     :     0.000043
      f+3     :     0.000000
      f-3     :     0.000000
 11 N s       :     3.718984  s :     3.718984
      pz      :     1.286210  p :     3.402942
      px      :     1.058037
      py      :     1.058696
      dz2     :     0.011771  d :     0.055269
      dxz     :     0.021745
      dyz     :     0.021730
      dx2y2   :     0.000010
      dxy     :     0.000013
      f0      :     0.000621  f :     0.002965
      f+1     :     0.001172
      f-1     :     0.001170
      f+2     :     0.000001
      f-2     :     0.000001
      f+3     :     0.000000
      f-3     :     0.000000
 12 C s       :     3.150244  s :     3.150244
      pz      :     0.790393  p :     2.949638
      px      :     1.073488
      py      :     1.085757
      dz2     :     0.017970  d :     0.061411
      dxz     :     0.011071
      dyz     :     0.010819
      dx2y2   :     0.010338
      dxy     :     0.011213
      f0      :     0.001704  f :     0.003464
      f+1     :     0.000211
      f-1     :     0.000198
      f+2     :     0.000066
      f-2     :     0.000059
      f+3     :     0.000402
      f-3     :     0.000824
 13 H s       :     0.823381  s :     0.823381
      pz      :     0.005151  p :     0.022354
      px      :     0.012522
      py      :     0.004681
 14 H s       :     0.813800  s :     0.813800
      pz      :     0.004911  p :     0.022459
      px      :     0.004172
      py      :     0.013376
 15 H s       :     0.820233  s :     0.820233
      pz      :     0.004527  p :     0.022426
      px      :     0.009712
      py      :     0.008188
 16 C s       :     3.236451  s :     3.236451
      pz      :     0.971938  p :     2.734473
      px      :     0.881878
      py      :     0.880657
      dz2     :     0.026522  d :     0.114158
      dxz     :     0.043396
      dyz     :     0.043451
      dx2y2   :     0.000184
      dxy     :     0.000605
      f0      :     0.004143  f :     0.017316
      f+1     :     0.006497
      f-1     :     0.006530
      f+2     :     0.000056
      f-2     :     0.000090
      f+3     :     0.000000
      f-3     :     0.000000
 17 N s       :     3.712349  s :     3.712349
      pz      :     1.289590  p :     3.438039
      px      :     1.074133
      py      :     1.074316
      dz2     :     0.011707  d :     0.054839
      dxz     :     0.021479
      dyz     :     0.021529
      dx2y2   :     0.000066
      dxy     :     0.000059
      f0      :     0.000632  f :     0.002971
      f+1     :     0.001157
      f-1     :     0.001165
      f+2     :     0.000008
      f-2     :     0.000008
      f+3     :     0.000000
      f-3     :     0.000000


                     *******************************
                     * LOEWDIN POPULATION ANALYSIS *
                     *******************************

----------------------
LOEWDIN ATOMIC CHARGES
----------------------
   0 C :   -0.248901
   1 H :    0.140933
   2 H :    0.142347
   3 H :    0.144490
   4 C :   -0.204904
   5 N :    0.026045
   6 C :   -0.248408
   7 H :    0.140992
   8 H :    0.145974
   9 H :    0.141493
  10 C :   -0.204102
  11 N :    0.024043
  12 C :   -0.243310
  13 H :    0.144032
  14 H :    0.147089
  15 H :    0.145151
  16 C :   -0.197149
  17 N :    0.004184

-------------------------------
LOEWDIN REDUCED ORBITAL CHARGES
-------------------------------
  0 C s       :     2.813047  s :     2.813047
      pz      :     1.028765  p :     3.145362
      px      :     1.060467
      py      :     1.056130
      dz2     :     0.077115  d :     0.264887
      dxz     :     0.061984
      dyz     :     0.063710
      dx2y2   :     0.031624
      dxy     :     0.030454
      f0      :     0.007328  f :     0.025605
      f+1     :     0.005305
      f-1     :     0.005231
      f+2     :     0.002138
      f-2     :     0.002306
      f+3     :     0.001329
      f-3     :     0.001968
  1 H s       :     0.798760  s :     0.798760
      pz      :     0.012656  p :     0.060306
      px      :     0.013388
      py      :     0.034262
  2 H s       :     0.797058  s :     0.797058
      pz      :     0.012462  p :     0.060595
      px      :     0.033726
      py      :     0.014406
  3 H s       :     0.794475  s :     0.794475
      pz      :     0.013031  p :     0.061035
      px      :     0.024420
      py      :     0.023584
  4 C s       :     2.837626  s :     2.837626
      pz      :     1.190677  p :     2.861706
      px      :     0.835204
      py      :     0.835825
      dz2     :     0.155109  d :     0.446940
      dxz     :     0.145888
      dyz     :     0.145241
      dx2y2   :     0.000394
      dxy     :     0.000308
      f0      :     0.023168  f :     0.058633
      f+1     :     0.017682
      f-1     :     0.017652
      f+2     :     0.000076
      f-2     :     0.000053
      f+3     :     0.000001
      f-3     :     0.000001
  5 N s       :     3.314328  s :     3.314328
      pz      :     1.494758  p :     3.532514
      px      :     1.019596
      py      :     1.018161
      dz2     :     0.045992  d :     0.112649
      dxz     :     0.033278
      dyz     :     0.033346
      dx2y2   :     0.000011
      dxy     :     0.000021
      f0      :     0.006224  f :     0.014464
      f+1     :     0.004114
      f-1     :     0.004119
      f+2     :     0.000003
      f-2     :     0.000003
      f+3     :     0.000000
      f-3     :     0.000000
  6 C s       :     2.813689  s :     2.813689
      pz      :     1.028382  p :     3.144755
      px      :     1.057992
      py      :     1.058381
      dz2     :     0.077178  d :     0.264415
      dxz     :     0.061276
      dyz     :     0.063834
      dx2y2   :     0.030851
      dxy     :     0.031276
      f0      :     0.007321  f :     0.025549
      f+1     :     0.005380
      f-1     :     0.005131
      f+2     :     0.002352
      f-2     :     0.002076
      f+3     :     0.000718
      f-3     :     0.002571
  7 H s       :     0.798578  s :     0.798578
      pz      :     0.012469  p :     0.060430
      px      :     0.032688
      py      :     0.015273
  8 H s       :     0.793353  s :     0.793353
      pz      :     0.012482  p :     0.060673
      px      :     0.026468
      py      :     0.021723
  9 H s       :     0.798033  s :     0.798033
      pz      :     0.013035  p :     0.060474
      px      :     0.012832
      py      :     0.034607
 10 C s       :     2.837941  s :     2.837941
      pz      :     1.190860  p :     2.860480
      px      :     0.834822
      py      :     0.834797
      dz2     :     0.155065  d :     0.447034
      dxz     :     0.145243
      dyz     :     0.145970
      dx2y2   :     0.000208
      dxy     :     0.000548
      f0      :     0.023151  f :     0.058648
      f+1     :     0.017639
      f-1     :     0.017713
      f+2     :     0.000045
      f-2     :     0.000098
      f+3     :     0.000001
      f-3     :     0.000001
 11 N s       :     3.314185  s :     3.314185
      pz      :     1.494877  p :     3.534873
      px      :     1.019777
      py      :     1.020219
      dz2     :     0.045975  d :     0.112443
      dxz     :     0.033231
      dyz     :     0.033197
      dx2y2   :     0.000016
      dxy     :     0.000024
      f0      :     0.006227  f :     0.014456
      f+1     :     0.004112
      f-1     :     0.004109
      f+2     :     0.000004
      f-2     :     0.000004
      f+3     :     0.000000
      f-3     :     0.000000
 12 C s       :     2.814800  s :     2.814800
      pz      :     1.023520  p :     3.142428
      px      :     1.057479
      py      :     1.061429
      dz2     :     0.078218  d :     0.260767
      dxz     :     0.061303
      dyz     :     0.059615
      dx2y2   :     0.028851
      dxy     :     0.032781
      f0      :     0.007386  f :     0.025315
      f+1     :     0.005085
      f-1     :     0.005163
      f+2     :     0.002417
      f-2     :     0.001991
      f+3     :     0.001075
      f-3     :     0.002199
 13 H s       :     0.795300  s :     0.795300
      pz      :     0.013237  p :     0.060668
      px      :     0.032860
      py      :     0.014571
 14 H s       :     0.791980  s :     0.791980
      pz      :     0.012764  p :     0.060932
      px      :     0.013252
      py      :     0.034916
 15 H s       :     0.794051  s :     0.794051
      pz      :     0.012016  p :     0.060798
      px      :     0.026083
      py      :     0.022699
 16 C s       :     2.839865  s :     2.839865
      pz      :     1.192889  p :     2.847510
      px      :     0.827758
      py      :     0.826863
      dz2     :     0.154015  d :     0.450924
      dxz     :     0.147727
      dyz     :     0.147836
      dx2y2   :     0.000242
      dxy     :     0.001105
      f0      :     0.022958  f :     0.058849
      f+1     :     0.017814
      f-1     :     0.017737
      f+2     :     0.000125
      f-2     :     0.000214
      f+3     :     0.000001
      f-3     :     0.000001
 17 N s       :     3.313989  s :     3.313989
      pz      :     1.494933  p :     3.556968
      px      :     1.031267
      py      :     1.030768
      dz2     :     0.045708  d :     0.110551
      dxz     :     0.032387
      dyz     :     0.032271
      dx2y2   :     0.000097
      dxy     :     0.000088
      f0      :     0.006207  f :     0.014309
      f+1     :     0.004039
      f-1     :     0.004006
      f+2     :     0.000029
      f-2     :     0.000027
      f+3     :     0.000000
      f-3     :     0.000000


                      *****************************
                      * MAYER POPULATION ANALYSIS *
                      *****************************

  NA   - Mulliken gross atomic population
  ZA   - Total nuclear charge
  QA   - Mulliken gross atomic charge
  VA   - Mayer's total valence
  BVA  - Mayer's bonded valence
  FA   - Mayer's free valence

  ATOM       NA         ZA         QA         VA         BVA        FA
  0 C      6.1702     6.0000    -0.1702     3.8145     3.8145     0.0000
  1 H      0.8534     1.0000     0.1466     0.9623     0.9623     0.0000
  2 H      0.8474     1.0000     0.1526     0.9624     0.9624     0.0000
  3 H      0.8327     1.0000     0.1673     0.9606     0.9606     0.0000
  4 C      6.1194     6.0000    -0.1194     3.9099     3.9099    -0.0000
  5 N      7.1769     7.0000    -0.1769     3.0333     3.0333    -0.0000
  6 C      6.1673     6.0000    -0.1673     3.8139     3.8139    -0.0000
  7 H      0.8517     1.0000     0.1483     0.9630     0.9630     0.0000
  8 H      0.8319     1.0000     0.1681     0.9606     0.9606    -0.0000
  9 H      0.8505     1.0000     0.1495     0.9621     0.9621    -0.0000
 10 C      6.1184     6.0000    -0.1184     3.9131     3.9131    -0.0000
 11 N      7.1802     7.0000    -0.1802     3.0341     3.0341    -0.0000
 12 C      6.1648     6.0000    -0.1648     3.8025     3.8025     0.0000
 13 H      0.8457     1.0000     0.1543     0.9616     0.9616     0.0000
 14 H      0.8363     1.0000     0.1637     0.9612     0.9612    -0.0000
 15 H      0.8427     1.0000     0.1573     0.9623     0.9623    -0.0000
 16 C      6.1024     6.0000    -0.1024     3.9260     3.9260     0.0000
 17 N      7.2082     7.0000    -0.2082     3.0397     3.0397     0.0000

  Mayer bond orders larger than 0.100000
B(  0-C ,  1-H ) :   0.9674 B(  0-C ,  2-H ) :   0.9699 B(  0-C ,  3-H ) :   0.9566 
B(  0-C ,  4-C ) :   0.9263 B(  4-C ,  5-N ) :   3.0087 B(  6-C ,  7-H ) :   0.9703 
B(  6-C ,  8-H ) :   0.9559 B(  6-C ,  9-H ) :   0.9667 B(  6-C , 10-C ) :   0.9273 
B( 10-C , 11-N ) :   3.0095 B( 12-C , 13-H ) :   0.9631 B( 12-C , 14-H ) :   0.9606 
B( 12-C , 15-H ) :   0.9615 B( 12-C , 16-C ) :   0.9286 B( 16-C , 17-N ) :   3.0144 


-------
TIMINGS
-------

Total SCF time: 0 days 0 hours 0 min 33 sec 

Total time                  ....      33.358 sec
Sum of individual times     ....      33.059 sec  ( 99.1%)

Fock matrix formation       ....      32.474 sec  ( 97.4%)
Diagonalization             ....       0.145 sec  (  0.4%)
Density matrix formation    ....       0.022 sec  (  0.1%)
Population analysis         ....       0.014 sec  (  0.0%)
Initial guess               ....       0.181 sec  (  0.5%)
Orbital Transformation      ....       0.000 sec  (  0.0%)
Orbital Orthonormalization  ....       0.000 sec  (  0.0%)
DIIS solution               ....       0.057 sec  (  0.2%)
SOSCF solution              ....       0.090 sec  (  0.3%)


           ************************************************************
           *        Program running with 6 parallel MPI-processes     *
           *              working on a common directory               *
           ************************************************************

------------------------------------------------------------------------------
                                ORCA  MP2 
------------------------------------------------------------------------------

Freezing NCore=18 chemical core electrons
MP2 will be done in the AO integral direct mode
The Q1-step will be done using symmetric double matrices
Dimension of the basis                    ...  333
Memory devoted for MP2                    ... 8000 MB   
Memory needed for all in one shot         ...  566 MB
Number of MOs that can be treated together...   55      
MP2 density construction                  ... relaxed
The MP2 gradient is requested => amplitudes will be stored on disk
Total number of MOs              ...   24
Number of MOs treated per batch  ...    4 
Number of batches necessary      ...    1 
OPERATORS   0/  0 PASS   0
-----------------------------------------------
 MP2 CORRELATION ENERGY   :     -1.529288631 Eh
-----------------------------------------------


---------------------
MP2 DENSITY FORMATION
---------------------

Completing the external part of the density      ... done
Storing the unrelaxed density                    ... done

Calculating G(D)                                 ... done
Completing the Lagrangian                        ... done
Solving the Z-vector equations                   ... 

------------------------------------------------------------------------------
                           ORCA CP-SCF CALCULATION
------------------------------------------------------------------------------

Input orbitals are from        ... 12mecn.remya.etal.2.mol1,5,8-orca.engrad-mp2.def2tzvp.frozencore.gbw
Input Perturbation             ... 12mecn.remya.etal.2.mol1,5,8-orca.engrad-mp2.def2tzvp.frozencore.pin.tmp
Wavefunction output            ... 12mecn.remya.etal.2.mol1,5,8-orca.engrad-mp2.def2tzvp.frozencore.pout.tmp
Perturbation mode              ... Real perturbation (singlet)
Solver                         ... POPLE
Max. number of iterations      ... 128
Convergence tolerance          ... 1.000e-08
Integral handling              ... Direct
Number of perturbations        ... 1
Number of operators            ... 1
Orbital ranges used for CP-SCF:
 Operator 0:  Orbitals   0... 32  to  33...332
Variables per vector in CP-SCF ... 9900
Number of vectors sought       ... 1
     CP-SCF ITERATION   0: 
     CP-SCF ITERATION   1:      0.001435375064
     CP-SCF ITERATION   2:      0.000284109142
     CP-SCF ITERATION   3:      0.000006290575
     CP-SCF ITERATION   4:      0.000000727238
     CP-SCF ITERATION   5:      0.000000135175
     CP-SCF ITERATION   6:      0.000000017973
     CP-SCF ITERATION   7:      0.000000004606
                                                 ... done
Finalizing the relaxed density                   ... done
Transforming P to the AO basis                   ... done
Storing the relaxed density                      ... done

------------------------------------
ENERGY WEIGHTED DENSITY FINALIZATION
------------------------------------

Gathering the parts of the W-matrix              ...                                                      done
Forming the Z-density                            ... done
Transforming Z to the AO basis                   ... done
Calculating G(Z)                                 ... done
Finalizing the W-matrix                          ...                                                      done
Transforming W to the AO basis and storing       ... done

                *********************************************
                * UNRELAXED MP2 DENSITY POPULATION ANALYSIS *
                *********************************************

------------------------------------------------------------------------------
                           ORCA POPULATION ANALYSIS
------------------------------------------------------------------------------
Input electron density              ... 12mecn.remya.etal.2.mol1,5,8-orca.engrad-mp2.def2tzvp.frozencore.pmp2ur
BaseName (.gbw .S,...)              ... 12mecn.remya.etal.2.mol1,5,8-orca.engrad-mp2.def2tzvp.frozencore

                    ********************************
                    * MULLIKEN POPULATION ANALYSIS *
                    ********************************

-----------------------
MULLIKEN ATOMIC CHARGES
-----------------------
   0 C :   -0.183915
   1 H :    0.149247
   2 H :    0.155253
   3 H :    0.170001
   4 C :   -0.127616
   5 N :   -0.163041
   6 C :   -0.180947
   7 H :    0.151035
   8 H :    0.170815
   9 H :    0.152120
  10 C :   -0.126782
  11 N :   -0.166161
  12 C :   -0.177926
  13 H :    0.156847
  14 H :    0.166275
  15 H :    0.159916
  16 C :   -0.111575
  17 N :   -0.193546
Sum of atomic charges:   -0.0000000

--------------------------------
MULLIKEN REDUCED ORBITAL CHARGES
--------------------------------
  0 C s       :     3.140464  s :     3.140464
      pz      :     0.796403  p :     2.947162
      px      :     1.080487
      py      :     1.070272
      dz2     :     0.020435  d :     0.088954
      dxz     :     0.017733
      dyz     :     0.018092
      dx2y2   :     0.016141
      dxy     :     0.016553
      f0      :     0.002111  f :     0.007336
      f+1     :     0.000877
      f-1     :     0.000881
      f+2     :     0.000584
      f-2     :     0.000629
      f+3     :     0.001021
      f-3     :     0.001232
  1 H s       :     0.825676  s :     0.825676
      pz      :     0.005839  p :     0.025077
      px      :     0.005211
      py      :     0.014028
  2 H s       :     0.819562  s :     0.819562
      pz      :     0.005737  p :     0.025185
      px      :     0.013766
      py      :     0.005682
  3 H s       :     0.804698  s :     0.804698
      pz      :     0.005960  p :     0.025301
      px      :     0.009819
      py      :     0.009521
  4 C s       :     3.236070  s :     3.236070
      pz      :     0.954447  p :     2.742560
      px      :     0.893136
      py      :     0.894977
      dz2     :     0.029570  d :     0.128618
      dxz     :     0.044770
      dyz     :     0.044607
      dx2y2   :     0.004863
      dxy     :     0.004808
      f0      :     0.004600  f :     0.020368
      f+1     :     0.007039
      f-1     :     0.007037
      f+2     :     0.000594
      f-2     :     0.000584
      f+3     :     0.000258
      f-3     :     0.000258
  5 N s       :     3.707081  s :     3.707081
      pz      :     1.273006  p :     3.373202
      px      :     1.051037
      py      :     1.049158
      dz2     :     0.015939  d :     0.077105
      dxz     :     0.025719
      dyz     :     0.025734
      dx2y2   :     0.004854
      dxy     :     0.004860
      f0      :     0.001046  f :     0.005653
      f+1     :     0.001613
      f-1     :     0.001613
      f+2     :     0.000415
      f-2     :     0.000415
      f+3     :     0.000275
      f-3     :     0.000275
  6 C s       :     3.139717  s :     3.139717
      pz      :     0.795752  p :     2.945121
      px      :     1.076693
      py      :     1.072676
      dz2     :     0.020402  d :     0.088776
      dxz     :     0.017526
      dyz     :     0.018136
      dx2y2   :     0.016091
      dxy     :     0.016621
      f0      :     0.002108  f :     0.007333
      f+1     :     0.000879
      f-1     :     0.000879
      f+2     :     0.000602
      f-2     :     0.000608
      f+3     :     0.000821
      f-3     :     0.001436
  7 H s       :     0.823862  s :     0.823862
      pz      :     0.005746  p :     0.025103
      px      :     0.013345
      py      :     0.006013
  8 H s       :     0.803968  s :     0.803968
      pz      :     0.005708  p :     0.025217
      px      :     0.010755
      py      :     0.008754
  9 H s       :     0.822740  s :     0.822740
      pz      :     0.006044  p :     0.025140
      px      :     0.004996
      py      :     0.014100
 10 C s       :     3.236883  s :     3.236883
      pz      :     0.955500  p :     2.740923
      px      :     0.892896
      py      :     0.892527
      dz2     :     0.029597  d :     0.128623
      dxz     :     0.044440
      dyz     :     0.044918
      dx2y2   :     0.004768
      dxy     :     0.004901
      f0      :     0.004597  f :     0.020353
      f+1     :     0.007020
      f-1     :     0.007039
      f+2     :     0.000585
      f-2     :     0.000598
      f+3     :     0.000257
      f-3     :     0.000258
 11 N s       :     3.706035  s :     3.706035
      pz      :     1.273870  p :     3.377382
      px      :     1.051442
      py      :     1.052070
      dz2     :     0.015936  d :     0.077087
      dxz     :     0.025717
      dyz     :     0.025704
      dx2y2   :     0.004863
      dxy     :     0.004868
      f0      :     0.001047  f :     0.005657
      f+1     :     0.001615
      f-1     :     0.001613
      f+2     :     0.000415
      f-2     :     0.000415
      f+3     :     0.000276
      f-3     :     0.000276
 12 C s       :     3.148598  s :     3.148598
      pz      :     0.789270  p :     2.935068
      px      :     1.066838
      py      :     1.078960
      dz2     :     0.020442  d :     0.086934
      dxz     :     0.017115
      dyz     :     0.016910
      dx2y2   :     0.015828
      dxy     :     0.016640
      f0      :     0.002102  f :     0.007325
      f+1     :     0.000877
      f-1     :     0.000864
      f+2     :     0.000604
      f-2     :     0.000602
      f+3     :     0.000948
      f-3     :     0.001329
 13 H s       :     0.817982  s :     0.817982
      pz      :     0.006135  p :     0.025172
      px      :     0.013337
      py      :     0.005700
 14 H s       :     0.808478  s :     0.808478
      pz      :     0.005895  p :     0.025247
      px      :     0.005194
      py      :     0.014158
 15 H s       :     0.814856  s :     0.814856
      pz      :     0.005527  p :     0.025228
      px      :     0.010590
      py      :     0.009112
 16 C s       :     3.235788  s :     3.235788
      pz      :     0.963099  p :     2.725772
      px      :     0.881926
      py      :     0.880746
      dz2     :     0.029000  d :     0.129736
      dxz     :     0.045490
      dyz     :     0.045540
      dx2y2   :     0.004646
      dxy     :     0.005059
      f0      :     0.004608  f :     0.020279
      f+1     :     0.006939
      f-1     :     0.006971
      f+2     :     0.000609
      f-2     :     0.000643
      f+3     :     0.000255
      f-3     :     0.000255
 17 N s       :     3.699632  s :     3.699632
      pz      :     1.277316  p :     3.411344
      px      :     1.066931
      py      :     1.067097
      dz2     :     0.015910  d :     0.076894
      dxz     :     0.025523
      dyz     :     0.025575
      dx2y2   :     0.004946
      dxy     :     0.004940
      f0      :     0.001059  f :     0.005676
      f+1     :     0.001603
      f-1     :     0.001611
      f+2     :     0.000423
      f-2     :     0.000423
      f+3     :     0.000278
      f-3     :     0.000278


                     *******************************
                     * LOEWDIN POPULATION ANALYSIS *
                     *******************************

----------------------
LOEWDIN ATOMIC CHARGES
----------------------
   0 C :   -0.257064
   1 H :    0.142575
   2 H :    0.143986
   3 H :    0.146196
   4 C :   -0.209826
   5 N :    0.034143
   6 C :   -0.256565
   7 H :    0.142640
   8 H :    0.147679
   9 H :    0.143132
  10 C :   -0.209080
  11 N :    0.032187
  12 C :   -0.251366
  13 H :    0.145702
  14 H :    0.148774
  15 H :    0.146836
  16 C :   -0.202518
  17 N :    0.012569

-------------------------------
LOEWDIN REDUCED ORBITAL CHARGES
-------------------------------
  0 C s       :     2.811267  s :     2.811267
      pz      :     1.020197  p :     3.120794
      px      :     1.052443
      py      :     1.048154
      dz2     :     0.082363  d :     0.293360
      dxz     :     0.067852
      dyz     :     0.069565
      dx2y2   :     0.037344
      dxy     :     0.036238
      f0      :     0.008449  f :     0.031643
      f+1     :     0.006369
      f-1     :     0.006297
      f+2     :     0.002808
      f-2     :     0.002983
      f+3     :     0.002031
      f-3     :     0.002706
  1 H s       :     0.792291  s :     0.792291
      pz      :     0.014083  p :     0.065133
      px      :     0.014638
      py      :     0.036413
  2 H s       :     0.790597  s :     0.790597
      pz      :     0.013875  p :     0.065417
      px      :     0.035845
      py      :     0.015697
  3 H s       :     0.788033  s :     0.788033
      pz      :     0.014451  p :     0.065771
      px      :     0.026092
      py      :     0.025228
  4 C s       :     2.834401  s :     2.834401
      pz      :     1.178102  p :     2.842223
      px      :     0.831781
      py      :     0.832339
      dz2     :     0.162515  d :     0.466816
      dxz     :     0.147562
      dyz     :     0.146943
      dx2y2   :     0.004936
      dxy     :     0.004860
      f0      :     0.024777  f :     0.066386
      f+1     :     0.019826
      f-1     :     0.019798
      f+2     :     0.000744
      f-2     :     0.000723
      f+3     :     0.000259
      f-3     :     0.000259
  5 N s       :     3.306438  s :     3.306438
      pz      :     1.478805  p :     3.498487
      px      :     1.010528
      py      :     1.009155
      dz2     :     0.052808  d :     0.142051
      dxz     :     0.039797
      dyz     :     0.039855
      dx2y2   :     0.004788
      dxy     :     0.004804
      f0      :     0.007296  f :     0.018881
      f+1     :     0.005078
      f-1     :     0.005083
      f+2     :     0.000437
      f-2     :     0.000437
      f+3     :     0.000275
      f-3     :     0.000275
  6 C s       :     2.811908  s :     2.811908
      pz      :     1.019820  p :     3.120188
      px      :     1.050010
      py      :     1.050358
      dz2     :     0.082421  d :     0.292886
      dxz     :     0.067140
      dyz     :     0.069695
      dx2y2   :     0.036579
      dxy     :     0.037052
      f0      :     0.008441  f :     0.031583
      f+1     :     0.006446
      f-1     :     0.006191
      f+2     :     0.003029
      f-2     :     0.002746
      f+3     :     0.001384
      f-3     :     0.003345
  7 H s       :     0.792102  s :     0.792102
      pz      :     0.013885  p :     0.065257
      px      :     0.034775
      py      :     0.016597
  8 H s       :     0.786925  s :     0.786925
      pz      :     0.013877  p :     0.065396
      px      :     0.028225
      py      :     0.023294
  9 H s       :     0.791570  s :     0.791570
      pz      :     0.014479  p :     0.065298
      px      :     0.014061
      py      :     0.036758
 10 C s       :     2.834710  s :     2.834710
      pz      :     1.178289  p :     2.841100
      px      :     0.831411
      py      :     0.831399
      dz2     :     0.162461  d :     0.466877
      dxz     :     0.146935
      dyz     :     0.147642
      dx2y2   :     0.004750
      dxy     :     0.005089
      f0      :     0.024760  f :     0.066393
      f+1     :     0.019779
      f-1     :     0.019854
      f+2     :     0.000714
      f-2     :     0.000768
      f+3     :     0.000258
      f-3     :     0.000259
 11 N s       :     3.306304  s :     3.306304
      pz      :     1.478929  p :     3.500750
      px      :     1.010699
      py      :     1.011122
      dz2     :     0.052796  d :     0.141884
      dxz     :     0.039755
      dyz     :     0.039725
      dx2y2   :     0.004797
      dxy     :     0.004811
      f0      :     0.007298  f :     0.018875
      f+1     :     0.005076
      f-1     :     0.005073
      f+2     :     0.000438
      f-2     :     0.000438
      f+3     :     0.000276
      f-3     :     0.000276
 12 C s       :     2.812987  s :     2.812987
      pz      :     1.015043  p :     3.117942
      px      :     1.049499
      py      :     1.053401
      dz2     :     0.083379  d :     0.289106
      dxz     :     0.067166
      dyz     :     0.065492
      dx2y2   :     0.034571
      dxy     :     0.038499
      f0      :     0.008503  f :     0.031331
      f+1     :     0.006145
      f-1     :     0.006222
      f+2     :     0.003092
      f-2     :     0.002659
      f+3     :     0.001761
      f-3     :     0.002949
 13 H s       :     0.788890  s :     0.788890
      pz      :     0.014669  p :     0.065409
      px      :     0.034888
      py      :     0.015851
 14 H s       :     0.785599  s :     0.785599
      pz      :     0.014165  p :     0.065627
      px      :     0.014475
      py      :     0.036987
 15 H s       :     0.787649  s :     0.787649
      pz      :     0.013386  p :     0.065515
      px      :     0.027822
      py      :     0.024307
 16 C s       :     2.836555  s :     2.836555
      pz      :     1.180382  p :     2.829247
      px      :     0.824859
      py      :     0.824006
      dz2     :     0.161296  d :     0.470176
      dxz     :     0.149283
      dyz     :     0.149349
      dx2y2   :     0.004706
      dxy     :     0.005541
      f0      :     0.024578  f :     0.066540
      f+1     :     0.019915
      f-1     :     0.019843
      f+2     :     0.000799
      f-2     :     0.000892
      f+3     :     0.000256
      f-3     :     0.000257
 17 N s       :     3.306203  s :     3.306203
      pz      :     1.479081  p :     3.522238
      px      :     1.021831
      py      :     1.021326
      dz2     :     0.052555  d :     0.140249
      dxz     :     0.039001
      dyz     :     0.038886
      dx2y2   :     0.004907
      dxy     :     0.004899
      f0      :     0.007276  f :     0.018741
      f+1     :     0.005006
      f-1     :     0.004972
      f+2     :     0.000467
      f-2     :     0.000464
      f+3     :     0.000278
      f-3     :     0.000278


                      *****************************
                      * MAYER POPULATION ANALYSIS *
                      *****************************

  NA   - Mulliken gross atomic population
  ZA   - Total nuclear charge
  QA   - Mulliken gross atomic charge
  VA   - Mayer's total valence
  BVA  - Mayer's bonded valence
  FA   - Mayer's free valence

  ATOM       NA         ZA         QA         VA         BVA        FA
  0 C      6.1839     6.0000    -0.1839     3.9336     3.6482     0.2854
  1 H      0.8508     1.0000     0.1492     0.9701     0.9218     0.0483
  2 H      0.8447     1.0000     0.1553     0.9700     0.9221     0.0479
  3 H      0.8300     1.0000     0.1700     0.9676     0.9210     0.0466
  4 C      6.1276     6.0000    -0.1276     4.0130     3.5706     0.4424
  5 N      7.1630     7.0000    -0.1630     3.2268     2.7403     0.4865
  6 C      6.1809     6.0000    -0.1809     3.9327     3.6474     0.2853
  7 H      0.8490     1.0000     0.1510     0.9707     0.9226     0.0480
  8 H      0.8292     1.0000     0.1708     0.9676     0.9209     0.0467
  9 H      0.8479     1.0000     0.1521     0.9698     0.9215     0.0483
 10 C      6.1268     6.0000    -0.1268     4.0161     3.5739     0.4422
 11 N      7.1662     7.0000    -0.1662     3.2279     2.7413     0.4866
 12 C      6.1779     6.0000    -0.1779     3.9200     3.6374     0.2826
 13 H      0.8432     1.0000     0.1568     0.9691     0.9214     0.0477
 14 H      0.8337     1.0000     0.1663     0.9685     0.9213     0.0472
 15 H      0.8401     1.0000     0.1599     0.9697     0.9223     0.0475
 16 C      6.1116     6.0000    -0.1116     4.0271     3.5899     0.4372
 17 N      7.1935     7.0000    -0.1935     3.2365     2.7503     0.4862

  Mayer bond orders larger than 0.100000
B(  0-C ,  1-H ) :   0.9295 B(  0-C ,  2-H ) :   0.9320 B(  0-C ,  3-H ) :   0.9196 
B(  0-C ,  4-C ) :   0.8747 B(  4-C ,  5-N ) :   2.7226 B(  6-C ,  7-H ) :   0.9324 
B(  6-C ,  8-H ) :   0.9188 B(  6-C ,  9-H ) :   0.9287 B(  6-C , 10-C ) :   0.8756 
B( 10-C , 11-N ) :   2.7236 B( 12-C , 13-H ) :   0.9256 B( 12-C , 14-H ) :   0.9233 
B( 12-C , 15-H ) :   0.9242 B( 12-C , 16-C ) :   0.8771 B( 16-C , 17-N ) :   2.7318 



                *******************************************
                * RELAXED MP2 DENSITY POPULATION ANALYSIS *
                *******************************************

------------------------------------------------------------------------------
                           ORCA POPULATION ANALYSIS
------------------------------------------------------------------------------
Input electron density              ... 12mecn.remya.etal.2.mol1,5,8-orca.engrad-mp2.def2tzvp.frozencore.pmp2re
BaseName (.gbw .S,...)              ... 12mecn.remya.etal.2.mol1,5,8-orca.engrad-mp2.def2tzvp.frozencore

                    ********************************
                    * MULLIKEN POPULATION ANALYSIS *
                    ********************************

-----------------------
MULLIKEN ATOMIC CHARGES
-----------------------
   0 C :   -0.285475
   1 H :    0.164104
   2 H :    0.169554
   3 H :    0.182272
   4 C :   -0.152725
   5 N :   -0.077797
   6 C :   -0.282277
   7 H :    0.165465
   8 H :    0.182796
   9 H :    0.167012
  10 C :   -0.152973
  11 N :   -0.079947
  12 C :   -0.277690
  13 H :    0.170555
  14 H :    0.179393
  15 H :    0.173396
  16 C :   -0.145579
  17 N :   -0.100082
Sum of atomic charges:   -0.0000000

--------------------------------
MULLIKEN REDUCED ORBITAL CHARGES
--------------------------------
  0 C s       :     3.179372  s :     3.179372
      pz      :     0.841957  p :     3.020647
      px      :     1.093788
      py      :     1.084902
      dz2     :     0.016131  d :     0.078375
      dxz     :     0.017877
      dyz     :     0.018165
      dx2y2   :     0.012903
      dxy     :     0.013299
      f0      :     0.001873  f :     0.007081
      f+1     :     0.000940
      f-1     :     0.000944
      f+2     :     0.000574
      f-2     :     0.000614
      f+3     :     0.000973
      f-3     :     0.001162
  1 H s       :     0.811917  s :     0.811917
      pz      :     0.005890  p :     0.023979
      px      :     0.005358
      py      :     0.012731
  2 H s       :     0.806372  s :     0.806372
      pz      :     0.005807  p :     0.024074
      px      :     0.012518
      py      :     0.005750
  3 H s       :     0.793574  s :     0.793574
      pz      :     0.005981  p :     0.024155
      px      :     0.009226
      py      :     0.008948
  4 C s       :     3.215026  s :     3.215026
      pz      :     0.987313  p :     2.814365
      px      :     0.913218
      py      :     0.913834
      dz2     :     0.025255  d :     0.104322
      dxz     :     0.034796
      dyz     :     0.034649
      dx2y2   :     0.004834
      dxy     :     0.004788
      f0      :     0.004413  f :     0.019012
      f+1     :     0.006456
      f-1     :     0.006459
      f+2     :     0.000589
      f-2     :     0.000580
      f+3     :     0.000258
      f-3     :     0.000258
  5 N s       :     3.649845  s :     3.649845
      pz      :     1.262296  p :     3.354695
      px      :     1.046601
      py      :     1.045798
      dz2     :     0.014956  d :     0.068080
      dxz     :     0.021708
      dyz     :     0.021704
      dx2y2   :     0.004853
      dxy     :     0.004859
      f0      :     0.000931  f :     0.005177
      f+1     :     0.001434
      f-1     :     0.001433
      f+2     :     0.000415
      f-2     :     0.000415
[...]
      f+1     :     0.006440
      f-1     :     0.006458
      f+2     :     0.000581
      f-2     :     0.000593
      f+3     :     0.000257
      f-3     :     0.000257
 11 N s       :     3.648467  s :     3.648467
      pz      :     1.263326  p :     3.358224
      px      :     1.047246
      py      :     1.047652
      dz2     :     0.014951  d :     0.068074
      dxz     :     0.021698
      dyz     :     0.021698
      dx2y2   :     0.004861
      dxy     :     0.004867
      f0      :     0.000931  f :     0.005182
      f+1     :     0.001435
      f-1     :     0.001434
      f+2     :     0.000415
      f-2     :     0.000415
      f+3     :     0.000276
      f-3     :     0.000276
 12 C s       :     3.184579  s :     3.184579
      pz      :     0.836084  p :     3.009391
      px      :     1.081020
      py      :     1.092287
      dz2     :     0.016167  d :     0.076650
      dxz     :     0.017247
      dyz     :     0.017127
      dx2y2   :     0.012749
      dxy     :     0.013360
      f0      :     0.001866  f :     0.007070
      f+1     :     0.000936
      f-1     :     0.000926
      f+2     :     0.000593
      f-2     :     0.000593
      f+3     :     0.000908
      f-3     :     0.001248
 13 H s       :     0.805408  s :     0.805408
      pz      :     0.006123  p :     0.024037
      px      :     0.012148
      py      :     0.005766
 14 H s       :     0.796524  s :     0.796524
      pz      :     0.005915  p :     0.024083
      px      :     0.005331
      py      :     0.012837
 15 H s       :     0.802527  s :     0.802527
      pz      :     0.005612  p :     0.024077
      px      :     0.009842
      py      :     0.008623
 16 C s       :     3.214830  s :     3.214830
      pz      :     0.997495  p :     2.806695
      px      :     0.905033
      py      :     0.904167
      dz2     :     0.024245  d :     0.105120
      dxz     :     0.035639
      dyz     :     0.035642
      dx2y2   :     0.004608
      dxy     :     0.004987
      f0      :     0.004425  f :     0.018934
      f+1     :     0.006369
      f-1     :     0.006395
      f+2     :     0.000603
      f-2     :     0.000633
      f+3     :     0.000255
      f-3     :     0.000255
 17 N s       :     3.639792  s :     3.639792
      pz      :     1.268333  p :     3.387120
      px      :     1.059455
      py      :     1.059332
      dz2     :     0.014890  d :     0.067965
      dxz     :     0.021586
      dyz     :     0.021626
      dx2y2   :     0.004934
      dxy     :     0.004929
      f0      :     0.000941  f :     0.005205
      f+1     :     0.001428
      f-1     :     0.001436
      f+2     :     0.000422
      f-2     :     0.000422
      f+3     :     0.000278
      f-3     :     0.000278


                     *******************************
                     * LOEWDIN POPULATION ANALYSIS *
                     *******************************

----------------------
LOEWDIN ATOMIC CHARGES
----------------------
   0 C :   -0.287375
   1 H :    0.149601
   2 H :    0.150859
   3 H :    0.152779
   4 C :   -0.223396
   5 N :    0.057539
   6 C :   -0.286925
   7 H :    0.149605
   8 H :    0.154250
   9 H :    0.150073
  10 C :   -0.222971
  11 N :    0.055965
  12 C :   -0.282173
  13 H :    0.152486
  14 H :    0.155317
  15 H :    0.153509
  16 C :   -0.218639
  17 N :    0.039497

-------------------------------
LOEWDIN REDUCED ORBITAL CHARGES
-------------------------------
  0 C s       :     2.816299  s :     2.816299
      pz      :     1.037829  p :     3.157129
      px      :     1.061786
      py      :     1.057514
      dz2     :     0.074852  d :     0.282113
      dxz     :     0.069339
      dyz     :     0.070918
      dx2y2   :     0.033964
      dxy     :     0.033039
      f0      :     0.007958  f :     0.031835
      f+1     :     0.006792
      f-1     :     0.006712
      f+2     :     0.002785
      f-2     :     0.002963
      f+3     :     0.001986
      f-3     :     0.002639
  1 H s       :     0.784878  s :     0.784878
      pz      :     0.014620  p :     0.065521
      px      :     0.015073
      py      :     0.035828
  2 H s       :     0.783353  s :     0.783353
      pz      :     0.014427  p :     0.065788
      px      :     0.035289
      py      :     0.016072
  3 H s       :     0.781143  s :     0.781143
      pz      :     0.014951  p :     0.066079
      px      :     0.025995
      py      :     0.025132
  4 C s       :     2.840103  s :     2.840103
      pz      :     1.169377  p :     2.865664
      px      :     0.848242
      py      :     0.848045
      dz2     :     0.164831  d :     0.451178
      dxz     :     0.138605
      dyz     :     0.138059
      dx2y2   :     0.004873
      dxy     :     0.004810
      f0      :     0.025764  f :     0.066452
      f+1     :     0.019366
      f-1     :     0.019364
      f+2     :     0.000729
      f-2     :     0.000711
      f+3     :     0.000259
      f-3     :     0.000259
  5 N s       :     3.306775  s :     3.306775
      pz      :     1.465461  p :     3.478849
      px      :     1.007017
      py      :     1.006371
      dz2     :     0.053557  d :     0.137616
      dxz     :     0.037240
      dyz     :     0.037231
      dx2y2   :     0.004787
      dxy     :     0.004802
      f0      :     0.007399  f :     0.019220
      f+1     :     0.005199
      f-1     :     0.005197
      f+2     :     0.000437
      f-2     :     0.000437
      f+3     :     0.000275
      f-3     :     0.000275
  6 C s       :     2.816947  s :     2.816947
      pz      :     1.037514  p :     3.156563
      px      :     1.059253
      py      :     1.059795
      dz2     :     0.074904  d :     0.281640
      dxz     :     0.068655
      dyz     :     0.071031
      dx2y2   :     0.033246
      dxy     :     0.033804
      f0      :     0.007950  f :     0.031775
      f+1     :     0.006865
      f-1     :     0.006608
      f+2     :     0.003006
      f-2     :     0.002727
      f+3     :     0.001360
      f-3     :     0.003258
  7 H s       :     0.784749  s :     0.784749
      pz      :     0.014435  p :     0.065646
      px      :     0.034269
      py      :     0.016943
  8 H s       :     0.780067  s :     0.780067
      pz      :     0.014409  p :     0.065683
      px      :     0.027969
      py      :     0.023304
  9 H s       :     0.784264  s :     0.784264
      pz      :     0.014986  p :     0.065664
      px      :     0.014519
      py      :     0.036159
 10 C s       :     2.840381  s :     2.840381
      pz      :     1.169521  p :     2.864972
      px      :     0.847659
      py      :     0.847792
      dz2     :     0.164768  d :     0.451174
      dxz     :     0.138002
      dyz     :     0.138677
      dx2y2   :     0.004704
      dxy     :     0.005024
      f0      :     0.025748  f :     0.066444
      f+1     :     0.019333
      f-1     :     0.019392
      f+2     :     0.000704
      f-2     :     0.000749
      f+3     :     0.000258
      f-3     :     0.000259
 11 N s       :     3.306649  s :     3.306649
      pz      :     1.465659  p :     3.480670
      px      :     1.007373
      py      :     1.007639
      dz2     :     0.053532  d :     0.137498
      dxz     :     0.037183
      dyz     :     0.037179
      dx2y2   :     0.004795
      dxy     :     0.004810
      f0      :     0.007400  f :     0.019218
      f+1     :     0.005195
      f-1     :     0.005195
      f+2     :     0.000438
      f-2     :     0.000438
      f+3     :     0.000276
      f-3     :     0.000276
 12 C s       :     2.817883  s :     2.817883
      pz      :     1.033383  p :     3.154535
      px      :     1.058724
      py      :     1.062428
      dz2     :     0.075679  d :     0.278208
      dxz     :     0.068706
      dyz     :     0.067187
      dx2y2   :     0.031471
      dxy     :     0.035163
      f0      :     0.007995  f :     0.031548
      f+1     :     0.006567
      f-1     :     0.006658
      f+2     :     0.003080
      f-2     :     0.002644
      f+3     :     0.001726
      f-3     :     0.002878
 13 H s       :     0.781797  s :     0.781797
      pz      :     0.015145  p :     0.065717
      px      :     0.034347
      py      :     0.016225
 14 H s       :     0.778814  s :     0.778814
      pz      :     0.014662  p :     0.065868
      px      :     0.014901
      py      :     0.036306
 15 H s       :     0.780699  s :     0.780699
      pz      :     0.013940  p :     0.065791
      px      :     0.027582
      py      :     0.024270
 16 C s       :     2.841860  s :     2.841860
      pz      :     1.171346  p :     2.856565
      px      :     0.842891
      py      :     0.842327
      dz2     :     0.163354  d :     0.453740
      dxz     :     0.140162
      dyz     :     0.140137
      dx2y2   :     0.004658
      dxy     :     0.005429
      f0      :     0.025571  f :     0.066475
      f+1     :     0.019415
      f-1     :     0.019319
      f+2     :     0.000793
      f-2     :     0.000863
      f+3     :     0.000256
      f-3     :     0.000257
 17 N s       :     3.306362  s :     3.306362
      pz      :     1.466539  p :     3.498716
      px      :     1.016440
      py      :     1.015738
      dz2     :     0.053154  d :     0.136296
      dxz     :     0.036731
      dyz     :     0.036618
      dx2y2   :     0.004899
      dxy     :     0.004893
      f0      :     0.007369  f :     0.019129
      f+1     :     0.005150
      f-1     :     0.005120
      f+2     :     0.000467
      f-2     :     0.000465
      f+3     :     0.000278
      f-3     :     0.000278


                      *****************************
                      * MAYER POPULATION ANALYSIS *
                      *****************************

  NA   - Mulliken gross atomic population
  ZA   - Total nuclear charge
  QA   - Mulliken gross atomic charge
  VA   - Mayer's total valence
  BVA  - Mayer's bonded valence
  FA   - Mayer's free valence

  ATOM       NA         ZA         QA         VA         BVA        FA
  0 C      6.2855     6.0000    -0.2855     3.9358     3.6515     0.2843
  1 H      0.8359     1.0000     0.1641     0.9644     0.9167     0.0476
  2 H      0.8304     1.0000     0.1696     0.9639     0.9166     0.0473
  3 H      0.8177     1.0000     0.1823     0.9615     0.9154     0.0461
  4 C      6.1527     6.0000    -0.1527     4.1333     3.7020     0.4314
  5 N      7.0778     7.0000    -0.0778     3.3393     2.8649     0.4744
  6 C      6.2823     6.0000    -0.2823     3.9350     3.6507     0.2842
  7 H      0.8345     1.0000     0.1655     0.9646     0.9172     0.0474
  8 H      0.8172     1.0000     0.1828     0.9616     0.9155     0.0462
  9 H      0.8330     1.0000     0.1670     0.9640     0.9163     0.0476
 10 C      6.1530     6.0000    -0.1530     4.1369     3.7056     0.4312
 11 N      7.0799     7.0000    -0.0799     3.3409     2.8664     0.4745
 12 C      6.2777     6.0000    -0.2777     3.9249     3.6434     0.2815
 13 H      0.8294     1.0000     0.1706     0.9632     0.9161     0.0471
 14 H      0.8206     1.0000     0.1794     0.9623     0.9156     0.0467
 15 H      0.8266     1.0000     0.1734     0.9638     0.9169     0.0469
 16 C      6.1456     6.0000    -0.1456     4.1529     3.7265     0.4264
 17 N      7.1001     7.0000    -0.1001     3.3520     2.8783     0.4737

  Mayer bond orders larger than 0.100000
B(  0-C ,  1-H ) :   0.9199 B(  0-C ,  2-H ) :   0.9218 B(  0-C ,  3-H ) :   0.9109 
B(  0-C ,  4-C ) :   0.8980 B(  4-C ,  5-N ) :   2.8290 B(  6-C ,  7-H ) :   0.9222 
B(  6-C ,  8-H ) :   0.9102 B(  6-C ,  9-H ) :   0.9192 B(  6-C , 10-C ) :   0.8989 
B( 10-C , 11-N ) :   2.8306 B( 12-C , 13-H ) :   0.9164 B( 12-C , 14-H ) :   0.9141 
B( 12-C , 15-H ) :   0.9151 B( 12-C , 16-C ) :   0.9020 B( 16-C , 17-N ) :   2.8422 



----------------------------------
MP2 DERIVATIVE INTEGRAL GENERATION
----------------------------------


Input Wavefunction Amplitudes       ... 12mecn.remya.etal.2.mol1,5,8-orca.engrad-mp2.def2tzvp.frozencore.mp2tsaa.tmp
Input Correlated Electron Density   ... 12mecn.remya.etal.2.mol1,5,8-orca.engrad-mp2.def2tzvp.frozencore.pmp2re
Input Energy Weighted Density       ... 12mecn.remya.etal.2.mol1,5,8-orca.engrad-mp2.def2tzvp.frozencore.wmp2.tmp
Input SCF Electron Density          ... 12mecn.remya.etal.2.mol1,5,8-orca.engrad-mp2.def2tzvp.frozencore.scfp

One-Electron Terms    ...
                        ... One-Electron Terms done
Prescreening matrices              ... done

Batch handling in the gradient evaluation:
Memory available                      ... 8000.0 MB
Memory per occupied orbital in Q2     ...   20.3 MB
Memory per occupied orbital in Q3     ...    0.1 MB
Total memory requirement per |i>      ...   20.4 MB
Max. Number of orbitals possible      ...    391
Number of orbitals treated per batch  ...     24
Number of batches to be done          ...      1
Batch   0: i=    9 ...    32

---------------------------------------
MP2 TOTAL ENERGY:     -397.449532758 Eh
---------------------------------------

The final MP2 gradient
  0:  -0.00215310   0.00058789  -0.00667431
  1:  -0.00079552   0.00395083  -0.00153235
  2:   0.00216351  -0.00217666  -0.00126581
  3:  -0.00009583  -0.00236448  -0.00027839
  4:   0.00091561  -0.00009884   0.00633604
  5:   0.00022597   0.00063223   0.00341985
  6:  -0.00005008   0.00124115  -0.00673450
  7:  -0.00345308   0.00002030  -0.00108033
  8:   0.00341316   0.00182720  -0.00110169
  9:  -0.00002575  -0.00331570  -0.00046292
 10:  -0.00011792   0.00007127   0.00589898
 11:  -0.00047235  -0.00003079   0.00355032
 12:   0.00047869  -0.00107044   0.00718623
 13:   0.00362939  -0.00039887   0.00068426
 14:  -0.00047372   0.00335825   0.00029979
 15:  -0.00301837  -0.00191066   0.00088893
 16:  -0.00038835  -0.00010258  -0.00545312
 17:   0.00021773  -0.00022009  -0.00368097

-----------------------------------
NORM OF THE MP2 GRADIENT:  0.020211
-----------------------------------

-------------------------   --------------------
FINAL SINGLE POINT ENERGY      -397.449532758214
-------------------------   --------------------


                            ***************************************
                            *     ORCA property calculations      *
                            ***************************************

                                    ---------------------
                                    Active property flags
                                    ---------------------
   (+) Dipole Moment


------------------------------------------------------------------------------
                       ORCA ELECTRIC PROPERTIES CALCULATION
------------------------------------------------------------------------------

Dipole Moment Calculation                       ... on
Quadrupole Moment Calculation                   ... off
Polarizability Calculation                      ... off
GBWName                                         ... 12mecn.remya.etal.2.mol1,5,8-orca.engrad-mp2.def2tzvp.frozencore.gbw
Electron density file                           ... 12mecn.remya.etal.2.mol1,5,8-orca.engrad-mp2.def2tzvp.frozencore.scfp
The origin for moment calculation is the CENTER OF MASS  = (-2.952702, -0.128144  0.255808)

-------------
DIPOLE MOMENT
-------------
                                X             Y             Z
Electronic contribution:      0.10276       0.00020      -3.16310
Nuclear contribution   :     -0.17526      -0.00762       4.64606
                        -----------------------------------------
Total Dipole Moment    :     -0.07250      -0.00742       1.48295
                        -----------------------------------------
Magnitude (a.u.)       :      1.48474
Magnitude (Debye)      :      3.77392



--------------------
Rotational spectrum 
--------------------
 
Rotational constants in cm-1:     0.037056     0.012771     0.011516 
Rotational constants in MHz :  1110.924398   382.856631   345.234680 

 Dipole components along the rotational axes: 
x,y,z [a.u.] :    -0.291538     0.060118    -1.454597 
x,y,z [Debye]:    -0.741030     0.152808    -3.697292 

 

                         *** MP2 UNRELAXED DENSITY ***

------------------------------------------------------------------------------
                       ORCA ELECTRIC PROPERTIES CALCULATION
------------------------------------------------------------------------------

Dipole Moment Calculation                       ... on
Quadrupole Moment Calculation                   ... off
Polarizability Calculation                      ... off
GBWName                                         ... 12mecn.remya.etal.2.mol1,5,8-orca.engrad-mp2.def2tzvp.frozencore.gbw
Electron density file                           ... 12mecn.remya.etal.2.mol1,5,8-orca.engrad-mp2.def2tzvp.frozencore.pmp2ur
The origin for moment calculation is the CENTER OF MASS  = (-2.952702, -0.128144  0.255808)

-------------
DIPOLE MOMENT
-------------
                                X             Y             Z
Electronic contribution:      0.10446       0.00061      -3.19841
Nuclear contribution   :     -0.17526      -0.00762       4.64606
                        -----------------------------------------
Total Dipole Moment    :     -0.07080      -0.00701       1.44764
                        -----------------------------------------
Magnitude (a.u.)       :      1.44939
Magnitude (Debye)      :      3.68406



--------------------
Rotational spectrum 
--------------------
 
Rotational constants in cm-1:     0.037056     0.012771     0.011516 
Rotational constants in MHz :  1110.924398   382.856631   345.234680 

 Dipole components along the rotational axes: 
x,y,z [a.u.] :    -0.284734     0.058873    -1.419928 
x,y,z [Debye]:    -0.723737     0.149643    -3.609170 

 

                           *** MP2 RELAXED DENSITY ***

------------------------------------------------------------------------------
                       ORCA ELECTRIC PROPERTIES CALCULATION
------------------------------------------------------------------------------

Dipole Moment Calculation                       ... on
Quadrupole Moment Calculation                   ... off
Polarizability Calculation                      ... off
GBWName                                         ... 12mecn.remya.etal.2.mol1,5,8-orca.engrad-mp2.def2tzvp.frozencore.gbw
Electron density file                           ... 12mecn.remya.etal.2.mol1,5,8-orca.engrad-mp2.def2tzvp.frozencore.pmp2re
The origin for moment calculation is the CENTER OF MASS  = (-2.952702, -0.128144  0.255808)

-------------
DIPOLE MOMENT
-------------
                                X             Y             Z
Electronic contribution:      0.10941       0.00109      -3.28161
Nuclear contribution   :     -0.17526      -0.00762       4.64606
                        -----------------------------------------
Total Dipole Moment    :     -0.06585      -0.00653       1.36445
                        -----------------------------------------
Magnitude (a.u.)       :      1.36605
Magnitude (Debye)      :      3.47222



--------------------
Rotational spectrum 
--------------------
 
Rotational constants in cm-1:     0.037056     0.012771     0.011516 
Rotational constants in MHz :  1110.924398   382.856631   345.234680 

 Dipole components along the rotational axes: 
x,y,z [a.u.] :    -0.267647     0.056004    -1.338403 
x,y,z [Debye]:    -0.680305     0.142352    -3.401949 

 

Timings for individual modules:

Sum of individual times         ...      227.169 sec (=   3.786 min)
GTO integral calculation        ...        1.093 sec (=   0.018 min)   0.5 %
SCF iterations                  ...       34.103 sec (=   0.568 min)  15.0 %
MP2 module                      ...      191.973 sec (=   3.200 min)  84.5 %
                             ****ORCA TERMINATED NORMALLY****
TOTAL RUN TIME: 0 days 0 hours 3 minutes 48 seconds 101 msec
