
                                 *****************
                                 * O   R   C   A *
                                 *****************

           --- An Ab Initio, DFT and Semiempirical electronic structure package ---

                  #######################################################
                  #                        -***-                        #
                  #          Department of theory and spectroscopy      #
                  #               Directorship: Frank Neese             #
                  #        Max Planck Institute fuer Kohlenforschung    #
                  #                Kaiser Wilhelm Platz 1               #
                  #                 D-45470 Muelheim/Ruhr               #
                  #                      Germany                        #
                  #                                                     #
                  #                  All rights reserved                #
                  #                        -***-                        #
                  #######################################################


                         Program Version 4.2.0 -  RELEASE  -


 With contributions from (in alphabetic order):
   Daniel Aravena         : Magnetic Suceptibility
   Michael Atanasov       : Ab Initio Ligand Field Theory (pilot matlab implementation)
   Alexander A. Auer      : GIAO ZORA, VPT2
   Ute Becker             : Parallelization
   Giovanni Bistoni       : ED, misc. LED, open-shell LED, HFLED
   Martin Brehm           : Molecular dynamics
   Dmytro Bykov           : SCF Hessian
   Vijay G. Chilkuri      : MRCI spin determinant printing, contributions to CSF-ICE
   Dipayan Datta          : RHF DLPNO-CCSD density
   Achintya Kumar Dutta   : EOM-CC, STEOM-CC
   Dmitry Ganyushin       : Spin-Orbit,Spin-Spin,Magnetic field MRCI
   Miquel Garcia          : C-PCM Hessian, Gaussian charge scheme
   Yang Guo               : DLPNO-NEVPT2, CIM, IAO-localization
   Andreas Hansen         : Spin unrestricted coupled pair/coupled cluster methods
   Benjamin Helmich-Paris : CASSCF linear response (MC-RPA)
   Lee Huntington         : MR-EOM, pCC
   Robert Izsak           : Overlap fitted RIJCOSX, COSX-SCS-MP3, EOM
   Christian Kollmar      : KDIIS, OOCD, Brueckner-CCSD(T), CCSD density
   Simone Kossmann        : Meta GGA functionals, TD-DFT gradient, OOMP2, MP2 Hessian
   Martin Krupicka        : AUTO-CI
   Lucas Lang             : DCDCAS
   Dagmar Lenk            : GEPOL surface, SMD
   Dimitrios Liakos       : Extrapolation schemes; Compound Job, initial MDCI parallelization
   Dimitrios Manganas     : Further ROCIS development; embedding schemes
   Dimitrios Pantazis     : SARC Basis sets
   Taras Petrenko         : DFT Hessian,TD-DFT gradient, ASA, ECA, R-Raman, ABS, FL, XAS/XES, NRVS
   Peter Pinski           : DLPNO-MP2, DLPNO-MP2 Gradient
   Christoph Reimann      : Effective Core Potentials
   Marius Retegan         : Local ZFS, SOC
   Christoph Riplinger    : Optimizer, TS searches, QM/MM, DLPNO-CCSD(T), (RO)-DLPNO pert. Triples
   Tobias Risthaus        : Range-separated hybrids, TD-DFT gradient, RPA, STAB
   Michael Roemelt        : Original ROCIS implementation
   Masaaki Saitow         : Open-shell DLPNO-CCSD energy and density
   Barbara Sandhoefer     : DKH picture change effects
   Avijit Sen             : IP-ROCIS
   Kantharuban Sivalingam : CASSCF convergence, NEVPT2, FIC-MRCI
   Bernardo de Souza      : ESD, SOC TD-DFT
   Georgi Stoychev        : AutoAux, RI-MP2 NMR
   Willem Van den Heuvel  : Paramagnetic NMR
   Boris Wezisla          : Elementary symmetry handling
   Frank Wennmohs         : Technical directorship


 We gratefully acknowledge several colleagues who have allowed us to
 interface, adapt or use parts of their codes:
   Stefan Grimme, W. Hujo, H. Kruse,             : VdW corrections, initial TS optimization,
                  C. Bannwarth                     DFT functionals, gCP, sTDA/sTD-DF
   Ed Valeev, F. Pavosevic, A. Kumar             : LibInt (2-el integral package), F12 methods
   Garnet Chan, S. Sharma, J. Yang, R. Olivares  : DMRG
   Ulf Ekstrom                                   : XCFun DFT Library
   Mihaly Kallay                                 : mrcc  (arbitrary order and MRCC methods)
   Andreas Klamt, Michael Diedenhofen            : otool_cosmo (COSMO solvation model)
   Jiri Pittner, Ondrej Demel                    : Mk-CCSD
   Frank Weinhold                                : gennbo (NPA and NBO analysis)
   Christopher J. Cramer and Donald G. Truhlar   : smd solvation model
   Lars Goerigk                                  : TD-DFT with DH, B97 family of functionals
   V. Asgeirsson, H. Jonsson                     : NEB implementation
   FAccTs GmbH                                   : IRC, NEB, NEB-TS, Multilevel, MM, QM/MM, CI optimization
   S Lehtola, MJT Oliveira, MAL Marques          : LibXC Library


 Your calculation uses the libint2 library for the computation of 2-el integrals
 For citations please refer to: http://libint.valeyev.net

 Your ORCA version has been built with support for libXC version: 4.2.3
 For citations please refer to: https://tddft.org/programs/libxc/

 This ORCA versions uses:
   CBLAS   interface :  Fast vector & matrix operations
   LAPACKE interface :  Fast linear algebra routines
   SCALAPACK package :  Parallel linear algebra routines


----- Orbital basis set information -----
Your calculation utilizes the basis: def2-TZVP
   F. Weigend and R. Ahlrichs, Phys. Chem. Chem. Phys. 7, 3297 (2005).

================================================================================
                                        WARNINGS
                       Please study these warnings very carefully!
================================================================================


WARNING: The frozen-core approximation for MP2-gradient calculations is turned on by default.

INFO   : the flag for use of LIBINT has been found!

================================================================================
                                       INPUT FILE
================================================================================
NAME = 12mecn.remya.etal.2.mol1,4,5-orca.engrad-mp2.def2tzvp.frozencore.inp
|  1> # 12mecn.remya.etal.2.mol1,4,5
|  2> ! MP2 def2-TZVP EnGrad TightSCF
|  3> 
|  4> %pal
|  5>     nprocs 6
|  6> end
|  7> 
|  8> %maxcore 8000
|  9> 
| 10> %scf
| 11>     ConvForced true
| 12> end
| 13> 
| 14> *xyz 0 1
| 15> C  -4.697980000  -0.249690000   1.746215000
| 16> H  -4.927570000   0.755530000   2.111799000
| 17> H  -3.709180000  -0.561560000   2.093253000
| 18> H  -5.432280000  -0.961520000   2.128066000
| 19> C  -4.714100000  -0.247110000   0.301670000
| 20> N  -4.729750000  -0.234960000  -0.865260000
| 21> C  -1.509690000  -0.693960000  -1.610140000
| 22> H  -1.327010000  -1.692700000  -2.017370000
| 23> H  -0.742170000  -0.000650000  -1.964400000
| 24> H  -2.491920000  -0.334310000  -1.929350000
| 25> C  -1.473570000  -0.748120000  -0.167200000
| 26> N  -1.447490000  -0.793720000   0.998938000
| 27> C  -1.955700000   2.515080000   1.698463000
| 28> H  -2.923830000   2.883163000   2.049269000
| 29> H  -1.154850000   3.171830000   2.050990000
| 30> H  -1.790380000   1.506115000   2.087896000
| 31> C  -1.948230000   2.482156000   0.253672000
| 32> N  -1.937550000   2.462523000  -0.913150000
| 33> *
| 34> 
| 35>                          ****END OF INPUT****
================================================================================

                     *******************************
                     * Energy+Gradient Calculation *
                     *******************************

---------------------------------
CARTESIAN COORDINATES (ANGSTROEM)
---------------------------------
  C     -4.697980   -0.249690    1.746215
  H     -4.927570    0.755530    2.111799
  H     -3.709180   -0.561560    2.093253
  H     -5.432280   -0.961520    2.128066
  C     -4.714100   -0.247110    0.301670
  N     -4.729750   -0.234960   -0.865260
  C     -1.509690   -0.693960   -1.610140
  H     -1.327010   -1.692700   -2.017370
  H     -0.742170   -0.000650   -1.964400
  H     -2.491920   -0.334310   -1.929350
  C     -1.473570   -0.748120   -0.167200
  N     -1.447490   -0.793720    0.998938
  C     -1.955700    2.515080    1.698463
  H     -2.923830    2.883163    2.049269
  H     -1.154850    3.171830    2.050990
  H     -1.790380    1.506115    2.087896
  C     -1.948230    2.482156    0.253672
  N     -1.937550    2.462523   -0.913150

----------------------------
CARTESIAN COORDINATES (A.U.)
----------------------------
  NO LB      ZA    FRAG     MASS         X           Y           Z
   0 C     6.0000    0    12.011   -8.877896   -0.471846    3.299868
   1 H     1.0000    0     1.008   -9.311758    1.427745    3.990722
   2 H     1.0000    0     1.008   -7.009334   -1.061195    3.955675
   3 H     1.0000    0     1.008  -10.265521   -1.817009    4.021462
   4 C     6.0000    0    12.011   -8.908358   -0.466970    0.570074
   5 N     7.0000    0    14.007   -8.937932   -0.444010   -1.635104
   6 C     6.0000    0    12.011   -2.852901   -1.311394   -3.042724
   7 H     1.0000    0     1.008   -2.507685   -3.198739   -3.812277
   8 H     1.0000    0     1.008   -1.402498   -0.001228   -3.712178
   9 H     1.0000    0     1.008   -4.709046   -0.631754   -3.645943
  10 C     6.0000    0    12.011   -2.784644   -1.413742   -0.315962
  11 N     7.0000    0    14.007   -2.735360   -1.499913    1.887719
  12 C     6.0000    0    12.011   -3.695737    4.752812    3.209630
  13 H     1.0000    0     1.008   -5.525238    5.448388    3.872557
  14 H     1.0000    0     1.008   -2.182350    5.993890    3.875809
  15 H     1.0000    0     1.008   -3.383328    2.846145    3.945552
  16 C     6.0000    0    12.011   -3.681621    4.690595    0.479371
  17 N     7.0000    0    14.007   -3.661439    4.653494   -1.725603

--------------------------------
INTERNAL COORDINATES (ANGSTROEM)
--------------------------------
 C      0   0   0     0.000000000000     0.00000000     0.00000000
 H      1   0   0     1.093997476028     0.00000000     0.00000000
 H      1   2   0     1.093354338878   110.23188073     0.00000000
 H      1   2   3     1.091654077582   109.94364040   119.12222513
 C      1   2   3     1.444637244371   109.27900475   240.05041290
 N      5   1   2     1.167098183488   179.48927802   358.44615688
 C      6   5   1     3.336811894309   102.05360307   112.84708689
 H      7   6   5     1.093933198555   111.70560639   108.16292756
 H      7   6   5     1.093282147526   131.49629836   255.54745959
 H      7   6   5     1.093626499085    32.13524685   201.45653336
 C      7   6   5     1.444407769157    78.83036115     1.46927785
 N     11   7   6     1.167320590688   179.82285150    38.98509084
 C     12  11   7     3.419907903691    99.39402089   248.44521242
 H     13  12  11     1.093538129845   121.52307374   103.91225115
 H     13  12  11     1.094055104064   122.54200677   254.16099055
 H     13  12  11     1.094074556470    32.65924560   180.05469095
 C     13  12  11     1.445185394459    76.86189675   358.96481163
 N     17  13  12     1.167036030623   179.58931694   222.46268287

---------------------------
INTERNAL COORDINATES (A.U.)
---------------------------
 C      0   0   0     0.000000000000     0.00000000     0.00000000
 H      1   0   0     2.067355620894     0.00000000     0.00000000
 H      1   2   0     2.066140267815   110.23188073     0.00000000
 H      1   2   3     2.062927239608   109.94364040   119.12222513
 C      1   2   3     2.729968754725   109.27900475   240.05041290
 N      5   1   2     2.205495938188   179.48927802   358.44615688
 C      6   5   1     6.305660640654   102.05360307   112.84708689
 H      7   6   5     2.067234154073   111.70560639   108.16292756
 H      7   6   5     2.066003845930   131.49629836   255.54745959
 H      7   6   5     2.066654576069    32.13524685   201.45653336
 C      7   6   5     2.729535109414    78.83036115     1.46927785
 N     11   7   6     2.205916226887   179.82285150    38.98509084
 C     12  11   7     6.462689341208    99.39402089   248.44521242
 H     13  12  11     2.066487582408   121.52307374   103.91225115
 H     13  12  11     2.067464522100   122.54200677   254.16099055
 H     13  12  11     2.067501281819    32.65924560   180.05469095
 C     13  12  11     2.731004608270    76.86189675   358.96481163
 N     17  13  12     2.205378486297   179.58931694   222.46268287

---------------------
BASIS SET INFORMATION
---------------------
There are 3 groups of distinct atoms

 Group   1 Type C   : 11s6p2d1f contracted to 5s3p2d1f pattern {62111/411/11/1}
 Group   2 Type H   : 5s1p contracted to 3s1p pattern {311/1}
 Group   3 Type N   : 11s6p2d1f contracted to 5s3p2d1f pattern {62111/411/11/1}

Atom   0C    basis set group =>   1
Atom   1H    basis set group =>   2
Atom   2H    basis set group =>   2
Atom   3H    basis set group =>   2
Atom   4C    basis set group =>   1
Atom   5N    basis set group =>   3
Atom   6C    basis set group =>   1
Atom   7H    basis set group =>   2
Atom   8H    basis set group =>   2
Atom   9H    basis set group =>   2
Atom  10C    basis set group =>   1
Atom  11N    basis set group =>   3
Atom  12C    basis set group =>   1
Atom  13H    basis set group =>   2
Atom  14H    basis set group =>   2
Atom  15H    basis set group =>   2
Atom  16C    basis set group =>   1
Atom  17N    basis set group =>   3


           ************************************************************
           *        Program running with 6 parallel MPI-processes     *
           *              working on a common directory               *
           ************************************************************
------------------------------------------------------------------------------
                           ORCA GTO INTEGRAL CALCULATION
------------------------------------------------------------------------------

                         BASIS SET STATISTICS AND STARTUP INFO

 # of primitive gaussian shells          ...  234
 # of primitive gaussian functions       ...  486
 # of contracted shells                  ...  135
 # of contracted basis functions         ...  333
 Highest angular momentum                ...    3
 Maximum contraction depth               ...    6
 Integral package used                   ... LIBINT
 Integral threshhold            Thresh   ...  2.500e-11
 Primitive cut-off              TCut     ...  2.500e-12


------------------------------ INTEGRAL EVALUATION ----------------------------


 * One electron integrals 
 Pre-screening matrix                    ... done
 Shell pair data                         ... done (   0.002 sec)



           ************************************************************
           *        Program running with 6 parallel MPI-processes     *
           *              working on a common directory               *
           ************************************************************
-------------------------------------------------------------------------------
                                 ORCA SCF
-------------------------------------------------------------------------------

------------
SCF SETTINGS
------------
Hamiltonian:
 Ab initio Hamiltonian  Method          .... Hartree-Fock(GTOs)


General Settings:
 Integral files         IntName         .... 12mecn.remya.etal.2.mol1,4,5-orca.engrad-mp2.def2tzvp.frozencore
 Hartree-Fock type      HFTyp           .... RHF
 Total Charge           Charge          ....    0
 Multiplicity           Mult            ....    1
 Number of Electrons    NEL             ....   66
 Basis Dimension        Dim             ....  333
 Nuclear Repulsion      ENuc            ....    375.5287241157 Eh

Convergence Acceleration:
 DIIS                   CNVDIIS         .... on
   Start iteration      DIISMaxIt       ....    12
   Startup error        DIISStart       ....  0.200000
   # of expansion vecs  DIISMaxEq       ....     5
   Bias factor          DIISBfac        ....   1.050
   Max. coefficient     DIISMaxC        ....  10.000
 Newton-Raphson         CNVNR           .... off
 SOSCF                  CNVSOSCF        .... on
   Start iteration      SOSCFMaxIt      ....   150
   Startup grad/error   SOSCFStart      ....  0.003300
 Level Shifting         CNVShift        .... on
   Level shift para.    LevelShift      ....    0.2500
   Turn off err/grad.   ShiftErr        ....    0.0010
 Zerner damping         CNVZerner       .... off
 Static damping         CNVDamp         .... on
   Fraction old density DampFac         ....    0.7000
   Max. Damping (<1)    DampMax         ....    0.9800
   Min. Damping (>=0)   DampMin         ....    0.0000
   Turn off err/grad.   DampErr         ....    0.1000
 Fernandez-Rico         CNVRico         .... off

SCF Procedure:
 Maximum # iterations   MaxIter         ....   125
 SCF integral mode      SCFMode         .... Direct
   Integral package                     .... LIBINT
 Reset frequency        DirectResetFreq ....    20
 Integral Threshold     Thresh          ....  2.500e-11 Eh
 Primitive CutOff       TCut            ....  2.500e-12 Eh

Convergence Tolerance:
 Convergence Check Mode ConvCheckMode   .... Total+1el-Energy
 Convergence forced     ConvForced      .... 1
 Energy Change          TolE            ....  1.000e-08 Eh
 1-El. energy change                    ....  1.000e-05 Eh
 Orbital Gradient       TolG            ....  1.000e-05
 Orbital Rotation angle TolX            ....  1.000e-05
 DIIS Error             TolErr          ....  5.000e-07


Diagonalization of the overlap matrix:
Smallest eigenvalue                        ... 1.356e-04
Time for diagonalization                   ...    0.016 sec
Threshold for overlap eigenvalues          ... 1.000e-08
Number of eigenvalues below threshold      ... 0
Time for construction of square roots      ...    0.008 sec
Total time needed                          ...    0.024 sec

-------------------
DFT GRID GENERATION
-------------------

General Integration Accuracy     IntAcc      ...  4.340
Radial Grid Type                 RadialGrid  ... Gauss-Chebyshev
Angular Grid (max. acc.)         AngularGrid ... Lebedev-110
Angular grid pruning method      GridPruning ... 3 (G Style)
Weight generation scheme         WeightScheme... Becke
Basis function cutoff            BFCut       ...    1.0000e-11
Integration weight cutoff        WCut        ...    1.0000e-14
Grids for H and He will be reduced by one unit

# of grid points (after initial pruning)     ...  22188 (   0.0 sec)
# of grid points (after weights+screening)   ...  20563 (   0.0 sec)
nearest neighbour list constructed           ...    0.0 sec
Grid point re-assignment to atoms done       ...    0.0 sec
Grid point division into batches done        ...    0.0 sec
Reduced shell lists constructed in    0.0 sec

Total number of grid points                  ...    20563
Total number of batches                      ...      332
Average number of points per batch           ...       61
Average number of grid points per atom       ...     1142
Average number of shells per batch           ...    77.25 (57.22%)
Average number of basis functions per batch  ...   186.26 (55.93%)
Average number of large shells per batch     ...    57.07 (73.88%)
Average number of large basis fcns per batch ...   132.30 (71.03%)
Maximum spatial batch extension              ...  17.55, 17.58, 19.63 au
Average spatial batch extension              ...   0.65,  0.68,  0.75 au

Time for grid setup =    0.072 sec

------------------------------
INITIAL GUESS: MODEL POTENTIAL
------------------------------
Loading Hartree-Fock densities                     ... done
Calculating cut-offs                               ... done
Setting up the integral package                    ... done
Initializing the effective Hamiltonian             ... done
Starting the Coulomb interaction                   ... done (   0.0 sec)
Reading the grid                                   ... done
Mapping shells                                     ... done
Starting the XC term evaluation                    ... done (   0.1 sec)
Transforming the Hamiltonian                       ... done (   0.0 sec)
Diagonalizing the Hamiltonian                      ... done (   0.0 sec)
Back transforming the eigenvectors                 ... done (   0.0 sec)
Now organizing SCF variables                       ... done
                      ------------------
                      INITIAL GUESS DONE (   0.3 sec)
                      ------------------
--------------
SCF ITERATIONS
--------------
ITER       Energy         Delta-E        Max-DP      RMS-DP      [F,P]     Damp
               ***  Starting incremental Fock matrix formation  ***
  0   -395.4548458069   0.000000000000 0.03715891  0.00085539  0.2749945 0.7000
  1   -395.6232923012  -0.168446494285 0.02662140  0.00067616  0.1879043 0.7000
                               ***Turning on DIIS***
  2   -395.7225696487  -0.099277347587 0.01590747  0.00045814  0.1419385 0.7000
  3   -396.6845693606  -0.961999711895 0.01146717  0.00031227  0.1053812 0.7000
  4   -396.6270442857   0.057525074895 0.03053834  0.00076692  0.0742654 0.0000
  5   -395.9555237205   0.671520565271 0.00539699  0.00011067  0.0061038 0.0000
                      *** Initiating the SOSCF procedure ***
                           *** Shutting down DIIS ***
                      *** Re-Reading the Fockian *** 
                      *** Removing any level shift *** 
ITER      Energy       Delta-E        Grad      Rot      Max-DP    RMS-DP
  6   -395.93696343   0.0185602903  0.001154  0.001154  0.003726  0.000067
               *** Restarting incremental Fock matrix formation ***
  7   -395.92791634   0.0090470865  0.000461  0.000719  0.002469  0.000046
  8   -395.92793574  -0.0000193964  0.000246  0.000499  0.002136  0.000039
  9   -395.92794061  -0.0000048727  0.000106  0.000126  0.000662  0.000011
 10   -395.92794124  -0.0000006260  0.000019  0.000030  0.000095  0.000002
 11   -395.92794127  -0.0000000323  0.000014  0.000040  0.000036  0.000001
 12   -395.92794129  -0.0000000189  0.000005  0.000013  0.000035  0.000001
                  ***Gradient check signals convergence***
              ***Rediagonalizing the Fockian in SOSCF/NRSCF***

               *****************************************************
               *                     SUCCESS                       *
               *           SCF CONVERGED AFTER  13 CYCLES          *
               *****************************************************


----------------
TOTAL SCF ENERGY
----------------

Total Energy       :         -395.92794129 Eh          -10773.74701 eV

Components:
Nuclear Repulsion  :          375.52872412 Eh           10218.65609 eV
Electronic Energy  :         -771.45666541 Eh          -20992.40310 eV
One Electron Energy:        -1280.18345026 Eh          -34835.56269 eV
Two Electron Energy:          508.72678485 Eh           13843.15959 eV

Virial components:
Potential Energy   :         -791.11193580 Eh          -21527.25020 eV
Kinetic Energy     :          395.18399451 Eh           10753.50319 eV
Virial Ratio       :            2.00188253


---------------
SCF CONVERGENCE
---------------

  Last Energy change         ...   -3.7888e-09  Tolerance :   1.0000e-08
  Last MAX-Density change    ...    1.4556e-05  Tolerance :   1.0000e-07
  Last RMS-Density change    ...    2.6156e-07  Tolerance :   5.0000e-09
  Last Orbital Gradient      ...    2.1473e-06  Tolerance :   1.0000e-05
  Last Orbital Rotation      ...    5.9991e-06  Tolerance :   1.0000e-05

             **** THE GBW FILE WAS UPDATED (12mecn.remya.etal.2.mol1,4,5-orca.engrad-mp2.def2tzvp.frozencore.gbw) ****
             **** DENSITY FILE WAS UPDATED (12mecn.remya.etal.2.mol1,4,5-orca.engrad-mp2.def2tzvp.frozencore.scfp) ****
             **** ENERGY FILE WAS UPDATED (12mecn.remya.etal.2.mol1,4,5-orca.engrad-mp2.def2tzvp.frozencore.en.tmp) ****
             **** THE GBW FILE WAS UPDATED (12mecn.remya.etal.2.mol1,4,5-orca.engrad-mp2.def2tzvp.frozencore.gbw) ****
             **** DENSITY FILE WAS UPDATED (12mecn.remya.etal.2.mol1,4,5-orca.engrad-mp2.def2tzvp.frozencore.scfp) ****
----------------
ORBITAL ENERGIES
----------------

  NO   OCC          E(Eh)            E(eV) 
   0   2.0000     -15.571805      -423.7303 
   1   2.0000     -15.571236      -423.7149 
   2   2.0000     -15.568755      -423.6474 
   3   2.0000     -11.284823      -307.0756 
   4   2.0000     -11.281856      -306.9949 
   5   2.0000     -11.280825      -306.9669 
   6   2.0000     -11.278509      -306.9038 
   7   2.0000     -11.277853      -306.8860 
   8   2.0000     -11.260713      -306.4196 
   9   2.0000      -1.218890       -33.1677 
  10   2.0000      -1.214556       -33.0498 
  11   2.0000      -1.212947       -33.0060 
  12   2.0000      -1.041566       -28.3424 
  13   2.0000      -1.038793       -28.2670 
  14   2.0000      -1.026877       -27.9428 
  15   2.0000      -0.698778       -19.0147 
  16   2.0000      -0.695345       -18.9213 
  17   2.0000      -0.684362       -18.6224 
  18   2.0000      -0.636204       -17.3120 
  19   2.0000      -0.633857       -17.2481 
  20   2.0000      -0.627858       -17.0849 
  21   2.0000      -0.622405       -16.9365 
  22   2.0000      -0.612307       -16.6617 
  23   2.0000      -0.608995       -16.5716 
  24   2.0000      -0.559648       -15.2288 
  25   2.0000      -0.555817       -15.1245 
  26   2.0000      -0.555105       -15.1052 
  27   2.0000      -0.464349       -12.6356 
  28   2.0000      -0.460522       -12.5314 
  29   2.0000      -0.458657       -12.4807 
  30   2.0000      -0.455805       -12.4031 
  31   2.0000      -0.453610       -12.3434 
  32   2.0000      -0.451257       -12.2793 
  33   0.0000       0.111289         3.0283 
  34   0.0000       0.149170         4.0591 
  35   0.0000       0.153890         4.1875 
  36   0.0000       0.158488         4.3127 
  37   0.0000       0.163365         4.4454 
  38   0.0000       0.178312         4.8521 
  39   0.0000       0.185059         5.0357 
  40   0.0000       0.189898         5.1674 
  41   0.0000       0.197804         5.3825 
  42   0.0000       0.203447         5.5361 
  43   0.0000       0.210252         5.7212 
  44   0.0000       0.219546         5.9741 
  45   0.0000       0.223239         6.0747 
  46   0.0000       0.242410         6.5963 
  47   0.0000       0.248506         6.7622 
  48   0.0000       0.255071         6.9408 
  49   0.0000       0.266968         7.2646 
  50   0.0000       0.284268         7.7353 
  51   0.0000       0.294053         8.0016 
  52   0.0000       0.302043         8.2190 
  53   0.0000       0.310578         8.4512 
  54   0.0000       0.319348         8.6899 
  55   0.0000       0.333136         9.0651 
  56   0.0000       0.338944         9.2231 
  57   0.0000       0.347269         9.4497 
  58   0.0000       0.373124        10.1532 
  59   0.0000       0.382162        10.3991 
  60   0.0000       0.399256        10.8643 
  61   0.0000       0.413059        11.2399 
  62   0.0000       0.454090        12.3564 
  63   0.0000       0.454809        12.3760 
  64   0.0000       0.461258        12.5515 
  65   0.0000       0.474669        12.9164 
  66   0.0000       0.490433        13.3454 
  67   0.0000       0.501454        13.6453 
  68   0.0000       0.513626        13.9765 
  69   0.0000       0.532271        14.4838 
  70   0.0000       0.537074        14.6145 
  71   0.0000       0.547092        14.8871 
  72   0.0000       0.552520        15.0348 
  73   0.0000       0.564097        15.3499 
  74   0.0000       0.574610        15.6359 
  75   0.0000       0.594739        16.1837 
  76   0.0000       0.603150        16.4126 
  77   0.0000       0.610996        16.6261 
  78   0.0000       0.626798        17.0560 
  79   0.0000       0.631987        17.1972 
  80   0.0000       0.636122        17.3098 
  81   0.0000       0.644298        17.5322 
  82   0.0000       0.655494        17.8369 
  83   0.0000       0.670619        18.2485 
  84   0.0000       0.679985        18.5033 
  85   0.0000       0.698374        19.0037 
  86   0.0000       0.713195        19.4070 
  87   0.0000       0.724524        19.7153 
  88   0.0000       0.737656        20.0726 
  89   0.0000       0.751900        20.4602 
  90   0.0000       0.766945        20.8696 
  91   0.0000       0.787941        21.4410 
  92   0.0000       0.803721        21.8704 
  93   0.0000       0.807851        21.9827 
  94   0.0000       0.818743        22.2791 
  95   0.0000       0.836762        22.7695 
  96   0.0000       0.855108        23.2687 
  97   0.0000       0.891199        24.2508 
  98   0.0000       0.897746        24.4289 
  99   0.0000       0.912181        24.8217 
 100   0.0000       0.928919        25.2772 
 101   0.0000       0.929290        25.2873 
 102   0.0000       0.949123        25.8269 
 103   0.0000       0.964723        26.2515 
 104   0.0000       0.976899        26.5828 
 105   0.0000       0.995371        27.0854 
 106   0.0000       1.032103        28.0850 
 107   0.0000       1.054359        28.6906 
 108   0.0000       1.074337        29.2342 
 109   0.0000       1.092277        29.7224 
 110   0.0000       1.119986        30.4764 
 111   0.0000       1.148174        31.2434 
 112   0.0000       1.156148        31.4604 
 113   0.0000       1.174337        31.9553 
 114   0.0000       1.182597        32.1801 
 115   0.0000       1.195833        32.5403 
 116   0.0000       1.226488        33.3744 
 117   0.0000       1.333311        36.2812 
 118   0.0000       1.338838        36.4316 
 119   0.0000       1.345209        36.6050 
 120   0.0000       1.390060        37.8255 
 121   0.0000       1.412723        38.4421 
 122   0.0000       1.421091        38.6699 
 123   0.0000       1.447275        39.3824 
 124   0.0000       1.448569        39.4176 
 125   0.0000       1.452692        39.5298 
 126   0.0000       1.459397        39.7122 
 127   0.0000       1.474207        40.1152 
 128   0.0000       1.481065        40.3018 
 129   0.0000       1.487221        40.4693 
 130   0.0000       1.491905        40.5968 
 131   0.0000       1.501809        40.8663 
 132   0.0000       1.523818        41.4652 
 133   0.0000       1.527513        41.5657 
 134   0.0000       1.531560        41.6759 
 135   0.0000       1.547595        42.1122 
 136   0.0000       1.598804        43.5057 
 137   0.0000       1.620056        44.0840 
 138   0.0000       1.719227        46.7825 
 139   0.0000       1.729049        47.0498 
 140   0.0000       1.734201        47.1900 
 141   0.0000       1.745074        47.4859 
 142   0.0000       1.755610        47.7726 
 143   0.0000       1.761501        47.9329 
 144   0.0000       1.776471        48.3402 
 145   0.0000       1.784831        48.5677 
 146   0.0000       1.798956        48.9521 
 147   0.0000       1.803252        49.0690 
 148   0.0000       1.815760        49.4094 
 149   0.0000       1.817715        49.4625 
 150   0.0000       1.847302        50.2677 
 151   0.0000       1.848689        50.3054 
 152   0.0000       1.859558        50.6012 
 153   0.0000       1.883413        51.2503 
 154   0.0000       1.929203        52.4963 
 155   0.0000       1.935047        52.6553 
 156   0.0000       1.945362        52.9360 
 157   0.0000       1.962678        53.4072 
 158   0.0000       1.967944        53.5505 
 159   0.0000       1.984118        53.9906 
 160   0.0000       1.987759        54.0897 
 161   0.0000       2.019964        54.9660 
 162   0.0000       2.022829        55.0440 
 163   0.0000       2.039808        55.5060 
 164   0.0000       2.063659        56.1550 
 165   0.0000       2.215448        60.2854 
 166   0.0000       2.237884        60.8959 
 167   0.0000       2.240617        60.9703 
 168   0.0000       2.252313        61.2886 
 169   0.0000       2.275200        61.9113 
 170   0.0000       2.280809        62.0640 
 171   0.0000       2.290882        62.3381 
 172   0.0000       2.302564        62.6560 
 173   0.0000       2.345630        63.8278 
 174   0.0000       2.402426        65.3733 
 175   0.0000       2.445587        66.5478 
 176   0.0000       2.466295        67.1113 
 177   0.0000       2.549828        69.3843 
 178   0.0000       2.554020        69.4984 
 179   0.0000       2.581033        70.2335 
 180   0.0000       2.584568        70.3297 
 181   0.0000       2.591955        70.5307 
 182   0.0000       2.602690        70.8228 
 183   0.0000       2.625608        71.4464 
 184   0.0000       2.626639        71.4745 
 185   0.0000       2.641692        71.8841 
 186   0.0000       2.644786        71.9683 
 187   0.0000       2.650973        72.1366 
 188   0.0000       2.665610        72.5349 
 189   0.0000       2.676133        72.8213 
 190   0.0000       2.694614        73.3242 
 191   0.0000       2.695129        73.3382 
 192   0.0000       2.723461        74.1091 
 193   0.0000       2.745731        74.7151 
 194   0.0000       2.754221        74.9462 
 195   0.0000       2.759526        75.0905 
 196   0.0000       2.770748        75.3959 
 197   0.0000       2.789155        75.8968 
 198   0.0000       2.795766        76.0767 
 199   0.0000       2.831664        77.0535 
 200   0.0000       2.854277        77.6688 
 201   0.0000       2.913036        79.2677 
 202   0.0000       2.914893        79.3183 
 203   0.0000       2.916806        79.3703 
 204   0.0000       2.917702        79.3947 
 205   0.0000       2.919123        79.4334 
 206   0.0000       2.926819        79.6428 
 207   0.0000       2.946531        80.1792 
 208   0.0000       2.957308        80.4725 
 209   0.0000       2.962056        80.6016 
 210   0.0000       2.968287        80.7712 
 211   0.0000       2.998999        81.6069 
 212   0.0000       3.011774        81.9545 
 213   0.0000       3.043265        82.8115 
 214   0.0000       3.056635        83.1753 
 215   0.0000       3.058506        83.2262 
 216   0.0000       3.096776        84.2676 
 217   0.0000       3.101907        84.4072 
 218   0.0000       3.103998        84.4641 
 219   0.0000       3.115746        84.7838 
 220   0.0000       3.130343        85.1810 
 221   0.0000       3.162168        86.0470 
 222   0.0000       3.214741        87.4776 
 223   0.0000       3.225358        87.7665 
 224   0.0000       3.242681        88.2378 
 225   0.0000       3.267393        88.9103 
 226   0.0000       3.269685        88.9726 
 227   0.0000       3.277252        89.1786 
 228   0.0000       3.306809        89.9828 
 229   0.0000       3.317820        90.2825 
 230   0.0000       3.325578        90.4936 
 231   0.0000       3.333660        90.7135 
 232   0.0000       3.359377        91.4133 
 233   0.0000       3.370224        91.7085 
 234   0.0000       3.395661        92.4006 
 235   0.0000       3.411538        92.8327 
 236   0.0000       3.442909        93.6863 
 237   0.0000       3.457403        94.0807 
 238   0.0000       3.465874        94.3112 
 239   0.0000       3.479596        94.6846 
 240   0.0000       3.487635        94.9034 
 241   0.0000       3.496311        95.1395 
 242   0.0000       3.544949        96.4630 
 243   0.0000       3.555301        96.7447 
 244   0.0000       3.582933        97.4966 
 245   0.0000       3.599041        97.9349 
 246   0.0000       3.651708        99.3680 
 247   0.0000       3.663259        99.6823 
 248   0.0000       3.665491        99.7431 
 249   0.0000       3.679237       100.1171 
 250   0.0000       3.684765       100.2676 
 251   0.0000       3.698498       100.6413 
 252   0.0000       3.802343       103.4670 
 253   0.0000       3.804308       103.5205 
 254   0.0000       3.813329       103.7659 
 255   0.0000       3.820546       103.9623 
 256   0.0000       3.836517       104.3969 
 257   0.0000       3.867271       105.2338 
 258   0.0000       3.939195       107.1909 
 259   0.0000       3.944913       107.3465 
 260   0.0000       3.949026       107.4585 
 261   0.0000       3.961595       107.8005 
 262   0.0000       3.966444       107.9324 
 263   0.0000       3.969537       108.0166 
 264   0.0000       3.981845       108.3515 
 265   0.0000       4.007374       109.0462 
 266   0.0000       4.021656       109.4348 
 267   0.0000       4.246342       115.5488 
 268   0.0000       4.252318       115.7115 
 269   0.0000       4.255086       115.7868 
 270   0.0000       4.271194       116.2251 
 271   0.0000       4.300463       117.0216 
 272   0.0000       4.310985       117.3079 
 273   0.0000       4.341709       118.1439 
 274   0.0000       4.344671       118.2245 
 275   0.0000       4.346993       118.2877 
 276   0.0000       4.347686       118.3065 
 277   0.0000       4.352660       118.4419 
 278   0.0000       4.359110       118.6174 
 279   0.0000       4.581236       124.6618 
 280   0.0000       4.584173       124.7417 
 281   0.0000       4.600818       125.1946 
 282   0.0000       4.737588       128.9163 
 283   0.0000       4.759322       129.5077 
 284   0.0000       4.771309       129.8339 
 285   0.0000       4.784380       130.1896 
 286   0.0000       4.788876       130.3119 
 287   0.0000       4.814699       131.0146 
 288   0.0000       4.847624       131.9106 
 289   0.0000       4.879593       132.7805 
 290   0.0000       4.891738       133.1110 
 291   0.0000       4.968171       135.1908 
 292   0.0000       4.970057       135.2421 
 293   0.0000       4.976682       135.4224 
 294   0.0000       4.990374       135.7950 
 295   0.0000       5.013177       136.4155 
 296   0.0000       5.020367       136.6111 
 297   0.0000       5.063859       137.7946 
 298   0.0000       5.075522       138.1120 
 299   0.0000       5.080155       138.2380 
 300   0.0000       5.086636       138.4144 
 301   0.0000       5.115506       139.2000 
 302   0.0000       5.122404       139.3877 
 303   0.0000       5.209529       141.7585 
 304   0.0000       5.240585       142.6036 
 305   0.0000       5.263574       143.2291 
 306   0.0000       5.554815       151.1542 
 307   0.0000       5.571711       151.6140 
 308   0.0000       5.577448       151.7701 
 309   0.0000       5.585320       151.9843 
 310   0.0000       5.609952       152.6546 
 311   0.0000       5.615680       152.8104 
 312   0.0000       6.023434       163.9060 
 313   0.0000       6.032287       164.1469 
 314   0.0000       6.036270       164.2553 
 315   0.0000       6.084828       165.5766 
 316   0.0000       6.088964       165.6891 
 317   0.0000       6.104503       166.1120 
 318   0.0000       6.113962       166.3694 
 319   0.0000       6.163549       167.7187 
 320   0.0000       6.192443       168.5049 
 321   0.0000       6.471344       176.0942 
 322   0.0000       6.481726       176.3767 
 323   0.0000       6.492326       176.6652 
 324   0.0000      23.486273       639.0940 
 325   0.0000      23.535947       640.4457 
 326   0.0000      23.558688       641.0645 
 327   0.0000      24.379101       663.3891 
 328   0.0000      24.412764       664.3051 
 329   0.0000      24.423602       664.6000 
 330   0.0000      33.476161       910.9326 
 331   0.0000      33.490137       911.3130 
 332   0.0000      33.512759       911.9285 

                    ********************************
                    * MULLIKEN POPULATION ANALYSIS *
                    ********************************

-----------------------
MULLIKEN ATOMIC CHARGES
-----------------------
   0 C :   -0.184332
   1 H :    0.140137
   2 H :    0.193217
   3 H :    0.161695
   4 C :   -0.070197
   5 N :   -0.240724
   6 C :   -0.154818
   7 H :    0.150135
   8 H :    0.157595
   9 H :    0.201616
  10 C :   -0.038704
  11 N :   -0.316224
  12 C :   -0.184595
  13 H :    0.143102
  14 H :    0.162098
  15 H :    0.188842
  16 C :   -0.081871
  17 N :   -0.226973
Sum of atomic charges:    0.0000000

--------------------------------
MULLIKEN REDUCED ORBITAL CHARGES
--------------------------------
  0 C s       :     3.149014  s :     3.149014
      pz      :     0.783133  p :     2.969303
      px      :     1.115080
      py      :     1.071091
      dz2     :     0.017894  d :     0.062537
      dxz     :     0.011488
      dyz     :     0.011021
      dx2y2   :     0.010748
      dxy     :     0.011386
      f0      :     0.001741  f :     0.003478
      f+1     :     0.000206
      f-1     :     0.000190
      f+2     :     0.000044
      f-2     :     0.000087
      f+3     :     0.000486
      f-3     :     0.000723
  1 H s       :     0.837649  s :     0.837649
      pz      :     0.004843  p :     0.022214
      px      :     0.004233
      py      :     0.013137
  2 H s       :     0.783645  s :     0.783645
      pz      :     0.004519  p :     0.023138
      px      :     0.014012
      py      :     0.004607
  3 H s       :     0.815873  s :     0.815873
      pz      :     0.004978  p :     0.022433
      px      :     0.008843
      py      :     0.008611
  4 C s       :     3.247865  s :     3.247865
      pz      :     0.952966  p :     2.690291
      px      :     0.859122
      py      :     0.878204
      dz2     :     0.025173  d :     0.114611
      dxz     :     0.044830
      dyz     :     0.043795
      dx2y2   :     0.000498
      dxy     :     0.000315
      f0      :     0.004074  f :     0.017430
      f+1     :     0.006697
      f-1     :     0.006590
      f+2     :     0.000037
      f-2     :     0.000029
      f+3     :     0.000003
      f-3     :     0.000002
  5 N s       :     3.742210  s :     3.742210
      pz      :     1.275134  p :     3.441735
      px      :     1.091520
      py      :     1.075081
      dz2     :     0.011207  d :     0.053840
      dxz     :     0.021286
      dyz     :     0.021208
      dx2y2   :     0.000108
      dxy     :     0.000032
      f0      :     0.000616  f :     0.002939
      f+1     :     0.001155
      f-1     :     0.001164
      f+2     :     0.000002
      f-2     :     0.000001
      f+3     :     0.000001
      f-3     :     0.000000
  6 C s       :     3.137888  s :     3.137888
      pz      :     0.761163  p :     2.953174
      px      :     1.123986
      py      :     1.068024
      dz2     :     0.017260  d :     0.060300
      dxz     :     0.009691
      dyz     :     0.010153
      dx2y2   :     0.011650
      dxy     :     0.011546
      f0      :     0.001730  f :     0.003456
      f+1     :     0.000196
      f-1     :     0.000178
      f+2     :     0.000056
      f-2     :     0.000060
      f+3     :     0.000353
      f-3     :     0.000882
  7 H s       :     0.827631  s :     0.827631
      pz      :     0.005204  p :     0.022234
      px      :     0.004039
      py      :     0.012991
  8 H s       :     0.819802  s :     0.819802
      pz      :     0.004748  p :     0.022602
      px      :     0.009124
      py      :     0.008730
  9 H s       :     0.774871  s :     0.774871
      pz      :     0.004360  p :     0.023513
      px      :     0.014111
      py      :     0.005043
 10 C s       :     3.269208  s :     3.269208
      pz      :     0.960727  p :     2.635610
      px      :     0.834657
      py      :     0.840226
      dz2     :     0.021552  d :     0.116501
      dxz     :     0.046823
      dyz     :     0.046772
      dx2y2   :     0.000766
      dxy     :     0.000588
      f0      :     0.004008  f :     0.017385
      f+1     :     0.006637
      f-1     :     0.006603
      f+2     :     0.000055
      f-2     :     0.000072
      f+3     :     0.000005
      f-3     :     0.000005
 11 N s       :     3.750192  s :     3.750192
      pz      :     1.269644  p :     3.511035
      px      :     1.121302
      py      :     1.120088
      dz2     :     0.010634  d :     0.052079
      dxz     :     0.020570
      dyz     :     0.020517
      dx2y2   :     0.000236
      dxy     :     0.000123
      f0      :     0.000620  f :     0.002918
      f+1     :     0.001143
      f-1     :     0.001140
      f+2     :     0.000007
      f-2     :     0.000005
      f+3     :     0.000001
      f-3     :     0.000001
 12 C s       :     3.151431  s :     3.151431
      pz      :     0.784617  p :     2.967027
      px      :     1.074887
      py      :     1.107522
      dz2     :     0.017893  d :     0.062652
      dxz     :     0.010549
      dyz     :     0.012114
      dx2y2   :     0.010592
      dxy     :     0.011504
      f0      :     0.001733  f :     0.003485
      f+1     :     0.000195
      f-1     :     0.000214
      f+2     :     0.000067
      f-2     :     0.000065
      f+3     :     0.000264
      f-3     :     0.000947
 13 H s       :     0.834692  s :     0.834692
      pz      :     0.004748  p :     0.022206
      px      :     0.012450
      py      :     0.005009
 14 H s       :     0.815529  s :     0.815529
      pz      :     0.004722  p :     0.022373
      px      :     0.009858
      py      :     0.007793
 15 H s       :     0.788169  s :     0.788169
      pz      :     0.004826  p :     0.022989
      px      :     0.003895
      py      :     0.014267
 16 C s       :     3.249587  s :     3.249587
      pz      :     0.955754  p :     2.698866
      px      :     0.879306
      py      :     0.863806
      dz2     :     0.026516  d :     0.116004
      dxz     :     0.043425
      dyz     :     0.045231
      dx2y2   :     0.000411
      dxy     :     0.000422
      f0      :     0.004094  f :     0.017414
      f+1     :     0.006557
      f-1     :     0.006686
      f+2     :     0.000028
      f-2     :     0.000045
      f+3     :     0.000001
      f-3     :     0.000004
 17 N s       :     3.731612  s :     3.731612
      pz      :     1.280270  p :     3.438218
      px      :     1.073943
      py      :     1.084004
      dz2     :     0.011396  d :     0.054204
      dxz     :     0.021381
      dyz     :     0.021372
      dx2y2   :     0.000036
      dxy     :     0.000020
      f0      :     0.000618  f :     0.002939
      f+1     :     0.001165
      f-1     :     0.001153
      f+2     :     0.000001
      f-2     :     0.000001
      f+3     :     0.000000
      f-3     :     0.000001


                     *******************************
                     * LOEWDIN POPULATION ANALYSIS *
                     *******************************

----------------------
LOEWDIN ATOMIC CHARGES
----------------------
   0 C :   -0.247712
   1 H :    0.140038
   2 H :    0.148955
   3 H :    0.143154
   4 C :   -0.188774
   5 N :    0.005435
   6 C :   -0.243374
   7 H :    0.141430
   8 H :    0.147181
   9 H :    0.154599
  10 C :   -0.173286
  11 N :   -0.031189
  12 C :   -0.247697
  13 H :    0.139897
  14 H :    0.144653
  15 H :    0.147571
  16 C :   -0.191322
  17 N :    0.010440

-------------------------------
LOEWDIN REDUCED ORBITAL CHARGES
-------------------------------
  0 C s       :     2.812380  s :     2.812380
      pz      :     1.024068  p :     3.150138
      px      :     1.071984
      py      :     1.054085
      dz2     :     0.078435  d :     0.259857
      dxz     :     0.059250
      dyz     :     0.061438
      dx2y2   :     0.030267
      dxy     :     0.030467
      f0      :     0.007537  f :     0.025338
      f+1     :     0.005060
      f-1     :     0.005083
      f+2     :     0.002098
      f-2     :     0.002287
      f+3     :     0.001322
      f-3     :     0.001951
  1 H s       :     0.799729  s :     0.799729
      pz      :     0.012608  p :     0.060233
      px      :     0.013746
      py      :     0.033879
  2 H s       :     0.787136  s :     0.787136
      pz      :     0.012262  p :     0.063909
      px      :     0.037230
      py      :     0.014417
  3 H s       :     0.795883  s :     0.795883
      pz      :     0.012985  p :     0.060963
      px      :     0.024499
      py      :     0.023479
  4 C s       :     2.839032  s :     2.839032
      pz      :     1.193052  p :     2.834900
      px      :     0.816879
      py      :     0.824969
      dz2     :     0.155244  d :     0.455478
      dxz     :     0.151028
      dyz     :     0.147977
      dx2y2   :     0.000812
      dxy     :     0.000417
      f0      :     0.022998  f :     0.059365
      f+1     :     0.018384
      f-1     :     0.017847
      f+2     :     0.000073
      f-2     :     0.000052
      f+3     :     0.000007
      f-3     :     0.000004
  5 N s       :     3.307852  s :     3.307852
      pz      :     1.494753  p :     3.562687
      px      :     1.036726
      py      :     1.031209
      dz2     :     0.045648  d :     0.109790
      dxz     :     0.031874
      dyz     :     0.032086
      dx2y2   :     0.000145
      dxy     :     0.000036
      f0      :     0.006240  f :     0.014235
      f+1     :     0.003957
      f-1     :     0.004028
      f+2     :     0.000006
      f-2     :     0.000003
      f+3     :     0.000002
      f-3     :     0.000000
  6 C s       :     2.814241  s :     2.814241
      pz      :     1.015654  p :     3.149528
      px      :     1.075478
      py      :     1.058395
      dz2     :     0.080701  d :     0.254598
      dxz     :     0.053106
      dyz     :     0.058953
      dx2y2   :     0.030481
      dxy     :     0.031357
      f0      :     0.007796  f :     0.025008
      f+1     :     0.005034
      f-1     :     0.004638
      f+2     :     0.002213
      f-2     :     0.002025
      f+3     :     0.000950
      f-3     :     0.002352
  7 H s       :     0.798235  s :     0.798235
      pz      :     0.013248  p :     0.060335
      px      :     0.013398
      py      :     0.033690
  8 H s       :     0.791564  s :     0.791564
      pz      :     0.012374  p :     0.061255
      px      :     0.025406
      py      :     0.023475
  9 H s       :     0.780882  s :     0.780882
      pz      :     0.011766  p :     0.064518
      px      :     0.037575
      py      :     0.015177
 10 C s       :     2.843435  s :     2.843435
      pz      :     1.198205  p :     2.802303
      px      :     0.801419
      py      :     0.802678
      dz2     :     0.154790  d :     0.467374
      dxz     :     0.155902
      dyz     :     0.154197
      dx2y2   :     0.001473
      dxy     :     0.001014
      f0      :     0.022688  f :     0.060174
      f+1     :     0.018593
      f-1     :     0.018597
      f+2     :     0.000116
      f-2     :     0.000159
      f+3     :     0.000010
      f-3     :     0.000011
 11 N s       :     3.302729  s :     3.302729
      pz      :     1.495132  p :     3.609151
      px      :     1.057098
      py      :     1.056921
      dz2     :     0.045179  d :     0.105431
      dxz     :     0.029915
      dyz     :     0.029951
      dx2y2   :     0.000270
      dxy     :     0.000116
      f0      :     0.006225  f :     0.013878
      f+1     :     0.003790
      f-1     :     0.003817
      f+2     :     0.000024
      f-2     :     0.000018
      f+3     :     0.000001
      f-3     :     0.000001
 12 C s       :     2.813083  s :     2.813083
      pz      :     1.024851  p :     3.149281
      px      :     1.055166
      py      :     1.069265
      dz2     :     0.078454  d :     0.260015
      dxz     :     0.059403
      dyz     :     0.061166
      dx2y2   :     0.029184
      dxy     :     0.031808
      f0      :     0.007497  f :     0.025318
      f+1     :     0.005255
      f-1     :     0.004932
      f+2     :     0.002284
      f-2     :     0.002076
      f+3     :     0.000715
      f-3     :     0.002560
 13 H s       :     0.799744  s :     0.799744
      pz      :     0.012441  p :     0.060359
      px      :     0.032358
      py      :     0.015560
 14 H s       :     0.794786  s :     0.794786
      pz      :     0.012455  p :     0.060561
      px      :     0.026269
      py      :     0.021838
 15 H s       :     0.789005  s :     0.789005
      pz      :     0.012892  p :     0.063423
      px      :     0.012697
      py      :     0.037834
 16 C s       :     2.839400  s :     2.839400
      pz      :     1.193342  p :     2.837931
      px      :     0.825857
      py      :     0.818732
      dz2     :     0.155445  d :     0.454726
      dxz     :     0.147457
      dyz     :     0.150511
      dx2y2   :     0.000658
      dxy     :     0.000656
      f0      :     0.023014  f :     0.059265
      f+1     :     0.017770
      f-1     :     0.018320
      f+2     :     0.000047
      f-2     :     0.000103
      f+3     :     0.000003
      f-3     :     0.000008
 17 N s       :     3.308300  s :     3.308300
      pz      :     1.494740  p :     3.556903
      px      :     1.030283
      py      :     1.031880
      dz2     :     0.045771  d :     0.110098
      dxz     :     0.032254
      dyz     :     0.031991
      dx2y2   :     0.000051
      dxy     :     0.000032
      f0      :     0.006240  f :     0.014259
      f+1     :     0.004030
      f-1     :     0.003979
      f+2     :     0.000005
      f-2     :     0.000004
      f+3     :     0.000000
      f-3     :     0.000001


                      *****************************
                      * MAYER POPULATION ANALYSIS *
                      *****************************

  NA   - Mulliken gross atomic population
  ZA   - Total nuclear charge
  QA   - Mulliken gross atomic charge
  VA   - Mayer's total valence
  BVA  - Mayer's bonded valence
  FA   - Mayer's free valence

  ATOM       NA         ZA         QA         VA         BVA        FA
  0 C      6.1843     6.0000    -0.1843     3.7935     3.7935     0.0000
  1 H      0.8599     1.0000     0.1401     0.9638     0.9638     0.0000
  2 H      0.8068     1.0000     0.1932     0.9613     0.9613     0.0000
  3 H      0.8383     1.0000     0.1617     0.9609     0.9609     0.0000
  4 C      6.0702     6.0000    -0.0702     3.8612     3.8612    -0.0000
  5 N      7.2407     7.0000    -0.2407     2.9877     2.9877     0.0000
  6 C      6.1548     6.0000    -0.1548     3.7758     3.7758    -0.0000
  7 H      0.8499     1.0000     0.1501     0.9585     0.9585     0.0000
  8 H      0.8424     1.0000     0.1576     0.9682     0.9682    -0.0000
  9 H      0.7984     1.0000     0.2016     0.9630     0.9630    -0.0000
 10 C      6.0387     6.0000    -0.0387     3.8646     3.8646     0.0000
 11 N      7.3162     7.0000    -0.3162     2.9483     2.9483     0.0000
 12 C      6.1846     6.0000    -0.1846     3.7913     3.7913     0.0000
 13 H      0.8569     1.0000     0.1431     0.9639     0.9639     0.0000
 14 H      0.8379     1.0000     0.1621     0.9613     0.9613     0.0000
 15 H      0.8112     1.0000     0.1888     0.9612     0.9612     0.0000
 16 C      6.0819     6.0000    -0.0819     3.8769     3.8769     0.0000
 17 N      7.2270     7.0000    -0.2270     3.0050     3.0050    -0.0000

  Mayer bond orders larger than 0.100000
B(  0-C ,  1-H ) :   0.9670 B(  0-C ,  2-H ) :   0.9573 B(  0-C ,  3-H ) :   0.9568 
B(  0-C ,  4-C ) :   0.9219 B(  4-C ,  5-N ) :   2.9549 B(  6-C ,  7-H ) :   0.9548 
B(  6-C ,  8-H ) :   0.9593 B(  6-C ,  9-H ) :   0.9478 B(  6-C , 10-C ) :   0.9332 
B( 10-C , 11-N ) :   2.9092 B( 12-C , 13-H ) :   0.9708 B( 12-C , 14-H ) :   0.9553 
B( 12-C , 15-H ) :   0.9566 B( 12-C , 16-C ) :   0.9201 B( 16-C , 17-N ) :   2.9733 


-------
TIMINGS
-------

Total SCF time: 0 days 0 hours 0 min 58 sec 

Total time                  ....      58.101 sec
Sum of individual times     ....      57.796 sec  ( 99.5%)

Fock matrix formation       ....      57.204 sec  ( 98.5%)
Diagonalization             ....       0.140 sec  (  0.2%)
Density matrix formation    ....       0.016 sec  (  0.0%)
Population analysis         ....       0.027 sec  (  0.0%)
Initial guess               ....       0.199 sec  (  0.3%)
Orbital Transformation      ....       0.000 sec  (  0.0%)
Orbital Orthonormalization  ....       0.000 sec  (  0.0%)
DIIS solution               ....       0.052 sec  (  0.1%)
SOSCF solution              ....       0.087 sec  (  0.1%)


           ************************************************************
           *        Program running with 6 parallel MPI-processes     *
           *              working on a common directory               *
           ************************************************************

------------------------------------------------------------------------------
                                ORCA  MP2 
------------------------------------------------------------------------------

Freezing NCore=18 chemical core electrons
MP2 will be done in the AO integral direct mode
The Q1-step will be done using symmetric double matrices
Dimension of the basis                    ...  333
Memory devoted for MP2                    ... 8000 MB   
Memory needed for all in one shot         ...  566 MB
Number of MOs that can be treated together...   55      
MP2 density construction                  ... relaxed
The MP2 gradient is requested => amplitudes will be stored on disk
Total number of MOs              ...   24
Number of MOs treated per batch  ...    4 
Number of batches necessary      ...    1 
OPERATORS   0/  0 PASS   0
-----------------------------------------------
 MP2 CORRELATION ENERGY   :     -1.538800345 Eh
-----------------------------------------------


---------------------
MP2 DENSITY FORMATION
---------------------

Completing the external part of the density      ... done
Storing the unrelaxed density                    ... done

Calculating G(D)                                 ... done
Completing the Lagrangian                        ... done
Solving the Z-vector equations                   ... 

------------------------------------------------------------------------------
                           ORCA CP-SCF CALCULATION
------------------------------------------------------------------------------

Input orbitals are from        ... 12mecn.remya.etal.2.mol1,4,5-orca.engrad-mp2.def2tzvp.frozencore.gbw
Input Perturbation             ... 12mecn.remya.etal.2.mol1,4,5-orca.engrad-mp2.def2tzvp.frozencore.pin.tmp
Wavefunction output            ... 12mecn.remya.etal.2.mol1,4,5-orca.engrad-mp2.def2tzvp.frozencore.pout.tmp
Perturbation mode              ... Real perturbation (singlet)
Solver                         ... POPLE
Max. number of iterations      ... 128
Convergence tolerance          ... 1.000e-08
Integral handling              ... Direct
Number of perturbations        ... 1
Number of operators            ... 1
Orbital ranges used for CP-SCF:
 Operator 0:  Orbitals   0... 32  to  33...332
Variables per vector in CP-SCF ... 9900
Number of vectors sought       ... 1
     CP-SCF ITERATION   0: 
     CP-SCF ITERATION   1:      0.001689293012
     CP-SCF ITERATION   2:      0.000260427833
     CP-SCF ITERATION   3:      0.000011710534
     CP-SCF ITERATION   4:      0.000004111895
     CP-SCF ITERATION   5:      0.000001346236
     CP-SCF ITERATION   6:      0.000000177474
     CP-SCF ITERATION   7:      0.000000016650
     CP-SCF ITERATION   8:      0.000000000753
                                                 ... done
Finalizing the relaxed density                   ... done
Transforming P to the AO basis                   ... done
Storing the relaxed density                      ... done

------------------------------------
ENERGY WEIGHTED DENSITY FINALIZATION
------------------------------------

Gathering the parts of the W-matrix              ...                                                      done
Forming the Z-density                            ... done
Transforming Z to the AO basis                   ... done
Calculating G(Z)                                 ... done
Finalizing the W-matrix                          ...                                                      done
Transforming W to the AO basis and storing       ... done

                *********************************************
                * UNRELAXED MP2 DENSITY POPULATION ANALYSIS *
                *********************************************

------------------------------------------------------------------------------
                           ORCA POPULATION ANALYSIS
------------------------------------------------------------------------------
Input electron density              ... 12mecn.remya.etal.2.mol1,4,5-orca.engrad-mp2.def2tzvp.frozencore.pmp2ur
BaseName (.gbw .S,...)              ... 12mecn.remya.etal.2.mol1,4,5-orca.engrad-mp2.def2tzvp.frozencore

                    ********************************
                    * MULLIKEN POPULATION ANALYSIS *
                    ********************************

-----------------------
MULLIKEN ATOMIC CHARGES
-----------------------
   0 C :   -0.197331
   1 H :    0.142903
   2 H :    0.195192
   3 H :    0.164510
   4 C :   -0.080215
   5 N :   -0.225107
   6 C :   -0.167894
   7 H :    0.152974
   8 H :    0.160380
   9 H :    0.203505
  10 C :   -0.051409
  11 N :   -0.298393
  12 C :   -0.197472
  13 H :    0.145887
  14 H :    0.164906
  15 H :    0.190767
  16 C :   -0.091890
  17 N :   -0.211314
Sum of atomic charges:    0.0000000

--------------------------------
MULLIKEN REDUCED ORBITAL CHARGES
--------------------------------
  0 C s       :     3.147428  s :     3.147428
      pz      :     0.781859  p :     2.954075
      px      :     1.107630
      py      :     1.064586
      dz2     :     0.020372  d :     0.088478
      dxz     :     0.017683
      dyz     :     0.017148
      dx2y2   :     0.016267
      dxy     :     0.017008
      f0      :     0.002139  f :     0.007350
      f+1     :     0.000874
      f-1     :     0.000860
      f+2     :     0.000587
      f-2     :     0.000628
      f+3     :     0.001026
      f-3     :     0.001236
  1 H s       :     0.831993  s :     0.831993
      pz      :     0.005858  p :     0.025104
      px      :     0.005291
      py      :     0.013955
  2 H s       :     0.778942  s :     0.778942
      pz      :     0.005513  p :     0.025866
      px      :     0.014744
      py      :     0.005608
  3 H s       :     0.810230  s :     0.810230
      pz      :     0.005974  p :     0.025261
      px      :     0.009761
      py      :     0.009525
  4 C s       :     3.247337  s :     3.247337
      pz      :     0.943972  p :     2.682340
      px      :     0.860093
      py      :     0.878274
      dz2     :     0.027597  d :     0.130152
      dxz     :     0.046849
      dyz     :     0.045867
      dx2y2   :     0.004996
      dxy     :     0.004843
      f0      :     0.004540  f :     0.020386
      f+1     :     0.007125
      f-1     :     0.007027
      f+2     :     0.000595
      f-2     :     0.000584
      f+3     :     0.000259
      f-3     :     0.000257
  5 N s       :     3.729468  s :     3.729468
      pz      :     1.262738  p :     3.413562
      px      :     1.083222
      py      :     1.067602
      dz2     :     0.015489  d :     0.076417
      dxz     :     0.025467
      dyz     :     0.025312
      dx2y2   :     0.005115
      dxy     :     0.005034
      f0      :     0.001045  f :     0.005660
      f+1     :     0.001602
      f-1     :     0.001610
      f+2     :     0.000420
      f-2     :     0.000419
      f+3     :     0.000283
      f-3     :     0.000282
  6 C s       :     3.136397  s :     3.136397
      pz      :     0.760255  p :     2.937838
      px      :     1.115892
      py      :     1.061691
      dz2     :     0.019731  d :     0.086334
      dxz     :     0.015931
      dyz     :     0.016231
      dx2y2   :     0.017303
      dxy     :     0.017138
      f0      :     0.002129  f :     0.007325
      f+1     :     0.000858
      f-1     :     0.000841
      f+2     :     0.000597
      f-2     :     0.000603
      f+3     :     0.000911
      f-3     :     0.001385
  7 H s       :     0.821938  s :     0.821938
      pz      :     0.006198  p :     0.025088
      px      :     0.005088
      py      :     0.013802
  8 H s       :     0.814214  s :     0.814214
      pz      :     0.005745  p :     0.025405
      px      :     0.010038
      py      :     0.009622
  9 H s       :     0.770324  s :     0.770324
      pz      :     0.005343  p :     0.026171
      px      :     0.014819
      py      :     0.006008
 10 C s       :     3.268180  s :     3.268180
      pz      :     0.951833  p :     2.631447
      px      :     0.837146
      py      :     0.842469
      dz2     :     0.023904  d :     0.131464
      dxz     :     0.048711
      dyz     :     0.048663
      dx2y2   :     0.005154
      dxy     :     0.005032
      f0      :     0.004479  f :     0.020317
      f+1     :     0.007060
      f-1     :     0.007026
      f+2     :     0.000612
      f-2     :     0.000627
      f+3     :     0.000256
      f-3     :     0.000257
 11 N s       :     3.737611  s :     3.737611
      pz      :     1.257337  p :     3.479565
      px      :     1.111697
      py      :     1.110531
      dz2     :     0.015057  d :     0.075542
      dxz     :     0.024935
      dyz     :     0.024871
      dx2y2   :     0.005398
      dxy     :     0.005281
      f0      :     0.001053  f :     0.005675
      f+1     :     0.001594
      f-1     :     0.001591
      f+2     :     0.000430
      f-2     :     0.000427
      f+3     :     0.000290
      f-3     :     0.000290
 12 C s       :     3.149757  s :     3.149757
      pz      :     0.783297  p :     2.951793
      px      :     1.068457
      py      :     1.100040
      dz2     :     0.020377  d :     0.088568
      dxz     :     0.016708
      dyz     :     0.018266
      dx2y2   :     0.016118
      dxy     :     0.017099
      f0      :     0.002131  f :     0.007353
      f+1     :     0.000861
      f-1     :     0.000884
      f+2     :     0.000607
      f-2     :     0.000608
      f+3     :     0.000824
      f-3     :     0.001438
 13 H s       :     0.829017  s :     0.829017
      pz      :     0.005765  p :     0.025096
      px      :     0.013288
      py      :     0.006043
 14 H s       :     0.809900  s :     0.809900
      pz      :     0.005724  p :     0.025194
      px      :     0.010735
      py      :     0.008736
 15 H s       :     0.783501  s :     0.783501
      pz      :     0.005813  p :     0.025732
      px      :     0.004924
      py      :     0.014995
 16 C s       :     3.249299  s :     3.249299
      pz      :     0.946792  p :     2.690649
      px      :     0.879296
      py      :     0.864561
      dz2     :     0.028911  d :     0.131568
      dxz     :     0.045508
      dyz     :     0.047242
      dx2y2   :     0.004941
      dxy     :     0.004967
      f0      :     0.004557  f :     0.020373
      f+1     :     0.006995
      f-1     :     0.007116
      f+2     :     0.000587
      f-2     :     0.000600
      f+3     :     0.000257
      f-3     :     0.000260
 17 N s       :     3.718670  s :     3.718670
      pz      :     1.267897  p :     3.410326
      px      :     1.066527
      py      :     1.075901
      dz2     :     0.015657  d :     0.076662
      dxz     :     0.025463
      dyz     :     0.025504
      dx2y2   :     0.005019
      dxy     :     0.005019
      f0      :     0.001046  f :     0.005656
      f+1     :     0.001610
      f-1     :     0.001599
      f+2     :     0.000419
      f-2     :     0.000419
      f+3     :     0.000281
      f-3     :     0.000281


                     *******************************
                     * LOEWDIN POPULATION ANALYSIS *
                     *******************************

----------------------
LOEWDIN ATOMIC CHARGES
----------------------
   0 C :   -0.255797
   1 H :    0.141686
   2 H :    0.150488
   3 H :    0.144859
   4 C :   -0.194520
   5 N :    0.014392
   6 C :   -0.251426
   7 H :    0.143120
   8 H :    0.148856
   9 H :    0.156176
  10 C :   -0.180123
  11 N :   -0.021310
  12 C :   -0.255775
  13 H :    0.141549
  14 H :    0.146359
  15 H :    0.149111
  16 C :   -0.196996
  17 N :    0.019353

-------------------------------
LOEWDIN REDUCED ORBITAL CHARGES
-------------------------------
  0 C s       :     2.810630  s :     2.810630
      pz      :     1.015479  p :     3.124958
      px      :     1.063454
      py      :     1.046025
      dz2     :     0.083674  d :     0.288811
      dxz     :     0.065293
      dyz     :     0.067368
      dx2y2   :     0.036132
      dxy     :     0.036343
      f0      :     0.008657  f :     0.031398
      f+1     :     0.006134
      f-1     :     0.006150
      f+2     :     0.002768
      f-2     :     0.002965
      f+3     :     0.002029
      f-3     :     0.002695
  1 H s       :     0.793212  s :     0.793212
      pz      :     0.014042  p :     0.065102
      px      :     0.015005
      py      :     0.036054
  2 H s       :     0.780922  s :     0.780922
      pz      :     0.013672  p :     0.068590
      px      :     0.039234
      py      :     0.015684
  3 H s       :     0.789399  s :     0.789399
      pz      :     0.014412  p :     0.065742
      px      :     0.026198
      py      :     0.025133
  4 C s       :     2.835689  s :     2.835689
      pz      :     1.180406  p :     2.816956
      px      :     0.814476
      py      :     0.822075
      dz2     :     0.162607  d :     0.474825
      dxz     :     0.152394
      dyz     :     0.149479
      dx2y2   :     0.005375
      dxy     :     0.004970
      f0      :     0.024618  f :     0.067049
      f+1     :     0.020472
      f-1     :     0.019959
      f+2     :     0.000749
      f-2     :     0.000727
      f+3     :     0.000264
      f-3     :     0.000260
  5 N s       :     3.300008  s :     3.300008
      pz      :     1.478594  p :     3.526672
      px      :     1.026585
      py      :     1.021494
      dz2     :     0.052606  d :     0.140224
      dxz     :     0.038735
      dyz     :     0.038801
      dx2y2   :     0.005107
      dxy     :     0.004975
      f0      :     0.007313  f :     0.018704
      f+1     :     0.004943
      f-1     :     0.004999
      f+2     :     0.000444
      f-2     :     0.000440
      f+3     :     0.000284
      f-3     :     0.000282
  6 C s       :     2.812485  s :     2.812485
      pz      :     1.007134  p :     3.124121
      px      :     1.066754
      py      :     1.050233
      dz2     :     0.085856  d :     0.283750
      dxz     :     0.059225
      dyz     :     0.065008
      dx2y2   :     0.036394
      dxy     :     0.037267
      f0      :     0.008911  f :     0.031071
      f+1     :     0.006114
      f-1     :     0.005705
      f+2     :     0.002885
      f-2     :     0.002694
      f+3     :     0.001640
      f-3     :     0.003121
  7 H s       :     0.791720  s :     0.791720
      pz      :     0.014699  p :     0.065161
      px      :     0.014625
      py      :     0.035837
  8 H s       :     0.785156  s :     0.785156
      pz      :     0.013774  p :     0.065988
      px      :     0.027143
      py      :     0.025071
  9 H s       :     0.774742  s :     0.774742
      pz      :     0.013134  p :     0.069081
      px      :     0.039497
      py      :     0.016450
 10 C s       :     2.839908  s :     2.839908
      pz      :     1.185570  p :     2.786757
      px      :     0.800009
      py      :     0.801178
      dz2     :     0.162009  d :     0.485715
      dxz     :     0.156947
      dyz     :     0.155321
      dx2y2   :     0.005968
      dxy     :     0.005470
      f0      :     0.024326  f :     0.067744
      f+1     :     0.020621
      f-1     :     0.020620
      f+2     :     0.000804
      f-2     :     0.000845
      f+3     :     0.000263
      f-3     :     0.000264
 11 N s       :     3.295037  s :     3.295037
      pz      :     1.478905  p :     3.570908
      px      :     1.046086
      py      :     1.045917
      dz2     :     0.052283  d :     0.136967
      dxz     :     0.037028
      dyz     :     0.037054
      dx2y2   :     0.005398
      dxy     :     0.005203
      f0      :     0.007297  f :     0.018398
      f+1     :     0.004782
      f-1     :     0.004808
      f+2     :     0.000468
      f-2     :     0.000460
      f+3     :     0.000291
      f-3     :     0.000291
 12 C s       :     2.811331  s :     2.811331
      pz      :     1.016255  p :     3.124148
      px      :     1.047133
      py      :     1.060761
      dz2     :     0.083692  d :     0.288924
      dxz     :     0.065328
      dyz     :     0.067194
      dx2y2   :     0.035054
      dxy     :     0.037656
      f0      :     0.008616  f :     0.031372
      f+1     :     0.006322
      f-1     :     0.006002
      f+2     :     0.002961
      f-2     :     0.002746
      f+3     :     0.001385
      f-3     :     0.003340
 13 H s       :     0.793225  s :     0.793225
      pz      :     0.013864  p :     0.065226
      px      :     0.034466
      py      :     0.016896
 14 H s       :     0.788311  s :     0.788311
      pz      :     0.013858  p :     0.065330
      px      :     0.028039
      py      :     0.023433
 15 H s       :     0.782768  s :     0.782768
      pz      :     0.014331  p :     0.068121
      px      :     0.013912
      py      :     0.039878
 16 C s       :     2.836070  s :     2.836070
      pz      :     1.180697  p :     2.819802
      px      :     0.822917
      py      :     0.816188
      dz2     :     0.162815  d :     0.474168
      dxz     :     0.148985
      dyz     :     0.151913
      dx2y2   :     0.005240
      dxy     :     0.005216
      f0      :     0.024633  f :     0.066957
      f+1     :     0.019883
      f-1     :     0.020413
      f+2     :     0.000722
      f-2     :     0.000778
      f+3     :     0.000260
      f-3     :     0.000267
 17 N s       :     3.300432  s :     3.300432
      pz      :     1.478609  p :     3.521068
      px      :     1.020616
      py      :     1.021843
      dz2     :     0.052711  d :     0.140423
      dxz     :     0.038953
      dyz     :     0.038787
      dx2y2   :     0.005006
      dxy     :     0.004966
      f0      :     0.007313  f :     0.018723
      f+1     :     0.005001
      f-1     :     0.004962
      f+2     :     0.000442
      f-2     :     0.000441
      f+3     :     0.000281
      f-3     :     0.000282


                      *****************************
                      * MAYER POPULATION ANALYSIS *
                      *****************************

  NA   - Mulliken gross atomic population
  ZA   - Total nuclear charge
  QA   - Mulliken gross atomic charge
  VA   - Mayer's total valence
  BVA  - Mayer's bonded valence
  FA   - Mayer's free valence

  ATOM       NA         ZA         QA         VA         BVA        FA
  0 C      6.1973     6.0000    -0.1973     3.9135     3.6264     0.2872
  1 H      0.8571     1.0000     0.1429     0.9717     0.9229     0.0488
  2 H      0.8048     1.0000     0.1952     0.9680     0.9207     0.0473
  3 H      0.8355     1.0000     0.1645     0.9681     0.9209     0.0472
  4 C      6.0802     6.0000    -0.0802     3.9635     3.5242     0.4393
  5 N      7.2251     7.0000    -0.2251     3.1900     2.6974     0.4926
  6 C      6.1679     6.0000    -0.1679     3.8952     3.6090     0.2862
  7 H      0.8470     1.0000     0.1530     0.9661     0.9179     0.0482
  8 H      0.8396     1.0000     0.1604     0.9753     0.9274     0.0479
  9 H      0.7965     1.0000     0.2035     0.9695     0.9226     0.0469
 10 C      6.0514     6.0000    -0.0514     3.9658     3.5315     0.4343
 11 N      7.2984     7.0000    -0.2984     3.1608     2.6639     0.4969
 12 C      6.1975     6.0000    -0.1975     3.9110     3.6242     0.2868
 13 H      0.8541     1.0000     0.1459     0.9717     0.9231     0.0485
 14 H      0.8351     1.0000     0.1649     0.9685     0.9212     0.0472
 15 H      0.8092     1.0000     0.1908     0.9681     0.9203     0.0478
 16 C      6.0919     6.0000    -0.0919     3.9799     3.5392     0.4407
 17 N      7.2113     7.0000    -0.2113     3.2052     2.7141     0.4911

  Mayer bond orders larger than 0.100000
B(  0-C ,  1-H ) :   0.9288 B(  0-C ,  2-H ) :   0.9195 B(  0-C ,  3-H ) :   0.9196 
B(  0-C ,  4-C ) :   0.8700 B(  4-C ,  5-N ) :   2.6721 B(  6-C ,  7-H ) :   0.9171 
B(  6-C ,  8-H ) :   0.9217 B(  6-C ,  9-H ) :   0.9104 B(  6-C , 10-C ) :   0.8807 
B( 10-C , 11-N ) :   2.6329 B( 12-C , 13-H ) :   0.9327 B( 12-C , 14-H ) :   0.9180 
B( 12-C , 15-H ) :   0.9187 B( 12-C , 16-C ) :   0.8683 B( 16-C , 17-N ) :   2.6898 



                *******************************************
                * RELAXED MP2 DENSITY POPULATION ANALYSIS *
                *******************************************

------------------------------------------------------------------------------
                           ORCA POPULATION ANALYSIS
------------------------------------------------------------------------------
Input electron density              ... 12mecn.remya.etal.2.mol1,4,5-orca.engrad-mp2.def2tzvp.frozencore.pmp2re
BaseName (.gbw .S,...)              ... 12mecn.remya.etal.2.mol1,4,5-orca.engrad-mp2.def2tzvp.frozencore

                    ********************************
                    * MULLIKEN POPULATION ANALYSIS *
                    ********************************

-----------------------
MULLIKEN ATOMIC CHARGES
-----------------------
   0 C :   -0.292937
   1 H :    0.158685
   2 H :    0.201544
   3 H :    0.177366
   4 C :   -0.111315
   5 N :   -0.132892
   6 C :   -0.266025
   7 H :    0.166864
   8 H :    0.174087
   9 H :    0.209462
  10 C :   -0.091867
  11 N :   -0.193410
  12 C :   -0.291951
  13 H :    0.160937
  14 H :    0.177716
  15 H :    0.197489
  16 C :   -0.126132
  17 N :   -0.117621
Sum of atomic charges:    0.0000000

--------------------------------
MULLIKEN REDUCED ORBITAL CHARGES
--------------------------------
  0 C s       :     3.184669  s :     3.184669
      pz      :     0.827599  p :     3.023583
      px      :     1.117018
      py      :     1.078966
      dz2     :     0.016001  d :     0.077609
      dxz     :     0.017754
      dyz     :     0.017204
      dx2y2   :     0.013016
      dxy     :     0.013633
      f0      :     0.001891  f :     0.007076
      f+1     :     0.000934
      f-1     :     0.000920
      f+2     :     0.000576
      f-2     :     0.000614
      f+3     :     0.000977
      f-3     :     0.001163
  1 H s       :     0.817271  s :     0.817271
      pz      :     0.005905  p :     0.024045
      px      :     0.005459
      py      :     0.012681
  2 H s       :     0.773746  s :     0.773746
      pz      :     0.005629  p :     0.024709
      px      :     0.013406
      py      :     0.005674
  3 H s       :     0.798471  s :     0.798471
      pz      :     0.005991  p :     0.024163
      px      :     0.009224
      py      :     0.008949
  4 C s       :     3.226619  s :     3.226619
      pz      :     0.969341  p :     2.760462
      px      :     0.891992
      py      :     0.899130
      dz2     :     0.023304  d :     0.105223
      dxz     :     0.036358
      dyz     :     0.035757
      dx2y2   :     0.004981
      dxy     :     0.004824
      f0      :     0.004373  f :     0.019011
      f+1     :     0.006504
      f-1     :     0.006448
      f+2     :     0.000590
      f-2     :     0.000581
      f+3     :     0.000258
      f-3     :     0.000257
  5 N s       :     3.679927  s :     3.679927
      pz      :     1.249628  p :     3.380247
      px      :     1.067533
      py      :     1.063085
      dz2     :     0.014421  d :     0.067529
      dxz     :     0.021598
      dyz     :     0.021347
      dx2y2   :     0.005130
      dxy     :     0.005033
      f0      :     0.000925  f :     0.005189
      f+1     :     0.001427
      f-1     :     0.001434
[...]
      f+1     :     0.006448
      f-1     :     0.006414
      f+2     :     0.000606
      f-2     :     0.000619
      f+3     :     0.000256
      f-3     :     0.000256
 11 N s       :     3.692440  s :     3.692440
      pz      :     1.244539  p :     3.428827
      px      :     1.092842
      py      :     1.091446
      dz2     :     0.013913  d :     0.066930
      dxz     :     0.021193
      dyz     :     0.021145
      dx2y2   :     0.005414
      dxy     :     0.005266
      f0      :     0.000926  f :     0.005214
      f+1     :     0.001427
      f-1     :     0.001426
      f+2     :     0.000429
      f-2     :     0.000426
      f+3     :     0.000290
      f-3     :     0.000290
 12 C s       :     3.186187  s :     3.186187
      pz      :     0.828714  p :     3.021022
      px      :     1.082100
      py      :     1.110208
      dz2     :     0.016041  d :     0.077664
      dxz     :     0.016890
      dyz     :     0.018145
      dx2y2   :     0.012916
      dxy     :     0.013673
      f0      :     0.001885  f :     0.007077
      f+1     :     0.000921
      f-1     :     0.000941
      f+2     :     0.000593
      f-2     :     0.000596
      f+3     :     0.000798
      f-3     :     0.001343
 13 H s       :     0.815025  s :     0.815025
      pz      :     0.005826  p :     0.024037
      px      :     0.012111
      py      :     0.006100
 14 H s       :     0.798190  s :     0.798190
      pz      :     0.005787  p :     0.024094
      px      :     0.009959
      py      :     0.008347
 15 H s       :     0.777935  s :     0.777935
      pz      :     0.005872  p :     0.024577
      px      :     0.005103
      py      :     0.013602
 16 C s       :     3.229486  s :     3.229486
      pz      :     0.973735  p :     2.770537
      px      :     0.900635
      py      :     0.896167
      dz2     :     0.025165  d :     0.107107
      dxz     :     0.035413
      dyz     :     0.036653
      dx2y2   :     0.004931
      dxy     :     0.004945
      f0      :     0.004388  f :     0.019003
      f+1     :     0.006413
      f-1     :     0.006506
      f+2     :     0.000584
      f-2     :     0.000595
      f+3     :     0.000257
      f-3     :     0.000260
 17 N s       :     3.664809  s :     3.664809
      pz      :     1.257579  p :     3.379831
      px      :     1.061456
      py      :     1.060795
      dz2     :     0.014649  d :     0.067796
      dxz     :     0.021499
      dyz     :     0.021595
      dx2y2   :     0.005030
      dxy     :     0.005024
      f0      :     0.000928  f :     0.005185
      f+1     :     0.001434
      f-1     :     0.001422
      f+2     :     0.000419
      f-2     :     0.000419
      f+3     :     0.000281
      f-3     :     0.000281


                     *******************************
                     * LOEWDIN POPULATION ANALYSIS *
                     *******************************

----------------------
LOEWDIN ATOMIC CHARGES
----------------------
   0 C :   -0.286100
   1 H :    0.149161
   2 H :    0.155157
   3 H :    0.151840
   4 C :   -0.211777
   5 N :    0.042948
   6 C :   -0.282503
   7 H :    0.150448
   8 H :    0.155439
   9 H :    0.160430
  10 C :   -0.202836
  11 N :    0.014380
  12 C :   -0.286103
  13 H :    0.148896
  14 H :    0.153341
  15 H :    0.153993
  16 C :   -0.214377
  17 N :    0.047663

-------------------------------
LOEWDIN REDUCED ORBITAL CHARGES
-------------------------------
  0 C s       :     2.815792  s :     2.815792
      pz      :     1.033704  p :     3.160710
      px      :     1.071371
      py      :     1.055635
      dz2     :     0.075866  d :     0.277998
      dxz     :     0.067422
      dyz     :     0.068683
      dx2y2   :     0.032941
      dxy     :     0.033086
      f0      :     0.008116  f :     0.031600
      f+1     :     0.006621
      f-1     :     0.006550
      f+2     :     0.002749
      f-2     :     0.002947
      f+3     :     0.001987
      f-3     :     0.002631
  1 H s       :     0.785251  s :     0.785251
      pz      :     0.014583  p :     0.065588
      px      :     0.015452
      py      :     0.035553
  2 H s       :     0.776200  s :     0.776200
      pz      :     0.014231  p :     0.068643
      px      :     0.038369
      py      :     0.016043
  3 H s       :     0.782011  s :     0.782011
      pz      :     0.014916  p :     0.066149
      px      :     0.026178
      py      :     0.025055
  4 C s       :     2.840330  s :     2.840330
      pz      :     1.169757  p :     2.846856
      px      :     0.838526
      py      :     0.838573
      dz2     :     0.164888  d :     0.457787
      dxz     :     0.142205
      dyz     :     0.140501
      dx2y2   :     0.005282
      dxy     :     0.004911
      f0      :     0.025673  f :     0.066805
      f+1     :     0.019669
      f-1     :     0.019491
      f+2     :     0.000734
      f-2     :     0.000714
      f+3     :     0.000264
      f-3     :     0.000260
  5 N s       :     3.300687  s :     3.300687
      pz      :     1.465770  p :     3.500876
      px      :     1.016688
      py      :     1.018418
      dz2     :     0.053246  d :     0.136391
      dxz     :     0.036766
      dyz     :     0.036286
      dx2y2   :     0.005119
      dxy     :     0.004974
      f0      :     0.007405  f :     0.019099
      f+1     :     0.005130
      f-1     :     0.005114
      f+2     :     0.000444
      f-2     :     0.000440
      f+3     :     0.000284
      f-3     :     0.000282
  6 C s       :     2.817787  s :     2.817787
      pz      :     1.026538  p :     3.160055
      px      :     1.073830
      py      :     1.059687
      dz2     :     0.077690  d :     0.273377
      dxz     :     0.061530
      dyz     :     0.066940
      dx2y2   :     0.033212
      dxy     :     0.034004
      f0      :     0.008306  f :     0.031283
      f+1     :     0.006596
      f-1     :     0.006170
      f+2     :     0.002876
      f-2     :     0.002685
      f+3     :     0.001610
      f-3     :     0.003042
  7 H s       :     0.783909  s :     0.783909
      pz      :     0.015173  p :     0.065643
      px      :     0.015080
      py      :     0.035390
  8 H s       :     0.778251  s :     0.778251
      pz      :     0.014312  p :     0.066310
      px      :     0.027062
      py      :     0.024935
  9 H s       :     0.770550  s :     0.770550
      pz      :     0.013708  p :     0.069021
      px      :     0.038566
      py      :     0.016747
 10 C s       :     2.843232  s :     2.843232
      pz      :     1.172951  p :     2.825726
      px      :     0.826029
      py      :     0.826747
      dz2     :     0.164005  d :     0.466787
      dxz     :     0.146582
      dyz     :     0.145026
      dx2y2   :     0.005814
      dxy     :     0.005360
      f0      :     0.025439  f :     0.067091
      f+1     :     0.019730
      f-1     :     0.019781
      f+2     :     0.000793
      f-2     :     0.000822
      f+3     :     0.000262
      f-3     :     0.000263
 11 N s       :     3.296122  s :     3.296122
      pz      :     1.467257  p :     3.536479
      px      :     1.034680
      py      :     1.034542
      dz2     :     0.052715  d :     0.134137
      dxz     :     0.035399
      dyz     :     0.035409
      dx2y2   :     0.005416
      dxy     :     0.005197
      f0      :     0.007371  f :     0.018882
      f+1     :     0.004990
      f-1     :     0.005009
      f+2     :     0.000469
      f-2     :     0.000462
      f+3     :     0.000291
      f-3     :     0.000291
 12 C s       :     2.816482  s :     2.816482
      pz      :     1.034447  p :     3.159963
      px      :     1.056752
      py      :     1.068764
      dz2     :     0.075883  d :     0.278086
      dxz     :     0.066809
      dyz     :     0.069160
      dx2y2   :     0.031971
      dxy     :     0.034263
      f0      :     0.008081  f :     0.031573
      f+1     :     0.006724
      f-1     :     0.006476
      f+2     :     0.002947
      f-2     :     0.002728
      f+3     :     0.001361
      f-3     :     0.003256
 13 H s       :     0.785401  s :     0.785401
      pz      :     0.014416  p :     0.065703
      px      :     0.034024
      py      :     0.017263
 14 H s       :     0.780944  s :     0.780944
      pz      :     0.014394  p :     0.065714
      px      :     0.027818
      py      :     0.023502
 15 H s       :     0.777822  s :     0.777822
      pz      :     0.014840  p :     0.068184
      px      :     0.014378
      py      :     0.038967
 16 C s       :     2.840814  s :     2.840814
      pz      :     1.170212  p :     2.849601
      px      :     0.839711
      py      :     0.839679
      dz2     :     0.165186  d :     0.457233
      dxz     :     0.139970
      dyz     :     0.141751
      dx2y2   :     0.005181
      dxy     :     0.005145
      f0      :     0.025679  f :     0.066729
      f+1     :     0.019415
      f-1     :     0.019639
      f+2     :     0.000713
      f-2     :     0.000757
      f+3     :     0.000260
      f-3     :     0.000266
 17 N s       :     3.301104  s :     3.301104
      pz      :     1.465882  p :     3.495556
      px      :     1.017231
      py      :     1.012442
      dz2     :     0.053374  d :     0.136563
      dxz     :     0.036447
      dyz     :     0.036759
      dx2y2   :     0.005014
      dxy     :     0.004969
      f0      :     0.007407  f :     0.019114
      f+1     :     0.005119
      f-1     :     0.005142
      f+2     :     0.000442
      f-2     :     0.000441
      f+3     :     0.000281
      f-3     :     0.000282


                      *****************************
                      * MAYER POPULATION ANALYSIS *
                      *****************************

  NA   - Mulliken gross atomic population
  ZA   - Total nuclear charge
  QA   - Mulliken gross atomic charge
  VA   - Mayer's total valence
  BVA  - Mayer's bonded valence
  FA   - Mayer's free valence

  ATOM       NA         ZA         QA         VA         BVA        FA
  0 C      6.2929     6.0000    -0.2929     3.9166     3.6308     0.2858
  1 H      0.8413     1.0000     0.1587     0.9658     0.9177     0.0481
  2 H      0.7985     1.0000     0.2015     0.9697     0.9231     0.0467
  3 H      0.8226     1.0000     0.1774     0.9620     0.9154     0.0466
  4 C      6.1113     6.0000    -0.1113     4.0768     3.6483     0.4285
  5 N      7.1329     7.0000    -0.1329     3.3002     2.8203     0.4800
  6 C      6.2660     6.0000    -0.2660     3.9092     3.6242     0.2850
  7 H      0.8331     1.0000     0.1669     0.9606     0.9130     0.0476
  8 H      0.8259     1.0000     0.1741     0.9697     0.9225     0.0472
  9 H      0.7905     1.0000     0.2095     0.9727     0.9265     0.0463
 10 C      6.0919     6.0000    -0.0919     4.0680     3.6446     0.4234
 11 N      7.1934     7.0000    -0.1934     3.2708     2.7875     0.4833
 12 C      6.2920     6.0000    -0.2920     3.9139     3.6285     0.2853
 13 H      0.8391     1.0000     0.1609     0.9656     0.9178     0.0479
 14 H      0.8223     1.0000     0.1777     0.9625     0.9159     0.0467
 15 H      0.8025     1.0000     0.1975     0.9695     0.9224     0.0472
 16 C      6.1261     6.0000    -0.1261     4.0998     3.6699     0.4299
 17 N      7.1176     7.0000    -0.1176     3.3173     2.8387     0.4786

  Mayer bond orders larger than 0.100000
B(  0-C ,  1-H ) :   0.9190 B(  0-C ,  2-H ) :   0.9078 B(  0-C ,  3-H ) :   0.9104 
B(  0-C ,  4-C ) :   0.8975 B(  4-C ,  5-N ) :   2.7681 B(  6-C ,  7-H ) :   0.9080 
B(  6-C ,  8-H ) :   0.9118 B(  6-C ,  9-H ) :   0.8990 B(  6-C , 10-C ) :   0.9101 
B( 10-C , 11-N ) :   2.7239 B( 12-C , 13-H ) :   0.9221 B( 12-C , 14-H ) :   0.9094 
B( 12-C , 15-H ) :   0.9074 B( 12-C , 16-C ) :   0.8958 B( 16-C , 17-N ) :   2.7921 



----------------------------------
MP2 DERIVATIVE INTEGRAL GENERATION
----------------------------------


Input Wavefunction Amplitudes       ... 12mecn.remya.etal.2.mol1,4,5-orca.engrad-mp2.def2tzvp.frozencore.mp2tsaa.tmp
Input Correlated Electron Density   ... 12mecn.remya.etal.2.mol1,4,5-orca.engrad-mp2.def2tzvp.frozencore.pmp2re
Input Energy Weighted Density       ... 12mecn.remya.etal.2.mol1,4,5-orca.engrad-mp2.def2tzvp.frozencore.wmp2.tmp
Input SCF Electron Density          ... 12mecn.remya.etal.2.mol1,4,5-orca.engrad-mp2.def2tzvp.frozencore.scfp

One-Electron Terms    ...
                        ... One-Electron Terms done
Prescreening matrices              ... done

Batch handling in the gradient evaluation:
Memory available                      ... 8000.0 MB
Memory per occupied orbital in Q2     ...   20.3 MB
Memory per occupied orbital in Q3     ...    0.1 MB
Total memory requirement per |i>      ...   20.4 MB
Max. Number of orbitals possible      ...    391
Number of orbitals treated per batch  ...     24
Number of batches to be done          ...      1
Batch   0: i=    9 ...    32

---------------------------------------
MP2 TOTAL ENERGY:     -397.466741639 Eh
---------------------------------------

The final MP2 gradient
  0:  -0.00148700   0.00093844  -0.00757570
  1:  -0.00039885   0.00369712  -0.00111417
  2:   0.00112847  -0.00225308   0.00029590
  3:   0.00065845  -0.00249477   0.00017330
  4:   0.00063514  -0.00005206   0.00354309
  5:  -0.00005582   0.00053876   0.00419814
  6:  -0.00087666  -0.00039776   0.00771834
  7:   0.00061087  -0.00284184  -0.00012464
  8:   0.00227927   0.00189892   0.00010644
  9:  -0.00256099   0.00104097  -0.00022648
 10:   0.00008134   0.00028551  -0.00195275
 11:   0.00052960  -0.00055273  -0.00499755
 12:   0.00001642   0.00069602  -0.00735808
 13:  -0.00327694  -0.00050613  -0.00070220
 14:   0.00342939   0.00124725  -0.00071089
 15:  -0.00020292  -0.00203009   0.00102926
 16:  -0.00003757   0.00023316   0.00303042
 17:  -0.00047219   0.00055229   0.00466757

-----------------------------------
NORM OF THE MP2 GRADIENT:  0.018740
-----------------------------------

-------------------------   --------------------
FINAL SINGLE POINT ENERGY      -397.466741639027
-------------------------   --------------------


                            ***************************************
                            *     ORCA property calculations      *
                            ***************************************

                                    ---------------------
                                    Active property flags
                                    ---------------------
   (+) Dipole Moment


------------------------------------------------------------------------------
                       ORCA ELECTRIC PROPERTIES CALCULATION
------------------------------------------------------------------------------

Dipole Moment Calculation                       ... on
Quadrupole Moment Calculation                   ... off
Polarizability Calculation                      ... off
GBWName                                         ... 12mecn.remya.etal.2.mol1,4,5-orca.engrad-mp2.def2tzvp.frozencore.gbw
Electron density file                           ... 12mecn.remya.etal.2.mol1,4,5-orca.engrad-mp2.def2tzvp.frozencore.scfp
The origin for moment calculation is the CENTER OF MASS  = (-5.126815,  0.945512  0.344339)

-------------
DIPOLE MOMENT
-------------
                                X             Y             Z
Electronic contribution:      0.04938      -0.17661      -3.15924
Nuclear contribution   :     -0.07703       0.24619       4.65563
                        -----------------------------------------
Total Dipole Moment    :     -0.02765       0.06958       1.49638
                        -----------------------------------------
Magnitude (a.u.)       :      1.49826
Magnitude (Debye)      :      3.80826



--------------------
Rotational spectrum 
--------------------
 
Rotational constants in cm-1:     0.045743     0.037802     0.030487 
Rotational constants in MHz :  1371.335292  1133.283818   913.964184 

 Dipole components along the rotational axes: 
x,y,z [a.u.] :    -0.022525     1.011174     1.105345 
x,y,z [Debye]:    -0.057255     2.570201     2.809565 

 

                         *** MP2 UNRELAXED DENSITY ***

------------------------------------------------------------------------------
                       ORCA ELECTRIC PROPERTIES CALCULATION
------------------------------------------------------------------------------

Dipole Moment Calculation                       ... on
Quadrupole Moment Calculation                   ... off
Polarizability Calculation                      ... off
GBWName                                         ... 12mecn.remya.etal.2.mol1,4,5-orca.engrad-mp2.def2tzvp.frozencore.gbw
Electron density file                           ... 12mecn.remya.etal.2.mol1,4,5-orca.engrad-mp2.def2tzvp.frozencore.pmp2ur
The origin for moment calculation is the CENTER OF MASS  = (-5.126815,  0.945512  0.344339)

-------------
DIPOLE MOMENT
-------------
                                X             Y             Z
Electronic contribution:      0.05005      -0.17819      -3.19490
Nuclear contribution   :     -0.07703       0.24619       4.65563
                        -----------------------------------------
Total Dipole Moment    :     -0.02698       0.06800       1.46072
                        -----------------------------------------
Magnitude (a.u.)       :      1.46255
Magnitude (Debye)      :      3.71752



--------------------
Rotational spectrum 
--------------------
 
Rotational constants in cm-1:     0.045743     0.037802     0.030487 
Rotational constants in MHz :  1371.335292  1133.283818   913.964184 

 Dipole components along the rotational axes: 
x,y,z [a.u.] :    -0.021931     0.987119     1.078973 
x,y,z [Debye]:    -0.055744     2.509056     2.742532 

 

                           *** MP2 RELAXED DENSITY ***

------------------------------------------------------------------------------
                       ORCA ELECTRIC PROPERTIES CALCULATION
------------------------------------------------------------------------------

Dipole Moment Calculation                       ... on
Quadrupole Moment Calculation                   ... off
Polarizability Calculation                      ... off
GBWName                                         ... 12mecn.remya.etal.2.mol1,4,5-orca.engrad-mp2.def2tzvp.frozencore.gbw
Electron density file                           ... 12mecn.remya.etal.2.mol1,4,5-orca.engrad-mp2.def2tzvp.frozencore.pmp2re
The origin for moment calculation is the CENTER OF MASS  = (-5.126815,  0.945512  0.344339)

-------------
DIPOLE MOMENT
-------------
                                X             Y             Z
Electronic contribution:      0.05120      -0.18304      -3.28355
Nuclear contribution   :     -0.07703       0.24619       4.65563
                        -----------------------------------------
Total Dipole Moment    :     -0.02583       0.06315       1.37208
                        -----------------------------------------
Magnitude (a.u.)       :      1.37378
Magnitude (Debye)      :      3.49187



--------------------
Rotational spectrum 
--------------------
 
Rotational constants in cm-1:     0.045743     0.037802     0.030487 
Rotational constants in MHz :  1371.335292  1133.283818   913.964184 

 Dipole components along the rotational axes: 
x,y,z [a.u.] :    -0.021446     0.927055     1.013595 
x,y,z [Debye]:    -0.054512     2.356386     2.576353 

 

Timings for individual modules:

Sum of individual times         ...      285.039 sec (=   4.751 min)
GTO integral calculation        ...        1.583 sec (=   0.026 min)   0.6 %
SCF iterations                  ...       59.591 sec (=   0.993 min)  20.9 %
MP2 module                      ...      223.865 sec (=   3.731 min)  78.5 %
                             ****ORCA TERMINATED NORMALLY****
TOTAL RUN TIME: 0 days 0 hours 4 minutes 46 seconds 584 msec
