31
Energy:   -191.37318805
C    0.42807016  -2.36176579  -2.60262732
H   -0.25281120  -2.22023108  -1.78944303
H    1.25676482  -1.69360210  -2.49436126
H    0.78152403  -3.37169826  -2.60020904
C   -0.29338115  -2.07357788  -3.93230989
N   -0.83053445  -1.85900888  -4.92231900
C   -1.32444037   3.21339761   0.81252144
H   -1.89791251   3.97926261   0.33348002
H   -1.76957124   2.26004652   0.61789537
H   -0.32486088   3.22488965   0.43093545
C   -1.29706068   3.46669792   2.33130033
N   -1.27667526   3.65529151   3.46210025
C    1.30907171  -2.93707196   1.34547851
H    0.31469115  -2.55440647   1.24711895
H    2.00994512  -2.19648367   1.02112601
H    1.49732597  -3.18185844   2.36994863
C    1.46055748  -4.20141044   0.47939523
N    1.57334553  -5.14276791  -0.16544315
C    0.87684979   0.69591651   3.38313737
H    0.91278212   1.52075001   4.06376851
H   -0.09766716   0.63702465   2.94524748
H    1.60603345   0.83705332   2.61289671
C    1.17823117  -0.60960072   4.14234356
N    1.40262331  -1.58161763   4.70760707
C   -1.02585672   1.59376767  -2.99270459
H   -1.07366855   1.24902442  -4.00451796
H   -1.43946947   0.85106072  -2.34292772
H   -0.00561507   1.77362918  -2.72501839
C   -1.83013701   2.90001924  -2.85691044
N   -2.42896024   3.87258291  -2.75580552
Cl   0.56080614   0.25468679  -0.12170356
