31
Energy:   -191.76228834
C   -0.73548178  -2.02412968  -2.89731581
H   -1.26763801  -1.80855757  -1.99441017
H    0.30701849  -1.83233156  -2.75135088
H   -0.87595869  -3.05252623  -3.15725016
C   -1.26781489  -1.13031443  -4.03279621
N   -1.66416109  -0.46482834  -4.87821298
C    0.43488519   3.21746836   1.30080138
H   -0.44059280   2.67649209   1.00791378
H    1.30665281   2.67828751   0.99387417
H    0.43016784   4.18168817   0.83695118
C    0.44701482   3.38433174   2.83168657
N    0.45604589   3.50856911   3.97150019
C    0.24717379  -3.46635603   0.79898388
H    1.16918094  -3.02068778   0.48885035
H    0.39201052  -3.97504898   1.72911983
H   -0.49407059  -2.70437960   0.92083532
C   -0.22144693  -4.47232581  -0.26873304
N   -0.57035636  -5.22131604  -1.06369682
C    0.58778222  -0.20048778   3.36159868
H    0.63315447   0.51891173   4.15236153
H   -0.29967276  -0.04158487   2.78534125
H    1.44605665  -0.09281392   2.73178090
C    0.56447821  -1.61955907   3.95933908
N    0.54712732  -2.67612215   4.40438397
C   -0.30308956   2.44294701  -2.64673968
H   -1.00076294   1.91947920  -2.02695464
H    0.66854198   2.00886062  -2.53538322
H   -0.61064212   2.37144078  -3.66908862
C   -0.25473864   3.92402740  -2.22761789
N   -0.21873918   5.02675907  -1.91556266
Cl   0.58787520  -0.05589296  -0.21020928
