31
Energy:   -191.82372993
C    0.24819477  -1.79906036  -3.03141530
H    1.16564859  -1.26011292  -2.91865751
H    0.46134141  -2.83023996  -3.22151062
H   -0.32829405  -1.71355328  -2.13405903
C   -0.54931320  -1.21367925  -4.21163138
N   -1.14309414  -0.77783641  -5.09035589
C   -0.70475740   3.11008663   1.57142707
H   -1.10232702   4.04182454   1.22689399
H   -1.28394010   2.30491736   1.16999346
H    0.31087380   3.01446774   1.24855032
C   -0.76071401   3.06554205   3.10976534
N   -0.80237626   3.03237659   4.25512810
C    1.28389106  -3.09336388   0.67400655
H    0.36112938  -2.57533553   0.83230276
H    2.03128819  -2.39967363   0.34982999
H    1.59636892  -3.55286826   1.58839837
C    1.08655002  -4.17599199  -0.40329234
N    0.93962065  -4.98205783  -1.20539033
C    0.79298794  -0.14719081   3.35375198
H    0.66894214   0.54392188   4.16114041
H   -0.09732753  -0.16620090   2.76056054
H    1.61955755   0.15811177   2.74673296
C    1.06326799  -1.55392611   3.91912307
N    1.26450378  -2.60130449   4.34006755
C   -1.26838740   2.07014059  -2.61163580
H   -1.49886753   1.84682354  -3.63237504
H   -1.67096539   1.30625145  -1.97973119
H   -0.20655294   2.11327532  -2.48695198
C   -1.88550592   3.42890018  -2.23145544
N   -2.34497871   4.44055845  -1.94839388
Cl   0.75323541   0.36519754  -0.20081674
