25
Energy:   -464.59435902
O    0.12138411   3.17350006  -1.25585122
H    0.20819205   4.11845354  -1.13031576
H    0.49903007   2.79052138  -0.46405408
O    1.94708861  -2.56118376  -0.20791002
H    2.76572318  -3.03997283  -0.33764169
H    1.50776853  -3.02558815   0.50452122
O    0.47198561  -3.76369754   1.85683242
H    0.08159925  -4.62123815   1.68814799
H    0.80145161  -3.82221415   2.75363775
O    1.20057244   1.25393535  -2.94276739
H    0.91749134   2.08227721  -2.55553787
H    1.63112205   1.50567925  -3.75976427
O   -1.70166533   0.84099621   1.63416252
H   -1.98599298   0.99096793   0.73255390
H   -2.40642418   1.20284861   2.17138655
O   -1.06993123  -1.73025346   0.69465916
H   -0.69234972  -2.40534401   1.25850028
H   -1.40738556  -1.07164769   1.30177929
O   -1.79723267   1.18822310  -1.12807521
H   -2.56211003   1.26285542  -1.69871038
H   -1.30930348   1.99877999  -1.27352103
O    0.84869195   1.42450841   0.78017506
H    0.03166026   1.28685406   1.25948952
H    1.51326205   1.52294720   1.46200219
K    0.42183469  -0.57213765  -1.16536399
