
                                 *****************
                                 * O   R   C   A *
                                 *****************

           --- An Ab Initio, DFT and Semiempirical electronic structure package ---

                  #######################################################
                  #                        -***-                        #
                  #          Department of theory and spectroscopy      #
                  #               Directorship: Frank Neese             #
                  #        Max Planck Institute fuer Kohlenforschung    #
                  #                Kaiser Wilhelm Platz 1               #
                  #                 D-45470 Muelheim/Ruhr               #
                  #                      Germany                        #
                  #                                                     #
                  #                  All rights reserved                #
                  #                        -***-                        #
                  #######################################################


                         Program Version 4.2.0 -  RELEASE  -


 With contributions from (in alphabetic order):
   Daniel Aravena         : Magnetic Suceptibility
   Michael Atanasov       : Ab Initio Ligand Field Theory (pilot matlab implementation)
   Alexander A. Auer      : GIAO ZORA, VPT2
   Ute Becker             : Parallelization
   Giovanni Bistoni       : ED, misc. LED, open-shell LED, HFLED
   Martin Brehm           : Molecular dynamics
   Dmytro Bykov           : SCF Hessian
   Vijay G. Chilkuri      : MRCI spin determinant printing, contributions to CSF-ICE
   Dipayan Datta          : RHF DLPNO-CCSD density
   Achintya Kumar Dutta   : EOM-CC, STEOM-CC
   Dmitry Ganyushin       : Spin-Orbit,Spin-Spin,Magnetic field MRCI
   Miquel Garcia          : C-PCM Hessian, Gaussian charge scheme
   Yang Guo               : DLPNO-NEVPT2, CIM, IAO-localization
   Andreas Hansen         : Spin unrestricted coupled pair/coupled cluster methods
   Benjamin Helmich-Paris : CASSCF linear response (MC-RPA)
   Lee Huntington         : MR-EOM, pCC
   Robert Izsak           : Overlap fitted RIJCOSX, COSX-SCS-MP3, EOM
   Christian Kollmar      : KDIIS, OOCD, Brueckner-CCSD(T), CCSD density
   Simone Kossmann        : Meta GGA functionals, TD-DFT gradient, OOMP2, MP2 Hessian
   Martin Krupicka        : AUTO-CI
   Lucas Lang             : DCDCAS
   Dagmar Lenk            : GEPOL surface, SMD
   Dimitrios Liakos       : Extrapolation schemes; Compound Job, initial MDCI parallelization
   Dimitrios Manganas     : Further ROCIS development; embedding schemes
   Dimitrios Pantazis     : SARC Basis sets
   Taras Petrenko         : DFT Hessian,TD-DFT gradient, ASA, ECA, R-Raman, ABS, FL, XAS/XES, NRVS
   Peter Pinski           : DLPNO-MP2, DLPNO-MP2 Gradient
   Christoph Reimann      : Effective Core Potentials
   Marius Retegan         : Local ZFS, SOC
   Christoph Riplinger    : Optimizer, TS searches, QM/MM, DLPNO-CCSD(T), (RO)-DLPNO pert. Triples
   Tobias Risthaus        : Range-separated hybrids, TD-DFT gradient, RPA, STAB
   Michael Roemelt        : Original ROCIS implementation
   Masaaki Saitow         : Open-shell DLPNO-CCSD energy and density
   Barbara Sandhoefer     : DKH picture change effects
   Avijit Sen             : IP-ROCIS
   Kantharuban Sivalingam : CASSCF convergence, NEVPT2, FIC-MRCI
   Bernardo de Souza      : ESD, SOC TD-DFT
   Georgi Stoychev        : AutoAux, RI-MP2 NMR
   Willem Van den Heuvel  : Paramagnetic NMR
   Boris Wezisla          : Elementary symmetry handling
   Frank Wennmohs         : Technical directorship


 We gratefully acknowledge several colleagues who have allowed us to
 interface, adapt or use parts of their codes:
   Stefan Grimme, W. Hujo, H. Kruse,             : VdW corrections, initial TS optimization,
                  C. Bannwarth                     DFT functionals, gCP, sTDA/sTD-DF
   Ed Valeev, F. Pavosevic, A. Kumar             : LibInt (2-el integral package), F12 methods
   Garnet Chan, S. Sharma, J. Yang, R. Olivares  : DMRG
   Ulf Ekstrom                                   : XCFun DFT Library
   Mihaly Kallay                                 : mrcc  (arbitrary order and MRCC methods)
   Andreas Klamt, Michael Diedenhofen            : otool_cosmo (COSMO solvation model)
   Jiri Pittner, Ondrej Demel                    : Mk-CCSD
   Frank Weinhold                                : gennbo (NPA and NBO analysis)
   Christopher J. Cramer and Donald G. Truhlar   : smd solvation model
   Lars Goerigk                                  : TD-DFT with DH, B97 family of functionals
   V. Asgeirsson, H. Jonsson                     : NEB implementation
   FAccTs GmbH                                   : IRC, NEB, NEB-TS, Multilevel, MM, QM/MM, CI optimization
   S Lehtola, MJT Oliveira, MAL Marques          : LibXC Library


 Your calculation uses the libint2 library for the computation of 2-el integrals
 For citations please refer to: http://libint.valeyev.net

 Your ORCA version has been built with support for libXC version: 4.2.3
 For citations please refer to: https://tddft.org/programs/libxc/

 This ORCA versions uses:
   CBLAS   interface :  Fast vector & matrix operations
   LAPACKE interface :  Fast linear algebra routines
   SCALAPACK package :  Parallel linear algebra routines


----- Orbital basis set information -----
Your calculation utilizes the basis: def2-TZVP
   F. Weigend and R. Ahlrichs, Phys. Chem. Chem. Phys. 7, 3297 (2005).

================================================================================
                                        WARNINGS
                       Please study these warnings very carefully!
================================================================================


WARNING: The frozen-core approximation for MP2-gradient calculations is turned on by default.

INFO   : the flag for use of LIBINT has been found!

================================================================================
                                       INPUT FILE
================================================================================
NAME = 12meoh.boyd.etal.mol3,4,11-orca.engrad-mp2.def2tzvp.frozencore.inp
|  1> # 12meoh.boyd.etal.mol3,4,11
|  2> ! MP2 def2-TZVP EnGrad TightSCF
|  3> 
|  4> %pal
|  5>     nprocs 6
|  6> end
|  7> 
|  8> %maxcore 8000
|  9> 
| 10> %scf
| 11>     ConvForced true
| 12> end
| 13> 
| 14> *xyz 0 1
| 15> O  -3.821405976  -2.118091637   0.596795346
| 16> H  -4.342989117  -1.344303030   0.251966383
| 17> C  -3.443883586  -1.809641231   1.934889393
| 18> H  -2.831494349  -2.637429600   2.305201764
| 19> H  -4.325601146  -1.719364371   2.585074667
| 20> H  -2.858527126  -0.882644791   1.996110694
| 21> O  -1.358578914   1.232360421   1.189721000
| 22> H  -1.058250183   1.216459361   0.238591307
| 23> C  -0.389763452   1.957872567   1.943072362
| 24> H  -0.747220771   2.012806578   2.975200343
| 25> H  -0.260410585   2.982763209   1.565366540
| 26> H   0.585220638   1.453754179   1.934070793
| 27> O   3.252955559   0.588596242   1.858934315
| 28> H   3.621209177  -0.251605199   1.476063364
| 29> C   4.040824528   0.944288422   2.989639460
| 30> H   3.670521436   1.902573549   3.363847391
| 31> H   5.103749934   1.055868619   2.734277559
| 32> H   3.948540682   0.200279590   3.792908518
| 33> *
| 34> 
| 35>                          ****END OF INPUT****
================================================================================

                     *******************************
                     * Energy+Gradient Calculation *
                     *******************************

---------------------------------
CARTESIAN COORDINATES (ANGSTROEM)
---------------------------------
  O     -3.821406   -2.118092    0.596795
  H     -4.342989   -1.344303    0.251966
  C     -3.443884   -1.809641    1.934889
  H     -2.831494   -2.637430    2.305202
  H     -4.325601   -1.719364    2.585075
  H     -2.858527   -0.882645    1.996111
  O     -1.358579    1.232360    1.189721
  H     -1.058250    1.216459    0.238591
  C     -0.389763    1.957873    1.943072
  H     -0.747221    2.012807    2.975200
  H     -0.260411    2.982763    1.565367
  H      0.585221    1.453754    1.934071
  O      3.252956    0.588596    1.858934
  H      3.621209   -0.251605    1.476063
  C      4.040825    0.944288    2.989639
  H      3.670521    1.902574    3.363847
  H      5.103750    1.055869    2.734278
  H      3.948541    0.200280    3.792909

----------------------------
CARTESIAN COORDINATES (A.U.)
----------------------------
  NO LB      ZA    FRAG     MASS         X           Y           Z
   0 O     8.0000    0    15.999   -7.221411   -4.002613    1.127780
   1 H     1.0000    0     1.008   -8.207060   -2.540365    0.476147
   2 C     6.0000    0    12.011   -6.507997   -3.419726    3.656411
   3 H     1.0000    0     1.008   -5.350749   -4.984020    4.356200
   4 H     1.0000    0     1.008   -8.174202   -3.249128    4.885083
   5 H     1.0000    0     1.008   -5.401833   -1.667957    3.772103
   6 O     8.0000    0    15.999   -2.567342    2.328824    2.248247
   7 H     1.0000    0     1.008   -1.999803    2.298775    0.450872
   8 C     6.0000    0    12.011   -0.736546    3.699843    3.671875
   9 H     1.0000    0     1.008   -1.412043    3.803653    5.622314
  10 H     1.0000    0     1.008   -0.492105    5.636606    2.958114
  11 H     1.0000    0     1.008    1.105907    2.747197    3.654864
  12 O     8.0000    0    15.999    6.147195    1.112286    3.512877
  13 H     1.0000    0     1.008    6.843094   -0.475465    2.789356
  14 C     6.0000    0    12.011    7.636052    1.784447    5.649600
  15 H     1.0000    0     1.008    6.936280    3.595343    6.356750
  16 H     1.0000    0     1.008    9.644690    1.995303    5.167036
  17 H     1.0000    0     1.008    7.461661    0.378474    7.167558

--------------------------------
INTERNAL COORDINATES (ANGSTROEM)
--------------------------------
 O      0   0   0     0.000000000000     0.00000000     0.00000000
 H      1   0   0     0.994839079963     0.00000000     0.00000000
 C      1   2   0     1.424134995894   107.22932759     0.00000000
 H      3   1   2     1.094251074279   107.60656698   182.49646734
 H      3   1   2     1.099234578054   111.15598505    64.29876054
 H      3   1   2     1.098049467343   112.12012929   302.03562973
 O      6   3   1     2.715392425426   159.30465380   344.94407895
 H      7   6   3     0.997545930411   115.91529399   352.25622350
 C      7   6   3     1.425661091575   127.93942409   207.95550433
 H      9   7   6     1.093655178580   107.58652868   323.90069864
 H      9   7   6     1.099906668874   111.87891396   204.94189949
 H      9   7   6     1.097638534818   111.44220277    83.00571979
 O     12   9   7     2.805521939854   170.56802308   138.63348952
 H     13  12   9     0.994051987447   128.55218505   214.50624196
 C     13  12   9     1.423287941407   115.34239108    69.51439760
 H     15  13  12     1.093373833690   107.66487715   328.13516026
 H     15  13  12     1.098849516342   112.09953284   208.81578898
 H     15  13  12     1.098775058812   111.41155745    86.80533108

---------------------------
INTERNAL COORDINATES (A.U.)
---------------------------
 O      0   0   0     0.000000000000     0.00000000     0.00000000
 H      1   0   0     1.879973408453     0.00000000     0.00000000
 C      1   2   0     2.691225119973   107.22932759     0.00000000
 H      3   1   2     2.067834852136   107.60656698   182.49646734
 H      3   1   2     2.077252309459   111.15598505    64.29876054
 H      3   1   2     2.075012774777   112.12012929   302.03562973
 O      6   3   1     5.131348030179   159.30465380   344.94407895
 H      7   6   3     1.885088614484   115.91529399   352.25622350
 C      7   6   3     2.694109022864   127.93942409   207.95550433
 H      9   7   6     2.066708772461   107.58652868   323.90069864
 H      9   7   6     2.078522377045   111.87891396   204.94189949
 H      9   7   6     2.074236224845   111.44220277    83.00571979
 O     12   9   7     5.301668129032   170.56802308   138.63348952
 H     13  12   9     1.878486019156   128.55218505   214.50624196
 C     13  12   9     2.689624418973   115.34239108    69.51439760
 H     15  13  12     2.066177107669   107.66487715   328.13516026
 H     15  13  12     2.076524648278   112.09953284   208.81578898
 H     15  13  12     2.076383943937   111.41155745    86.80533108

---------------------
BASIS SET INFORMATION
---------------------
There are 3 groups of distinct atoms

 Group   1 Type O   : 11s6p2d1f contracted to 5s3p2d1f pattern {62111/411/11/1}
 Group   2 Type H   : 5s1p contracted to 3s1p pattern {311/1}
 Group   3 Type C   : 11s6p2d1f contracted to 5s3p2d1f pattern {62111/411/11/1}

Atom   0O    basis set group =>   1
Atom   1H    basis set group =>   2
Atom   2C    basis set group =>   3
Atom   3H    basis set group =>   2
Atom   4H    basis set group =>   2
Atom   5H    basis set group =>   2
Atom   6O    basis set group =>   1
Atom   7H    basis set group =>   2
Atom   8C    basis set group =>   3
Atom   9H    basis set group =>   2
Atom  10H    basis set group =>   2
Atom  11H    basis set group =>   2
Atom  12O    basis set group =>   1
Atom  13H    basis set group =>   2
Atom  14C    basis set group =>   3
Atom  15H    basis set group =>   2
Atom  16H    basis set group =>   2
Atom  17H    basis set group =>   2


           ************************************************************
           *        Program running with 6 parallel MPI-processes     *
           *              working on a common directory               *
           ************************************************************
------------------------------------------------------------------------------
                           ORCA GTO INTEGRAL CALCULATION
------------------------------------------------------------------------------

                         BASIS SET STATISTICS AND STARTUP INFO

 # of primitive gaussian shells          ...  192
 # of primitive gaussian functions       ...  372
 # of contracted shells                  ...  114
 # of contracted basis functions         ...  258
 Highest angular momentum                ...    3
 Maximum contraction depth               ...    6
 Integral package used                   ... LIBINT
 Integral threshhold            Thresh   ...  2.500e-11
 Primitive cut-off              TCut     ...  2.500e-12


------------------------------ INTEGRAL EVALUATION ----------------------------


 * One electron integrals 
 Pre-screening matrix                    ... done
 Shell pair data                         ... done (   0.001 sec)



           ************************************************************
           *        Program running with 6 parallel MPI-processes     *
           *              working on a common directory               *
           ************************************************************
-------------------------------------------------------------------------------
                                 ORCA SCF
-------------------------------------------------------------------------------

------------
SCF SETTINGS
------------
Hamiltonian:
 Ab initio Hamiltonian  Method          .... Hartree-Fock(GTOs)


General Settings:
 Integral files         IntName         .... 12meoh.boyd.etal.mol3,4,11-orca.engrad-mp2.def2tzvp.frozencore
 Hartree-Fock type      HFTyp           .... RHF
 Total Charge           Charge          ....    0
 Multiplicity           Mult            ....    1
 Number of Electrons    NEL             ....   54
 Basis Dimension        Dim             ....  258
 Nuclear Repulsion      ENuc            ....    216.3583606664 Eh

Convergence Acceleration:
 DIIS                   CNVDIIS         .... on
   Start iteration      DIISMaxIt       ....    12
   Startup error        DIISStart       ....  0.200000
   # of expansion vecs  DIISMaxEq       ....     5
   Bias factor          DIISBfac        ....   1.050
   Max. coefficient     DIISMaxC        ....  10.000
 Newton-Raphson         CNVNR           .... off
 SOSCF                  CNVSOSCF        .... on
   Start iteration      SOSCFMaxIt      ....   150
   Startup grad/error   SOSCFStart      ....  0.003300
 Level Shifting         CNVShift        .... on
   Level shift para.    LevelShift      ....    0.2500
   Turn off err/grad.   ShiftErr        ....    0.0010
 Zerner damping         CNVZerner       .... off
 Static damping         CNVDamp         .... on
   Fraction old density DampFac         ....    0.7000
   Max. Damping (<1)    DampMax         ....    0.9800
   Min. Damping (>=0)   DampMin         ....    0.0000
   Turn off err/grad.   DampErr         ....    0.1000
 Fernandez-Rico         CNVRico         .... off

SCF Procedure:
 Maximum # iterations   MaxIter         ....   125
 SCF integral mode      SCFMode         .... Direct
   Integral package                     .... LIBINT
 Reset frequency        DirectResetFreq ....    20
 Integral Threshold     Thresh          ....  2.500e-11 Eh
 Primitive CutOff       TCut            ....  2.500e-12 Eh

Convergence Tolerance:
 Convergence Check Mode ConvCheckMode   .... Total+1el-Energy
 Convergence forced     ConvForced      .... 1
 Energy Change          TolE            ....  1.000e-08 Eh
 1-El. energy change                    ....  1.000e-05 Eh
 Orbital Gradient       TolG            ....  1.000e-05
 Orbital Rotation angle TolX            ....  1.000e-05
 DIIS Error             TolErr          ....  5.000e-07


Diagonalization of the overlap matrix:
Smallest eigenvalue                        ... 1.015e-03
Time for diagonalization                   ...    0.010 sec
Threshold for overlap eigenvalues          ... 1.000e-08
Number of eigenvalues below threshold      ... 0
Time for construction of square roots      ...    0.005 sec
Total time needed                          ...    0.015 sec

-------------------
DFT GRID GENERATION
-------------------

General Integration Accuracy     IntAcc      ...  4.340
Radial Grid Type                 RadialGrid  ... Gauss-Chebyshev
Angular Grid (max. acc.)         AngularGrid ... Lebedev-110
Angular grid pruning method      GridPruning ... 3 (G Style)
Weight generation scheme         WeightScheme... Becke
Basis function cutoff            BFCut       ...    1.0000e-11
Integration weight cutoff        WCut        ...    1.0000e-14
Grids for H and He will be reduced by one unit

# of grid points (after initial pruning)     ...  19644 (   0.0 sec)
# of grid points (after weights+screening)   ...  18676 (   0.0 sec)
nearest neighbour list constructed           ...    0.0 sec
Grid point re-assignment to atoms done       ...    0.0 sec
Grid point division into batches done        ...    0.0 sec
Reduced shell lists constructed in    0.0 sec

Total number of grid points                  ...    18676
Total number of batches                      ...      299
Average number of points per batch           ...       62
Average number of grid points per atom       ...     1038
Average number of shells per batch           ...    50.06 (43.91%)
Average number of basis functions per batch  ...   107.12 (41.52%)
Average number of large shells per batch     ...    37.37 (74.66%)
Average number of large basis fcns per batch ...    83.88 (78.31%)
Maximum spatial batch extension              ...  22.56, 23.86, 15.98 au
Average spatial batch extension              ...   0.62,  0.64,  0.56 au

Time for grid setup =    0.057 sec

------------------------------
INITIAL GUESS: MODEL POTENTIAL
------------------------------
Loading Hartree-Fock densities                     ... done
Calculating cut-offs                               ... done
Setting up the integral package                    ... done
Initializing the effective Hamiltonian             ... done
Starting the Coulomb interaction                   ... done (   0.0 sec)
Reading the grid                                   ... done
Mapping shells                                     ... done
Starting the XC term evaluation                    ... done (   0.0 sec)
Transforming the Hamiltonian                       ... done (   0.0 sec)
Diagonalizing the Hamiltonian                      ... done (   0.0 sec)
Back transforming the eigenvectors                 ... done (   0.0 sec)
Now organizing SCF variables                       ... done
                      ------------------
                      INITIAL GUESS DONE (   0.2 sec)
                      ------------------
--------------
SCF ITERATIONS
--------------
ITER       Energy         Delta-E        Max-DP      RMS-DP      [F,P]     Damp
               ***  Starting incremental Fock matrix formation  ***
  0   -344.9164963504   0.000000000000 0.03621395  0.00076860  0.2891294 0.7000
  1   -345.0450182803  -0.128521929881 0.02473718  0.00057033  0.2179202 0.7000
                               ***Turning on DIIS***
  2   -345.1193286816  -0.074310401354 0.01456690  0.00035202  0.1627831 0.7000
  3   -345.9954615631  -0.876132881513 0.00746059  0.00019705  0.1199174 0.7000
  4   -345.8439453054   0.151516257686 0.01741953  0.00047293  0.0845285 0.0000
  5   -345.3011875949   0.542757710536 0.00230381  0.00006503  0.0065365 0.0000
                      *** Initiating the SOSCF procedure ***
                           *** Shutting down DIIS ***
                      *** Re-Reading the Fockian *** 
                      *** Removing any level shift *** 
ITER      Energy       Delta-E        Grad      Rot      Max-DP    RMS-DP
  6   -345.27628166   0.0249059342  0.000639  0.000639  0.000895  0.000033
               *** Restarting incremental Fock matrix formation ***
  7   -345.27066355   0.0056181077  0.000326  0.000417  0.000505  0.000018
  8   -345.27067089  -0.0000073415  0.000121  0.000287  0.000354  0.000013
  9   -345.27067269  -0.0000018003  0.000031  0.000032  0.000085  0.000002
 10   -345.27067275  -0.0000000553  0.000006  0.000013  0.000023  0.000001
                 **** Energy Check signals convergence ****
              ***Rediagonalizing the Fockian in SOSCF/NRSCF***

               *****************************************************
               *                     SUCCESS                       *
               *           SCF CONVERGED AFTER  11 CYCLES          *
               *****************************************************


----------------
TOTAL SCF ENERGY
----------------

Total Energy       :         -345.27067275 Eh           -9395.29265 eV

Components:
Nuclear Repulsion  :          216.35836067 Eh            5887.41030 eV
Electronic Energy  :         -561.62903342 Eh          -15282.70296 eV
One Electron Energy:         -901.94157317 Eh          -24543.07795 eV
Two Electron Energy:          340.31253975 Eh            9260.37500 eV

Virial components:
Potential Energy   :         -689.88639714 Eh          -18772.76325 eV
Kinetic Energy     :          344.61572438 Eh            9377.47060 eV
Virial Ratio       :            2.00190052


---------------
SCF CONVERGENCE
---------------

  Last Energy change         ...   -3.7759e-09  Tolerance :   1.0000e-08
  Last MAX-Density change    ...    5.0463e-06  Tolerance :   1.0000e-07
  Last RMS-Density change    ...    1.4122e-07  Tolerance :   5.0000e-09
  Last Orbital Gradient      ...    1.7831e-06  Tolerance :   1.0000e-05
  Last Orbital Rotation      ...    5.0228e-06  Tolerance :   1.0000e-05

             **** THE GBW FILE WAS UPDATED (12meoh.boyd.etal.mol3,4,11-orca.engrad-mp2.def2tzvp.frozencore.gbw) ****
             **** DENSITY FILE WAS UPDATED (12meoh.boyd.etal.mol3,4,11-orca.engrad-mp2.def2tzvp.frozencore.scfp) ****
             **** ENERGY FILE WAS UPDATED (12meoh.boyd.etal.mol3,4,11-orca.engrad-mp2.def2tzvp.frozencore.en.tmp) ****
             **** THE GBW FILE WAS UPDATED (12meoh.boyd.etal.mol3,4,11-orca.engrad-mp2.def2tzvp.frozencore.gbw) ****
             **** DENSITY FILE WAS UPDATED (12meoh.boyd.etal.mol3,4,11-orca.engrad-mp2.def2tzvp.frozencore.scfp) ****
----------------
ORBITAL ENERGIES
----------------

  NO   OCC          E(Eh)            E(eV) 
   0   2.0000     -20.565191      -559.6073 
   1   2.0000     -20.553052      -559.2770 
   2   2.0000     -20.543153      -559.0076 
   3   2.0000     -11.277832      -306.8854 
   4   2.0000     -11.262037      -306.4556 
   5   2.0000     -11.252610      -306.1991 
   6   2.0000      -1.354447       -36.8564 
   7   2.0000      -1.340489       -36.4766 
   8   2.0000      -1.331952       -36.2443 
   9   2.0000      -0.926247       -25.2044 
  10   2.0000      -0.911292       -24.7975 
  11   2.0000      -0.901796       -24.5391 
  12   2.0000      -0.689308       -18.7570 
  13   2.0000      -0.674588       -18.3565 
  14   2.0000      -0.665326       -18.1045 
  15   2.0000      -0.623821       -16.9750 
  16   2.0000      -0.609742       -16.5919 
  17   2.0000      -0.600933       -16.3522 
  18   2.0000      -0.597633       -16.2624 
  19   2.0000      -0.583566       -15.8796 
  20   2.0000      -0.574693       -15.6382 
  21   2.0000      -0.508120       -13.8267 
  22   2.0000      -0.494822       -13.4648 
  23   2.0000      -0.483655       -13.1609 
  24   2.0000      -0.456725       -12.4281 
  25   2.0000      -0.442712       -12.0468 
  26   2.0000      -0.432502       -11.7690 
  27   0.0000       0.125120         3.4047 
  28   0.0000       0.137104         3.7308 
  29   0.0000       0.160560         4.3691 
  30   0.0000       0.166507         4.5309 
  31   0.0000       0.182454         4.9648 
  32   0.0000       0.192010         5.2249 
  33   0.0000       0.216738         5.8978 
  34   0.0000       0.225317         6.1312 
  35   0.0000       0.233041         6.3414 
  36   0.0000       0.242600         6.6015 
  37   0.0000       0.247291         6.7291 
  38   0.0000       0.261597         7.1184 
  39   0.0000       0.272580         7.4173 
  40   0.0000       0.287313         7.8182 
  41   0.0000       0.301133         8.1942 
  42   0.0000       0.326087         8.8733 
  43   0.0000       0.339587         9.2406 
  44   0.0000       0.343876         9.3573 
  45   0.0000       0.350717         9.5435 
  46   0.0000       0.366846         9.9824 
  47   0.0000       0.391903        10.6642 
  48   0.0000       0.463948        12.6247 
  49   0.0000       0.471318        12.8252 
  50   0.0000       0.501557        13.6481 
  51   0.0000       0.514701        14.0057 
  52   0.0000       0.535292        14.5660 
  53   0.0000       0.550934        14.9917 
  54   0.0000       0.562760        15.3135 
  55   0.0000       0.582926        15.8622 
  56   0.0000       0.601998        16.3812 
  57   0.0000       0.615066        16.7368 
  58   0.0000       0.622312        16.9340 
  59   0.0000       0.632882        17.2216 
  60   0.0000       0.643810        17.5190 
  61   0.0000       0.649821        17.6825 
  62   0.0000       0.670300        18.2398 
  63   0.0000       0.673097        18.3159 
  64   0.0000       0.692115        18.8334 
  65   0.0000       0.695408        18.9230 
  66   0.0000       0.701966        19.1015 
  67   0.0000       0.713537        19.4163 
  68   0.0000       0.721502        19.6331 
  69   0.0000       0.751555        20.4509 
  70   0.0000       0.754535        20.5319 
  71   0.0000       0.772201        21.0126 
  72   0.0000       0.778960        21.1966 
  73   0.0000       0.789028        21.4705 
  74   0.0000       0.829215        22.5641 
  75   0.0000       0.888900        24.1882 
  76   0.0000       0.890401        24.2290 
  77   0.0000       0.912490        24.8301 
  78   0.0000       0.920755        25.0550 
  79   0.0000       0.946601        25.7583 
  80   0.0000       0.957464        26.0539 
  81   0.0000       0.966498        26.2997 
  82   0.0000       0.979032        26.6408 
  83   0.0000       0.987500        26.8713 
  84   0.0000       1.084167        29.5017 
  85   0.0000       1.117046        30.3964 
  86   0.0000       1.123296        30.5664 
  87   0.0000       1.135511        30.8988 
  88   0.0000       1.137543        30.9541 
  89   0.0000       1.149199        31.2713 
  90   0.0000       1.239382        33.7253 
  91   0.0000       1.266310        34.4580 
  92   0.0000       1.279860        34.8268 
  93   0.0000       1.540904        41.9301 
  94   0.0000       1.563545        42.5462 
  95   0.0000       1.578958        42.9656 
  96   0.0000       1.650583        44.9146 
  97   0.0000       1.670974        45.4695 
  98   0.0000       1.687603        45.9220 
  99   0.0000       1.705468        46.4081 
 100   0.0000       1.728017        47.0217 
 101   0.0000       1.737317        47.2748 
 102   0.0000       1.765422        48.0396 
 103   0.0000       1.786047        48.6008 
 104   0.0000       1.793486        48.8032 
 105   0.0000       1.793666        48.8081 
 106   0.0000       1.800470        48.9933 
 107   0.0000       1.805376        49.1268 
 108   0.0000       1.811144        49.2837 
 109   0.0000       1.815404        49.3996 
 110   0.0000       1.832620        49.8681 
 111   0.0000       1.842715        50.1428 
 112   0.0000       1.848898        50.3111 
 113   0.0000       1.855419        50.4885 
 114   0.0000       1.871146        50.9165 
 115   0.0000       1.886529        51.3351 
 116   0.0000       1.892458        51.4964 
 117   0.0000       1.958908        53.3046 
 118   0.0000       1.976384        53.7802 
 119   0.0000       1.988738        54.1163 
 120   0.0000       2.144571        58.3567 
 121   0.0000       2.156385        58.6782 
 122   0.0000       2.172299        59.1113 
 123   0.0000       2.204557        59.9890 
 124   0.0000       2.233927        60.7883 
 125   0.0000       2.241972        61.0072 
 126   0.0000       2.252687        61.2987 
 127   0.0000       2.263045        61.5806 
 128   0.0000       2.269990        61.7696 
 129   0.0000       2.294759        62.4436 
 130   0.0000       2.300535        62.6007 
 131   0.0000       2.312998        62.9399 
 132   0.0000       2.321965        63.1839 
 133   0.0000       2.340226        63.6808 
 134   0.0000       2.344617        63.8003 
 135   0.0000       2.443253        66.4843 
 136   0.0000       2.451758        66.7157 
 137   0.0000       2.461833        66.9899 
 138   0.0000       2.543753        69.2190 
 139   0.0000       2.559481        69.6470 
 140   0.0000       2.561636        69.7056 
 141   0.0000       2.566286        69.8322 
 142   0.0000       2.572940        70.0133 
 143   0.0000       2.586706        70.3878 
 144   0.0000       2.589257        70.4573 
 145   0.0000       2.624721        71.4223 
 146   0.0000       2.630498        71.5795 
 147   0.0000       2.643079        71.9218 
 148   0.0000       2.661234        72.4159 
 149   0.0000       2.686865        73.1133 
 150   0.0000       2.700869        73.4944 
 151   0.0000       2.711392        73.7807 
 152   0.0000       2.723332        74.1056 
 153   0.0000       2.785373        75.7938 
 154   0.0000       2.795118        76.0590 
 155   0.0000       2.810889        76.4882 
 156   0.0000       2.833804        77.1117 
 157   0.0000       2.859165        77.8018 
 158   0.0000       2.869931        78.0948 
 159   0.0000       2.913144        79.2707 
 160   0.0000       2.917146        79.3796 
 161   0.0000       2.924451        79.5784 
 162   0.0000       3.046677        82.9043 
 163   0.0000       3.061276        83.3016 
 164   0.0000       3.063652        83.3662 
 165   0.0000       3.104772        84.4851 
 166   0.0000       3.119184        84.8773 
 167   0.0000       3.136093        85.3374 
 168   0.0000       3.142653        85.5159 
 169   0.0000       3.157474        85.9192 
 170   0.0000       3.167671        86.1967 
 171   0.0000       3.249857        88.4331 
 172   0.0000       3.261753        88.7568 
 173   0.0000       3.268954        88.9528 
 174   0.0000       3.357908        91.3733 
 175   0.0000       3.367413        91.6320 
 176   0.0000       3.384402        92.0943 
 177   0.0000       3.432306        93.3978 
 178   0.0000       3.440113        93.6102 
 179   0.0000       3.462730        94.2257 
 180   0.0000       3.535351        96.2018 
 181   0.0000       3.554442        96.7213 
 182   0.0000       3.566306        97.0441 
 183   0.0000       3.632470        98.8445 
 184   0.0000       3.650588        99.3375 
 185   0.0000       3.659714        99.5859 
 186   0.0000       3.665375        99.7399 
 187   0.0000       3.681202       100.1706 
 188   0.0000       3.684217       100.2526 
 189   0.0000       3.717460       101.1572 
 190   0.0000       3.736509       101.6756 
 191   0.0000       3.745310       101.9151 
 192   0.0000       3.857402       104.9653 
 193   0.0000       3.872927       105.3877 
 194   0.0000       3.883217       105.6677 
 195   0.0000       3.886790       105.7649 
 196   0.0000       3.897933       106.0682 
 197   0.0000       3.906943       106.3133 
 198   0.0000       3.918594       106.6304 
 199   0.0000       3.932895       107.0195 
 200   0.0000       3.941867       107.2636 
 201   0.0000       4.244608       115.5016 
 202   0.0000       4.255063       115.7861 
 203   0.0000       4.269819       116.1877 
 204   0.0000       4.499489       122.4373 
 205   0.0000       4.511100       122.7533 
 206   0.0000       4.524864       123.1278 
 207   0.0000       4.542866       123.6177 
 208   0.0000       4.550475       123.8247 
 209   0.0000       4.561905       124.1357 
 210   0.0000       4.707029       128.0848 
 211   0.0000       4.740153       128.9861 
 212   0.0000       4.750009       129.2543 
 213   0.0000       4.867207       132.4434 
 214   0.0000       4.883293       132.8811 
 215   0.0000       4.885983       132.9544 
 216   0.0000       5.687809       154.7732 
 217   0.0000       5.699544       155.0925 
 218   0.0000       5.709400       155.3607 
 219   0.0000       5.762242       156.7986 
 220   0.0000       5.774953       157.1445 
 221   0.0000       5.789232       157.5330 
 222   0.0000       5.873140       159.8163 
 223   0.0000       5.880733       160.0229 
 224   0.0000       5.890080       160.2772 
 225   0.0000       6.161519       167.6635 
 226   0.0000       6.164881       167.7549 
 227   0.0000       6.168480       167.8529 
 228   0.0000       6.170055       167.8957 
 229   0.0000       6.175682       168.0489 
 230   0.0000       6.187845       168.3798 
 231   0.0000       6.314215       171.8185 
 232   0.0000       6.324276       172.0923 
 233   0.0000       6.342938       172.6001 
 234   0.0000       6.655945       181.1175 
 235   0.0000       6.658240       181.1799 
 236   0.0000       6.672780       181.5756 
 237   0.0000       6.943928       188.9539 
 238   0.0000       6.955430       189.2669 
 239   0.0000       6.964367       189.5101 
 240   0.0000       7.157529       194.7663 
 241   0.0000       7.171133       195.1364 
 242   0.0000       7.172450       195.1723 
 243   0.0000       7.212576       196.2642 
 244   0.0000       7.223772       196.5688 
 245   0.0000       7.233772       196.8410 
 246   0.0000       7.455613       202.8775 
 247   0.0000       7.468802       203.2364 
 248   0.0000       7.477336       203.4687 
 249   0.0000       7.585816       206.4205 
 250   0.0000       7.596052       206.6991 
 251   0.0000       7.612137       207.1368 
 252   0.0000      23.359097       635.6333 
 253   0.0000      23.377375       636.1307 
 254   0.0000      23.387009       636.3929 
 255   0.0000      45.148640      1228.5570 
 256   0.0000      45.168947      1229.1095 
 257   0.0000      45.192493      1229.7502 

                    ********************************
                    * MULLIKEN POPULATION ANALYSIS *
                    ********************************

-----------------------
MULLIKEN ATOMIC CHARGES
-----------------------
   0 O :   -0.553464
   1 H :    0.327995
   2 C :   -0.089188
   3 H :    0.097028
   4 H :    0.082695
   5 H :    0.127818
   6 O :   -0.555620
   7 H :    0.331440
   8 C :   -0.087304
   9 H :    0.098684
  10 H :    0.085839
  11 H :    0.129140
  12 O :   -0.548010
  13 H :    0.331466
  14 C :   -0.075927
  15 H :    0.108176
  16 H :    0.094433
  17 H :    0.094802
Sum of atomic charges:    0.0000000

--------------------------------
MULLIKEN REDUCED ORBITAL CHARGES
--------------------------------
  0 O s       :     3.805825  s :     3.805825
      pz      :     1.394148  p :     4.713322
      px      :     1.743950
      py      :     1.575224
      dz2     :     0.010628  d :     0.032594
      dxz     :     0.003809
      dyz     :     0.007999
      dx2y2   :     0.002665
      dxy     :     0.007492
      f0      :     0.000399  f :     0.001724
      f+1     :     0.000368
      f-1     :     0.000182
      f+2     :     0.000088
      f-2     :     0.000280
      f+3     :     0.000351
      f-3     :     0.000055
  1 H s       :     0.629407  s :     0.629407
      pz      :     0.011171  p :     0.042598
      px      :     0.015700
      py      :     0.015728
  2 C s       :     3.198483  s :     3.198483
      pz      :     0.698665  p :     2.766757
      px      :     1.012696
      py      :     1.055396
      dz2     :     0.026731  d :     0.115027
      dxz     :     0.034679
      dyz     :     0.025877
      dx2y2   :     0.007977
      dxy     :     0.019763
      f0      :     0.002566  f :     0.008922
      f+1     :     0.001986
      f-1     :     0.001786
      f+2     :     0.000717
      f-2     :     0.000785
      f+3     :     0.001040
      f-3     :     0.000042
  3 H s       :     0.881944  s :     0.881944
      pz      :     0.003868  p :     0.021028
      px      :     0.007259
      py      :     0.009902
  4 H s       :     0.897279  s :     0.897279
      pz      :     0.006473  p :     0.020026
      px      :     0.010080
      py      :     0.003473
  5 H s       :     0.851686  s :     0.851686
      pz      :     0.002049  p :     0.020496
      px      :     0.006905
      py      :     0.011541
  6 O s       :     3.807718  s :     3.807718
      pz      :     1.302065  p :     4.714102
      px      :     1.625995
      py      :     1.786042
      dz2     :     0.009554  d :     0.032086
      dxz     :     0.009312
      dyz     :     0.002626
      dx2y2   :     0.003859
      dxy     :     0.006735
      f0      :     0.000440  f :     0.001713
      f+1     :     0.000352
      f-1     :     0.000146
      f+2     :     0.000115
      f-2     :     0.000301
      f+3     :     0.000147
      f-3     :     0.000212
  7 H s       :     0.626133  s :     0.626133
      pz      :     0.018885  p :     0.042428
      px      :     0.010855
      py      :     0.012688
  8 C s       :     3.197006  s :     3.197006
      pz      :     0.944833  p :     2.766906
      px      :     0.885594
      py      :     0.936478
      dz2     :     0.033744  d :     0.114485
      dxz     :     0.016387
      dyz     :     0.014017
      dx2y2   :     0.031416
      dxy     :     0.018921
      f0      :     0.000947  f :     0.008908
      f+1     :     0.001706
      f-1     :     0.000610
      f+2     :     0.001522
      f-2     :     0.001151
      f+3     :     0.001255
      f-3     :     0.001715
  9 H s       :     0.880247  s :     0.880247
      pz      :     0.013812  p :     0.021069
      px      :     0.003944
      py      :     0.003313
 10 H s       :     0.894087  s :     0.894087
      pz      :     0.003939  p :     0.020074
      px      :     0.003010
      py      :     0.013126
 11 H s       :     0.850291  s :     0.850291
      pz      :     0.002876  p :     0.020570
      px      :     0.012412
      py      :     0.005282
 12 O s       :     3.806934  s :     3.806934
      pz      :     1.514460  p :     4.707097
      px      :     1.679843
      py      :     1.512794
      dz2     :     0.005804  d :     0.032250
      dxz     :     0.009978
      dyz     :     0.004064
      dx2y2   :     0.005769
      dxy     :     0.006636
      f0      :     0.000235  f :     0.001730
      f+1     :     0.000353
      f-1     :     0.000215
      f+2     :     0.000321
      f-2     :     0.000298
      f+3     :     0.000268
      f-3     :     0.000040
 13 H s       :     0.625662  s :     0.625662
      pz      :     0.012886  p :     0.042872
      px      :     0.012007
      py      :     0.017978
 14 C s       :     3.193109  s :     3.193109
      pz      :     0.797756  p :     2.758713
      px      :     0.926056
      py      :     1.034901
      dz2     :     0.029505  d :     0.115164
      dxz     :     0.016797
      dyz     :     0.032317
      dx2y2   :     0.026651
      dxy     :     0.009893
      f0      :     0.001800  f :     0.008941
      f+1     :     0.001617
      f-1     :     0.001131
      f+2     :     0.001942
      f-2     :     0.001293
      f+3     :     0.000861
      f-3     :     0.000297
 15 H s       :     0.870639  s :     0.870639
      pz      :     0.004296  p :     0.021186
      px      :     0.004310
      py      :     0.012580
 16 H s       :     0.885459  s :     0.885459
      pz      :     0.002846  p :     0.020108
      px      :     0.013776
      py      :     0.003486
 17 H s       :     0.884991  s :     0.884991
      pz      :     0.009063  p :     0.020207
      px      :     0.003047
      py      :     0.008097


                     *******************************
                     * LOEWDIN POPULATION ANALYSIS *
                     *******************************

----------------------
LOEWDIN ATOMIC CHARGES
----------------------
   0 O :   -0.134912
   1 H :    0.189079
   2 C :   -0.339338
   3 H :    0.097883
   4 H :    0.084758
   5 H :    0.095164
   6 O :   -0.134894
   7 H :    0.191951
   8 C :   -0.336653
   9 H :    0.098359
  10 H :    0.087844
  11 H :    0.096167
  12 O :   -0.129634
  13 H :    0.190555
  14 C :   -0.336086
  15 H :    0.101033
  16 H :    0.089583
  17 H :    0.089141

-------------------------------
LOEWDIN REDUCED ORBITAL CHARGES
-------------------------------
  0 O s       :     3.396250  s :     3.396250
      pz      :     1.438490  p :     4.665936
      px      :     1.668225
      py      :     1.559221
      dz2     :     0.020996  d :     0.068595
      dxz     :     0.013937
      dyz     :     0.019388
      dx2y2   :     0.002748
      dxy     :     0.011527
      f0      :     0.001062  f :     0.004131
      f+1     :     0.000870
      f-1     :     0.000834
      f+2     :     0.000301
      f-2     :     0.000494
      f+3     :     0.000546
      f-3     :     0.000025
  1 H s       :     0.667079  s :     0.667079
      pz      :     0.030331  p :     0.143842
      px      :     0.049347
      py      :     0.064164
  2 C s       :     2.862628  s :     2.862628
      pz      :     0.839053  p :     2.997758
      px      :     1.066452
      py      :     1.092253
      dz2     :     0.118733  d :     0.421681
      dxz     :     0.128190
      dyz     :     0.088894
      dx2y2   :     0.021022
      dxy     :     0.064842
      f0      :     0.016988  f :     0.057271
      f+1     :     0.011164
      f-1     :     0.014023
      f+2     :     0.007014
      f-2     :     0.004556
      f+3     :     0.002928
      f-3     :     0.000598
  3 H s       :     0.843769  s :     0.843769
      pz      :     0.010736  p :     0.058348
      px      :     0.020357
      py      :     0.027256
  4 H s       :     0.857113  s :     0.857113
      pz      :     0.017844  p :     0.058128
      px      :     0.027877
      py      :     0.012407
  5 H s       :     0.843729  s :     0.843729
      pz      :     0.007753  p :     0.061107
      px      :     0.020757
      py      :     0.032597
  6 O s       :     3.396637  s :     3.396637
      pz      :     1.304164  p :     4.666206
      px      :     1.635359
      py      :     1.726684
      dz2     :     0.023884  d :     0.067980
      dxz     :     0.015666
      dyz     :     0.007253
      dx2y2   :     0.009604
      dxy     :     0.011573
      f0      :     0.000629  f :     0.004070
      f+1     :     0.001136
      f-1     :     0.000322
      f+2     :     0.000482
      f-2     :     0.000616
      f+3     :     0.000492
      f-3     :     0.000393
  7 H s       :     0.665024  s :     0.665024
      pz      :     0.070018  p :     0.143024
      px      :     0.037196
      py      :     0.035810
  8 C s       :     2.862492  s :     2.862492
      pz      :     1.006271  p :     2.997144
      px      :     0.975935
      py      :     1.014937
      dz2     :     0.105527  d :     0.420017
      dxz     :     0.065268
      dyz     :     0.048498
      dx2y2   :     0.115583
      dxy     :     0.085141
      f0      :     0.005149  f :     0.057001
      f+1     :     0.009587
      f-1     :     0.004312
      f+2     :     0.011837
      f-2     :     0.010035
      f+3     :     0.007141
      f-3     :     0.008940
  9 H s       :     0.843104  s :     0.843104
      pz      :     0.034611  p :     0.058537
      px      :     0.012863
      py      :     0.011064
 10 H s       :     0.853906  s :     0.853906
      pz      :     0.013325  p :     0.058250
      px      :     0.010481
      py      :     0.034444
 11 H s       :     0.843011  s :     0.843011
      pz      :     0.010788  p :     0.060823
      px      :     0.033558
      py      :     0.016477
 12 O s       :     3.393573  s :     3.393573
      pz      :     1.517214  p :     4.663580
      px      :     1.664504
      py      :     1.481862
      dz2     :     0.014363  d :     0.068378
      dxz     :     0.017718
      dyz     :     0.014869
      dx2y2   :     0.011676
      dxy     :     0.009751
      f0      :     0.000772  f :     0.004105
      f+1     :     0.000778
      f-1     :     0.000455
      f+2     :     0.000577
      f-2     :     0.000775
      f+3     :     0.000631
      f-3     :     0.000117
 13 H s       :     0.665019  s :     0.665019
      pz      :     0.035472  p :     0.144425
      px      :     0.041718
      py      :     0.067236
 14 C s       :     2.862082  s :     2.862082
      pz      :     0.910337  p :     2.993299
      px      :     1.009632
      py      :     1.073330
      dz2     :     0.110038  d :     0.423274
      dxz     :     0.084883
      dyz     :     0.104467
      dx2y2   :     0.089940
      dxy     :     0.033946
      f0      :     0.013448  f :     0.057431
      f+1     :     0.012342
      f-1     :     0.005867
      f+2     :     0.009064
      f-2     :     0.009452
      f+3     :     0.004308
      f-3     :     0.002949
 15 H s       :     0.840161  s :     0.840161
      pz      :     0.012226  p :     0.058806
      px      :     0.013749
      py      :     0.032830
 16 H s       :     0.851806  s :     0.851806
      pz      :     0.010008  p :     0.058610
      px      :     0.036153
      py      :     0.012448
 17 H s       :     0.852244  s :     0.852244
      pz      :     0.024422  p :     0.058616
      px      :     0.010760
      py      :     0.023434


                      *****************************
                      * MAYER POPULATION ANALYSIS *
                      *****************************

  NA   - Mulliken gross atomic population
  ZA   - Total nuclear charge
  QA   - Mulliken gross atomic charge
  VA   - Mayer's total valence
  BVA  - Mayer's bonded valence
  FA   - Mayer's free valence

  ATOM       NA         ZA         QA         VA         BVA        FA
  0 O      8.5535     8.0000    -0.5535     1.7854     1.7854     0.0000
  1 H      0.6720     1.0000     0.3280     0.8995     0.8995     0.0000
  2 C      6.0892     6.0000    -0.0892     3.8787     3.8787     0.0000
  3 H      0.9030     1.0000     0.0970     0.9623     0.9623     0.0000
  4 H      0.9173     1.0000     0.0827     0.9612     0.9612     0.0000
  5 H      0.8722     1.0000     0.1278     0.9640     0.9640     0.0000
  6 O      8.5556     8.0000    -0.5556     1.7827     1.7827    -0.0000
  7 H      0.6686     1.0000     0.3314     0.8971     0.8971    -0.0000
  8 C      6.0873     6.0000    -0.0873     3.8709     3.8709     0.0000
  9 H      0.9013     1.0000     0.0987     0.9627     0.9627     0.0000
 10 H      0.9142     1.0000     0.0858     0.9617     0.9617     0.0000
 11 H      0.8709     1.0000     0.1291     0.9709     0.9709    -0.0000
 12 O      8.5480     8.0000    -0.5480     1.7931     1.7931     0.0000
 13 H      0.6685     1.0000     0.3315     0.8975     0.8975     0.0000
 14 C      6.0759     6.0000    -0.0759     3.8929     3.8929     0.0000
 15 H      0.8918     1.0000     0.1082     0.9627     0.9627     0.0000
 16 H      0.9056     1.0000     0.0944     0.9620     0.9620     0.0000
 17 H      0.9052     1.0000     0.0948     0.9613     0.9613    -0.0000

  Mayer bond orders larger than 0.100000
B(  0-O ,  1-H ) :   0.8894 B(  0-O ,  2-C ) :   0.9228 B(  2-C ,  3-H ) :   0.9842 
B(  2-C ,  4-H ) :   0.9904 B(  2-C ,  5-H ) :   0.9797 B(  6-O ,  7-H ) :   0.8849 
B(  6-O ,  8-C ) :   0.9138 B(  8-C ,  9-H ) :   0.9838 B(  8-C , 10-H ) :   0.9850 
B(  8-C , 11-H ) :   0.9835 B( 12-O , 13-H ) :   0.8846 B( 12-O , 14-C ) :   0.9273 
B( 14-C , 15-H ) :   0.9846 B( 14-C , 16-H ) :   0.9842 B( 14-C , 17-H ) :   0.9876 


-------
TIMINGS
-------

Total SCF time: 0 days 0 hours 0 min 12 sec 

Total time                  ....      12.053 sec
Sum of individual times     ....      11.798 sec  ( 97.9%)

Fock matrix formation       ....      11.450 sec  ( 95.0%)
Diagonalization             ....       0.073 sec  (  0.6%)
Density matrix formation    ....       0.010 sec  (  0.1%)
Population analysis         ....       0.009 sec  (  0.1%)
Initial guess               ....       0.142 sec  (  1.2%)
Orbital Transformation      ....       0.000 sec  (  0.0%)
Orbital Orthonormalization  ....       0.000 sec  (  0.0%)
DIIS solution               ....       0.026 sec  (  0.2%)
SOSCF solution              ....       0.031 sec  (  0.3%)


           ************************************************************
           *        Program running with 6 parallel MPI-processes     *
           *              working on a common directory               *
           ************************************************************

------------------------------------------------------------------------------
                                ORCA  MP2 
------------------------------------------------------------------------------

Freezing NCore=12 chemical core electrons
MP2 will be done in the AO integral direct mode
The Q1-step will be done using symmetric double matrices
Dimension of the basis                    ...  258
Memory devoted for MP2                    ... 8000 MB   
Memory needed for all in one shot         ...  264 MB
Number of MOs that can be treated together...  120      
MP2 density construction                  ... relaxed
The MP2 gradient is requested => amplitudes will be stored on disk
Total number of MOs              ...   21
Number of MOs treated per batch  ...    4 
Number of batches necessary      ...    1 
OPERATORS   0/  0 PASS   0
-----------------------------------------------
 MP2 CORRELATION ENERGY   :     -1.253733245 Eh
-----------------------------------------------


---------------------
MP2 DENSITY FORMATION
---------------------

Completing the external part of the density      ... done
Storing the unrelaxed density                    ... done

Calculating G(D)                                 ... done
Completing the Lagrangian                        ... done
Solving the Z-vector equations                   ... 

------------------------------------------------------------------------------
                           ORCA CP-SCF CALCULATION
------------------------------------------------------------------------------

Input orbitals are from        ... 12meoh.boyd.etal.mol3,4,11-orca.engrad-mp2.def2tzvp.frozencore.gbw
Input Perturbation             ... 12meoh.boyd.etal.mol3,4,11-orca.engrad-mp2.def2tzvp.frozencore.pin.tmp
Wavefunction output            ... 12meoh.boyd.etal.mol3,4,11-orca.engrad-mp2.def2tzvp.frozencore.pout.tmp
Perturbation mode              ... Real perturbation (singlet)
Solver                         ... POPLE
Max. number of iterations      ... 128
Convergence tolerance          ... 1.000e-08
Integral handling              ... Direct
Number of perturbations        ... 1
Number of operators            ... 1
Orbital ranges used for CP-SCF:
 Operator 0:  Orbitals   0... 26  to  27...257
Variables per vector in CP-SCF ... 6237
Number of vectors sought       ... 1
     CP-SCF ITERATION   0: 
     CP-SCF ITERATION   1:      0.000359401294
     CP-SCF ITERATION   2:      0.000017795356
     CP-SCF ITERATION   3:      0.000002830972
     CP-SCF ITERATION   4:      0.000000150310
     CP-SCF ITERATION   5:      0.000000004631
                                                 ... done
Finalizing the relaxed density                   ... done
Transforming P to the AO basis                   ... done
Storing the relaxed density                      ... done

------------------------------------
ENERGY WEIGHTED DENSITY FINALIZATION
------------------------------------

Gathering the parts of the W-matrix              ...                                                      done
Forming the Z-density                            ... done
Transforming Z to the AO basis                   ... done
Calculating G(Z)                                 ... done
Finalizing the W-matrix                          ...                                                      done
Transforming W to the AO basis and storing       ... done

                *********************************************
                * UNRELAXED MP2 DENSITY POPULATION ANALYSIS *
                *********************************************

------------------------------------------------------------------------------
                           ORCA POPULATION ANALYSIS
------------------------------------------------------------------------------
Input electron density              ... 12meoh.boyd.etal.mol3,4,11-orca.engrad-mp2.def2tzvp.frozencore.pmp2ur
BaseName (.gbw .S,...)              ... 12meoh.boyd.etal.mol3,4,11-orca.engrad-mp2.def2tzvp.frozencore

                    ********************************
                    * MULLIKEN POPULATION ANALYSIS *
                    ********************************

-----------------------
MULLIKEN ATOMIC CHARGES
-----------------------
   0 O :   -0.542381
   1 H :    0.325277
   2 C :   -0.104849
   3 H :    0.099878
   4 H :    0.085200
   5 H :    0.129571
   6 O :   -0.544495
   7 H :    0.328715
   8 C :   -0.102726
   9 H :    0.101524
  10 H :    0.088299
  11 H :    0.130895
  12 O :   -0.537025
  13 H :    0.328822
  14 C :   -0.091717
  15 H :    0.110951
  16 H :    0.096842
  17 H :    0.097219
Sum of atomic charges:    0.0000000

--------------------------------
MULLIKEN REDUCED ORBITAL CHARGES
--------------------------------
  0 O s       :     3.800553  s :     3.800553
      pz      :     1.382614  p :     4.677584
      px      :     1.731538
      py      :     1.563431
      dz2     :     0.015911  d :     0.059865
      dxz     :     0.009441
      dyz     :     0.013350
      dx2y2   :     0.008278
      dxy     :     0.012886
      f0      :     0.000787  f :     0.004380
      f+1     :     0.000748
      f-1     :     0.000578
      f+2     :     0.000465
      f-2     :     0.000655
      f+3     :     0.000716
      f-3     :     0.000431
  1 H s       :     0.630388  s :     0.630388
      pz      :     0.011869  p :     0.044335
      px      :     0.016359
      py      :     0.016108
  2 C s       :     3.196551  s :     3.196551
      pz      :     0.701057  p :     2.760286
      px      :     1.008750
      py      :     1.050478
      dz2     :     0.029740  d :     0.135755
      dxz     :     0.038232
      dyz     :     0.030534
      dx2y2   :     0.013128
      dxy     :     0.024121
      f0      :     0.002971  f :     0.012257
      f+1     :     0.002456
      f-1     :     0.002235
      f+2     :     0.001189
      f-2     :     0.001326
      f+3     :     0.001478
      f-3     :     0.000602
  3 H s       :     0.875969  s :     0.875969
      pz      :     0.005003  p :     0.024154
      px      :     0.008295
      py      :     0.010855
  4 H s       :     0.891544  s :     0.891544
      pz      :     0.007557  p :     0.023257
      px      :     0.011061
      py      :     0.004639
  5 H s       :     0.846869  s :     0.846869
      pz      :     0.003205  p :     0.023560
      px      :     0.007921
      py      :     0.012433
  6 O s       :     3.802570  s :     3.802570
      pz      :     1.293230  p :     4.678076
      px      :     1.612488
      py      :     1.772358
      dz2     :     0.014880  d :     0.059481
      dxz     :     0.014600
      dyz     :     0.008313
      dx2y2   :     0.009496
      dxy     :     0.012192
      f0      :     0.000809  f :     0.004367
      f+1     :     0.000738
      f-1     :     0.000524
      f+2     :     0.000497
      f-2     :     0.000678
      f+3     :     0.000531
      f-3     :     0.000590
  7 H s       :     0.627157  s :     0.627157
      pz      :     0.018805  p :     0.044127
      px      :     0.011715
      py      :     0.013607
  8 C s       :     3.194943  s :     3.194943
      pz      :     0.942648  p :     2.760364
      px      :     0.883876
      py      :     0.933840
      dz2     :     0.037903  d :     0.135183
      dxz     :     0.020514
      dyz     :     0.018583
      dx2y2   :     0.035422
      dxy     :     0.022763
      f0      :     0.001431  f :     0.012236
      f+1     :     0.002152
      f-1     :     0.001150
      f+2     :     0.001997
      f-2     :     0.001567
      f+3     :     0.001810
      f-3     :     0.002130
  9 H s       :     0.874291  s :     0.874291
      pz      :     0.014686  p :     0.024185
      px      :     0.005048
      py      :     0.004451
 10 H s       :     0.888426  s :     0.888426
      pz      :     0.005074  p :     0.023275
      px      :     0.004177
      py      :     0.014024
 11 H s       :     0.845460  s :     0.845460
      pz      :     0.004012  p :     0.023645
      px      :     0.013283
      py      :     0.006349
 12 O s       :     3.801835  s :     3.801835
      pz      :     1.502593  p :     4.671197
      px      :     1.666366
      py      :     1.502237
      dz2     :     0.011367  d :     0.059606
      dxz     :     0.015267
      dyz     :     0.009632
      dx2y2   :     0.011299
      dxy     :     0.012040
      f0      :     0.000619  f :     0.004387
      f+1     :     0.000736
      f-1     :     0.000591
      f+2     :     0.000698
      f-2     :     0.000677
      f+3     :     0.000642
      f-3     :     0.000423
 13 H s       :     0.626621  s :     0.626621
      pz      :     0.013570  p :     0.044556
      px      :     0.012826
      py      :     0.018161
 14 C s       :     3.191117  s :     3.191117
      pz      :     0.798133  p :     2.752535
      px      :     0.923623
      py      :     1.030779
      dz2     :     0.033581  d :     0.135795
      dxz     :     0.020544
      dyz     :     0.036002
      dx2y2   :     0.030693
      dxy     :     0.014975
      f0      :     0.002295  f :     0.012270
      f+1     :     0.002023
      f-1     :     0.001625
      f+2     :     0.002409
      f-2     :     0.001756
      f+3     :     0.001327
      f-3     :     0.000835
 15 H s       :     0.864778  s :     0.864778
      pz      :     0.005407  p :     0.024271
      px      :     0.005400
      py      :     0.013463
 16 H s       :     0.879879  s :     0.879879
      pz      :     0.004002  p :     0.023279
      px      :     0.014649
      py      :     0.004629
 17 H s       :     0.879391  s :     0.879391
      pz      :     0.010064  p :     0.023389
      px      :     0.004208
      py      :     0.009118


                     *******************************
                     * LOEWDIN POPULATION ANALYSIS *
                     *******************************

----------------------
LOEWDIN ATOMIC CHARGES
----------------------
   0 O :   -0.127127
   1 H :    0.187190
   2 C :   -0.350028
   3 H :    0.099623
   4 H :    0.086194
   5 H :    0.096496
   6 O :   -0.126801
   7 H :    0.190036
   8 C :   -0.347318
   9 H :    0.100107
  10 H :    0.089310
  11 H :    0.097528
  12 O :   -0.121685
  13 H :    0.188712
  14 C :   -0.346703
  15 H :    0.102789
  16 H :    0.091069
  17 H :    0.090609

-------------------------------
LOEWDIN REDUCED ORBITAL CHARGES
-------------------------------
  0 O s       :     3.392779  s :     3.392779
      pz      :     1.426215  p :     4.630027
      px      :     1.656181
      py      :     1.547631
      dz2     :     0.027045  d :     0.097283
      dxz     :     0.019673
      dyz     :     0.024815
      dx2y2   :     0.008374
      dxy     :     0.017376
      f0      :     0.001521  f :     0.007038
      f+1     :     0.001295
      f-1     :     0.001265
      f+2     :     0.000689
      f-2     :     0.000910
      f+3     :     0.000952
      f-3     :     0.000406
  1 H s       :     0.665358  s :     0.665358
      pz      :     0.031230  p :     0.147452
      px      :     0.050488
      py      :     0.065734
  2 C s       :     2.861504  s :     2.861504
      pz      :     0.837686  p :     2.983833
      px      :     1.060491
      py      :     1.085656
      dz2     :     0.122253  d :     0.442536
      dxz     :     0.131500
      dyz     :     0.092763
      dx2y2   :     0.026263
      dxy     :     0.069755
      f0      :     0.017731  f :     0.062156
      f+1     :     0.011932
      f-1     :     0.014651
      f+2     :     0.007627
      f-2     :     0.005278
      f+3     :     0.003712
      f-3     :     0.001225
  3 H s       :     0.836951  s :     0.836951
      pz      :     0.012253  p :     0.063426
      px      :     0.021990
      py      :     0.029182
  4 H s       :     0.850371  s :     0.850371
      pz      :     0.019785  p :     0.063436
      px      :     0.029972
      py      :     0.013679
  5 H s       :     0.837355  s :     0.837355
      pz      :     0.009138  p :     0.066148
      px      :     0.022324
      py      :     0.034687
  6 O s       :     3.393166  s :     3.393166
      pz      :     1.294902  p :     4.629850
      px      :     1.621774
      py      :     1.713174
      dz2     :     0.029545  d :     0.096809
      dxz     :     0.021478
      dyz     :     0.012981
      dx2y2   :     0.015235
      dxy     :     0.017571
      f0      :     0.001079  f :     0.006977
      f+1     :     0.001567
      f-1     :     0.000713
      f+2     :     0.000879
      f-2     :     0.001050
      f+3     :     0.000886
      f-3     :     0.000803
  7 H s       :     0.663360  s :     0.663360
      pz      :     0.071701  p :     0.146605
      px      :     0.038216
      py      :     0.036688
  8 C s       :     2.861360  s :     2.861360
      pz      :     1.001438  p :     2.983190
      px      :     0.971752
      py      :     1.010001
      dz2     :     0.109410  d :     0.440886
      dxz     :     0.069695
      dyz     :     0.053042
      dx2y2   :     0.119382
      dxy     :     0.089357
      f0      :     0.006003  f :     0.061881
      f+1     :     0.010251
      f-1     :     0.004938
      f+2     :     0.012352
      f-2     :     0.010770
      f+3     :     0.007764
      f-3     :     0.009804
  9 H s       :     0.836285  s :     0.836285
      pz      :     0.037031  p :     0.063608
      px      :     0.014249
      py      :     0.012327
 10 H s       :     0.847176  s :     0.847176
      pz      :     0.014757  p :     0.063515
      px      :     0.011827
      py      :     0.036930
 11 H s       :     0.836587  s :     0.836587
      pz      :     0.012066  p :     0.065884
      px      :     0.035863
      py      :     0.017955
 12 O s       :     3.390127  s :     3.390127
      pz      :     1.504981  p :     4.627393
      px      :     1.651024
      py      :     1.471388
      dz2     :     0.020040  d :     0.097149
      dxz     :     0.023805
      dyz     :     0.020564
      dx2y2   :     0.017272
      dxy     :     0.015468
      f0      :     0.001183  f :     0.007016
      f+1     :     0.001226
      f-1     :     0.000856
      f+2     :     0.001005
      f-2     :     0.001198
      f+3     :     0.001038
      f-3     :     0.000509
 13 H s       :     0.663315  s :     0.663315
      pz      :     0.036391  p :     0.147973
      px      :     0.042789
      py      :     0.068793
 14 C s       :     2.860935  s :     2.860935
      pz      :     0.907524  p :     2.979444
      px      :     1.004758
      py      :     1.067161
      dz2     :     0.113751  d :     0.444017
      dxz     :     0.088999
      dyz     :     0.108102
      dx2y2   :     0.094245
      dxy     :     0.038920
      f0      :     0.013948  f :     0.062308
      f+1     :     0.013166
      f-1     :     0.006631
      f+2     :     0.009892
      f-2     :     0.010063
      f+3     :     0.005022
      f-3     :     0.003586
 15 H s       :     0.833387  s :     0.833387
      pz      :     0.013696  p :     0.063824
      px      :     0.015122
      py      :     0.035007
 16 H s       :     0.845107  s :     0.845107
      pz      :     0.011392  p :     0.063824
      px      :     0.038719
      py      :     0.013713
 17 H s       :     0.845553  s :     0.845553
      pz      :     0.026527  p :     0.063838
      px      :     0.012050
      py      :     0.025261


                      *****************************
                      * MAYER POPULATION ANALYSIS *
                      *****************************

  NA   - Mulliken gross atomic population
  ZA   - Total nuclear charge
  QA   - Mulliken gross atomic charge
  VA   - Mayer's total valence
  BVA  - Mayer's bonded valence
  FA   - Mayer's free valence

  ATOM       NA         ZA         QA         VA         BVA        FA
  0 O      8.5424     8.0000    -0.5424     2.0854     1.6798     0.4056
  1 H      0.6747     1.0000     0.3253     0.9060     0.8529     0.0532
  2 C      6.1048     6.0000    -0.1048     3.9847     3.7060     0.2787
  3 H      0.9001     1.0000     0.0999     0.9716     0.9241     0.0476
  4 H      0.9148     1.0000     0.0852     0.9714     0.9217     0.0497
  5 H      0.8704     1.0000     0.1296     0.9735     0.9252     0.0483
  6 O      8.5445     8.0000    -0.5445     2.0840     1.6765     0.4075
  7 H      0.6713     1.0000     0.3287     0.9036     0.8504     0.0532
  8 C      6.1027     6.0000    -0.1027     3.9766     3.6981     0.2786
  9 H      0.8985     1.0000     0.1015     0.9720     0.9245     0.0475
 10 H      0.9117     1.0000     0.0883     0.9718     0.9222     0.0496
 11 H      0.8691     1.0000     0.1309     0.9803     0.9321     0.0482
 12 O      8.5370     8.0000    -0.5370     2.0925     1.6868     0.4057
 13 H      0.6712     1.0000     0.3288     0.9039     0.8512     0.0527
 14 C      6.0917     6.0000    -0.0917     3.9977     3.7194     0.2783
 15 H      0.8890     1.0000     0.1110     0.9717     0.9247     0.0470
 16 H      0.9032     1.0000     0.0968     0.9718     0.9228     0.0490
 17 H      0.9028     1.0000     0.0972     0.9710     0.9221     0.0490

  Mayer bond orders larger than 0.100000
B(  0-O ,  1-H ) :   0.8437 B(  0-O ,  2-C ) :   0.8645 B(  2-C ,  3-H ) :   0.9465 
B(  2-C ,  4-H ) :   0.9518 B(  2-C ,  5-H ) :   0.9422 B(  6-O ,  7-H ) :   0.8392 
B(  6-O ,  8-C ) :   0.8553 B(  8-C ,  9-H ) :   0.9461 B(  8-C , 10-H ) :   0.9465 
B(  8-C , 11-H ) :   0.9460 B( 12-O , 13-H ) :   0.8393 B( 12-O , 14-C ) :   0.8683 
B( 14-C , 15-H ) :   0.9471 B( 14-C , 16-H ) :   0.9461 B( 14-C , 17-H ) :   0.9494 



                *******************************************
                * RELAXED MP2 DENSITY POPULATION ANALYSIS *
                *******************************************

------------------------------------------------------------------------------
                           ORCA POPULATION ANALYSIS
------------------------------------------------------------------------------
Input electron density              ... 12meoh.boyd.etal.mol3,4,11-orca.engrad-mp2.def2tzvp.frozencore.pmp2re
BaseName (.gbw .S,...)              ... 12meoh.boyd.etal.mol3,4,11-orca.engrad-mp2.def2tzvp.frozencore

                    ********************************
                    * MULLIKEN POPULATION ANALYSIS *
                    ********************************

-----------------------
MULLIKEN ATOMIC CHARGES
-----------------------
   0 O :   -0.505024
   1 H :    0.320148
   2 C :   -0.186858
   3 H :    0.118653
   4 H :    0.101640
   5 H :    0.141271
   6 O :   -0.504157
   7 H :    0.323170
   8 C :   -0.184648
   9 H :    0.120191
  10 H :    0.104759
  11 H :    0.143243
  12 O :   -0.496976
  13 H :    0.322982
  14 C :   -0.173588
  15 H :    0.129314
  16 H :    0.112785
  17 H :    0.113095
Sum of atomic charges:    0.0000000

--------------------------------
MULLIKEN REDUCED ORBITAL CHARGES
--------------------------------
  0 O s       :     3.802049  s :     3.802049
      pz      :     1.374519  p :     4.640880
      px      :     1.719636
      py      :     1.546725
      dz2     :     0.014660  d :     0.057771
      dxz     :     0.009539
      dyz     :     0.013100
      dx2y2   :     0.008238
      dxy     :     0.012234
      f0      :     0.000769  f :     0.004325
      f+1     :     0.000742
      f-1     :     0.000570
      f+2     :     0.000466
      f-2     :     0.000646
      f+3     :     0.000699
      f-3     :     0.000432
  1 H s       :     0.634929  s :     0.634929
      pz      :     0.012171  p :     0.044922
      px      :     0.016884
      py      :     0.015867
  2 C s       :     3.219028  s :     3.219028
      pz      :     0.718367  p :     2.830436
      px      :     1.035272
      py      :     1.076797
      dz2     :     0.026899  d :     0.125715
      dxz     :     0.035150
      dyz     :     0.032076
      dx2y2   :     0.011898
      dxy     :     0.019693
      f0      :     0.002807  f :     0.011679
      f+1     :     0.002341
      f-1     :     0.002168
      f+2     :     0.001098
      f-2     :     0.001299
      f+3     :     0.001372
      f-3     :     0.000594
  3 H s       :     0.858311  s :     0.858311
      pz      :     0.004987  p :     0.023036
      px      :     0.007964
      py      :     0.010086
  4 H s       :     0.876173  s :     0.876173
      pz      :     0.007132  p :     0.022186
      px      :     0.010181
      py      :     0.004873
  5 H s       :     0.836252  s :     0.836252
      pz      :     0.003456  p :     0.022477
      px      :     0.007615
      py      :     0.011407
  6 O s       :     3.806312  s :     3.806312
      pz      :     1.282883  p :     4.636136
      px      :     1.595532
      py      :     1.757720
      dz2     :     0.014204  d :     0.057397
      dxz     :     0.013484
      dyz     :     0.008159
      dx2y2   :     0.009789
      dxy     :     0.011761
      f0      :     0.000784  f :     0.004312
      f+1     :     0.000727
      f-1     :     0.000528
      f+2     :     0.000498
      f-2     :     0.000657
      f+3     :     0.000537
      f-3     :     0.000582
  7 H s       :     0.632078  s :     0.632078
      pz      :     0.017667  p :     0.044752
      px      :     0.012420
      py      :     0.014666
  8 C s       :     3.217554  s :     3.217554
      pz      :     0.966492  p :     2.830405
      px      :     0.905586
      py      :     0.958326
      dz2     :     0.035540  d :     0.125040
      dxz     :     0.019015
      dyz     :     0.017578
      dx2y2   :     0.032513
      dxy     :     0.020394
      f0      :     0.001362  f :     0.011649
      f+1     :     0.002012
      f-1     :     0.001123
      f+2     :     0.001881
      f-2     :     0.001490
      f+3     :     0.001786
      f-3     :     0.001995
  9 H s       :     0.856740  s :     0.856740
      pz      :     0.013287  p :     0.023068
      px      :     0.005098
      py      :     0.004683
 10 H s       :     0.873067  s :     0.873067
      pz      :     0.005119  p :     0.022175
      px      :     0.004404
      py      :     0.012652
 11 H s       :     0.834200  s :     0.834200
      pz      :     0.004233  p :     0.022558
      px      :     0.012072
      py      :     0.006253
 12 O s       :     3.805778  s :     3.805778
      pz      :     1.493562  p :     4.629395
      px      :     1.647480
      py      :     1.488352
      dz2     :     0.011109  d :     0.057475
      dxz     :     0.014200
      dyz     :     0.009615
      dx2y2   :     0.011067
      dxy     :     0.011484
      f0      :     0.000619  f :     0.004329
      f+1     :     0.000712
      f-1     :     0.000591
      f+2     :     0.000688
      f-2     :     0.000669
      f+3     :     0.000628
      f-3     :     0.000422
 13 H s       :     0.631845  s :     0.631845
      pz      :     0.013991  p :     0.045173
      px      :     0.013529
      py      :     0.017653
 14 C s       :     3.212438  s :     3.212438
      pz      :     0.818306  p :     2.823087
      px      :     0.947858
      py      :     1.056923
      dz2     :     0.032942  d :     0.126350
      dxz     :     0.019860
      dyz     :     0.032106
      dx2y2   :     0.026748
      dxy     :     0.014695
      f0      :     0.002163  f :     0.011713
      f+1     :     0.001962
      f-1     :     0.001537
      f+2     :     0.002332
      f-2     :     0.001661
      f+3     :     0.001253
      f-3     :     0.000805
 15 H s       :     0.847564  s :     0.847564
      pz      :     0.005396  p :     0.023122
      px      :     0.005423
      py      :     0.012304
 16 H s       :     0.865062  s :     0.865062
      pz      :     0.004182  p :     0.022153
      px      :     0.013145
      py      :     0.004826
 17 H s       :     0.864623  s :     0.864623
      pz      :     0.009276  p :     0.022281
      px      :     0.004457
      py      :     0.008549


                     *******************************
                     * LOEWDIN POPULATION ANALYSIS *
                     *******************************

----------------------
LOEWDIN ATOMIC CHARGES
----------------------
   0 O :   -0.114101
   1 H :    0.189883
   2 C :   -0.385380
   3 H :    0.107153
   4 H :    0.092434
   5 H :    0.100907
   6 O :   -0.112678
   7 H :    0.192815
   8 C :   -0.382343
   9 H :    0.107638
  10 H :    0.095603
  11 H :    0.102325
  12 O :   -0.108131
  13 H :    0.191371
  14 C :   -0.381432
  15 H :    0.110111
  16 H :    0.097212
  17 H :    0.096614

-------------------------------
LOEWDIN REDUCED ORBITAL CHARGES
-------------------------------
  0 O s       :     3.395740  s :     3.395740
      pz      :     1.421855  p :     4.614409
      px      :     1.650359
      py      :     1.542194
      dz2     :     0.026476  d :     0.096803
      dxz     :     0.019924
      dyz     :     0.024905
      dx2y2   :     0.008470
      dxy     :     0.017028
      f0      :     0.001560  f :     0.007150
      f+1     :     0.001323
      f-1     :     0.001283
      f+2     :     0.000699
      f-2     :     0.000921
      f+3     :     0.000956
      f-3     :     0.000407
  1 H s       :     0.661995  s :     0.661995
      pz      :     0.031214  p :     0.148122
      px      :     0.050958
      py      :     0.065950
  2 C s       :     2.867567  s :     2.867567
      pz      :     0.847704  p :     3.024267
      px      :     1.076088
      py      :     1.100476
      dz2     :     0.119348  d :     0.432918
      dxz     :     0.129646
      dyz     :     0.093065
      dx2y2   :     0.024337
      dxy     :     0.066522
      f0      :     0.017254  f :     0.060628
      f+1     :     0.011518
      f-1     :     0.014473
      f+2     :     0.007532
      f-2     :     0.005043
      f+3     :     0.003601
      f-3     :     0.001207
  3 H s       :     0.828973  s :     0.828973
      pz      :     0.012628  p :     0.063874
      px      :     0.022166
      py      :     0.029079
  4 H s       :     0.843289  s :     0.843289
      pz      :     0.020246  p :     0.064278
      px      :     0.029873
      py      :     0.014158
  5 H s       :     0.832377  s :     0.832377
      pz      :     0.009796  p :     0.066716
      px      :     0.022514
      py      :     0.034406
  6 O s       :     3.396199  s :     3.396199
      pz      :     1.298365  p :     4.612992
      px      :     1.611447
      py      :     1.703180
      dz2     :     0.029211  d :     0.096398
      dxz     :     0.021006
      dyz     :     0.013029
      dx2y2   :     0.015638
      dxy     :     0.017515
      f0      :     0.001099  f :     0.007088
      f+1     :     0.001587
      f-1     :     0.000720
      f+2     :     0.000895
      f-2     :     0.001072
      f+3     :     0.000896
      f-3     :     0.000820
  7 H s       :     0.659989  s :     0.659989
      pz      :     0.070619  p :     0.147196
      px      :     0.039014
      py      :     0.037563
  8 C s       :     2.867464  s :     2.867464
      pz      :     1.015141  p :     3.023562
      px      :     0.984170
      py      :     1.024251
      dz2     :     0.106597  d :     0.430977
      dxz     :     0.067381
      dyz     :     0.050668
      dx2y2   :     0.119168
      dxy     :     0.087163
      f0      :     0.005861  f :     0.060340
      f+1     :     0.009974
      f-1     :     0.004797
      f+2     :     0.012070
      f-2     :     0.010642
      f+3     :     0.007352
      f-3     :     0.009644
  9 H s       :     0.828298  s :     0.828298
      pz      :     0.036631  p :     0.064065
      px      :     0.014612
      py      :     0.012821
 10 H s       :     0.840077  s :     0.840077
      pz      :     0.015166  p :     0.064320
      px      :     0.012376
      py      :     0.036778
 11 H s       :     0.831209  s :     0.831209
      pz      :     0.012612  p :     0.066466
      px      :     0.035656
      py      :     0.018198
 12 O s       :     3.393182  s :     3.393182
      pz      :     1.500430  p :     4.611131
      px      :     1.640609
      py      :     1.470092
      dz2     :     0.020190  d :     0.096692
      dxz     :     0.023350
      dyz     :     0.020610
      dx2y2   :     0.017166
      dxy     :     0.015376
      f0      :     0.001209  f :     0.007127
      f+1     :     0.001246
      f-1     :     0.000867
      f+2     :     0.001026
      f-2     :     0.001223
      f+3     :     0.001042
      f-3     :     0.000513
 13 H s       :     0.660103  s :     0.660103
      pz      :     0.036494  p :     0.148526
      px      :     0.043573
      py      :     0.068459
 14 C s       :     2.866864  s :     2.866864
      pz      :     0.918935  p :     3.019423
      px      :     1.018391
      py      :     1.082097
      dz2     :     0.114184  d :     0.434391
      dxz     :     0.086793
      dyz     :     0.104194
      dx2y2   :     0.091116
      dxy     :     0.038105
      f0      :     0.013526  f :     0.060754
      f+1     :     0.012968
      f-1     :     0.006426
      f+2     :     0.009629
      f-2     :     0.009811
      f+3     :     0.004913
      f-3     :     0.003482
 15 H s       :     0.825688  s :     0.825688
      pz      :     0.014059  p :     0.064201
      px      :     0.015460
      py      :     0.034682
 16 H s       :     0.838231  s :     0.838231
      pz      :     0.011898  p :     0.064558
      px      :     0.038465
      py      :     0.014195
 17 H s       :     0.838803  s :     0.838803
      pz      :     0.026728  p :     0.064583
      px      :     0.012551
      py      :     0.025304


                      *****************************
                      * MAYER POPULATION ANALYSIS *
                      *****************************

  NA   - Mulliken gross atomic population
  ZA   - Total nuclear charge
  QA   - Mulliken gross atomic charge
  VA   - Mayer's total valence
  BVA  - Mayer's bonded valence
  FA   - Mayer's free valence

  ATOM       NA         ZA         QA         VA         BVA        FA
  0 O      8.5050     8.0000    -0.5050     2.1391     1.7401     0.3990
  1 H      0.6799     1.0000     0.3201     0.9084     0.8551     0.0533
  2 C      6.1869     6.0000    -0.1869     4.0021     3.7256     0.2765
  3 H      0.8813     1.0000     0.1187     0.9633     0.9162     0.0470
  4 H      0.8984     1.0000     0.1016     0.9638     0.9147     0.0490
  5 H      0.8587     1.0000     0.1413     0.9735     0.9259     0.0476
  6 O      8.5042     8.0000    -0.5042     2.1414     1.7409     0.4005
  7 H      0.6768     1.0000     0.3232     0.9062     0.8529     0.0533
  8 C      6.1846     6.0000    -0.1846     3.9899     3.7134     0.2764
  9 H      0.8798     1.0000     0.1202     0.9637     0.9168     0.0469
 10 H      0.8952     1.0000     0.1048     0.9641     0.9152     0.0489
 11 H      0.8568     1.0000     0.1432     0.9816     0.9341     0.0474
 12 O      8.4970     8.0000    -0.4970     2.1501     1.7512     0.3989
 13 H      0.6770     1.0000     0.3230     0.9068     0.8540     0.0528
 14 C      6.1736     6.0000    -0.1736     4.0167     3.7406     0.2761
 15 H      0.8707     1.0000     0.1293     0.9634     0.9170     0.0464
 16 H      0.8872     1.0000     0.1128     0.9647     0.9163     0.0484
 17 H      0.8869     1.0000     0.1131     0.9635     0.9152     0.0484

  Mayer bond orders larger than 0.100000
B(  0-O ,  1-H ) :   0.8439 B(  0-O ,  2-C ) :   0.9159 B(  2-C ,  3-H ) :   0.9382 
B(  2-C ,  4-H ) :   0.9404 B(  2-C ,  5-H ) :   0.9303 B(  6-O ,  7-H ) :   0.8392 
B(  6-O ,  8-C ) :   0.9026 B(  8-C ,  9-H ) :   0.9375 B(  8-C , 10-H ) :   0.9347 
B(  8-C , 11-H ) :   0.9345 B( 12-O , 13-H ) :   0.8394 B( 12-O , 14-C ) :   0.9169 
B( 14-C , 15-H ) :   0.9391 B( 14-C , 16-H ) :   0.9353 B( 14-C , 17-H ) :   0.9385 



----------------------------------
MP2 DERIVATIVE INTEGRAL GENERATION
----------------------------------


Input Wavefunction Amplitudes       ... 12meoh.boyd.etal.mol3,4,11-orca.engrad-mp2.def2tzvp.frozencore.mp2tsaa.tmp
Input Correlated Electron Density   ... 12meoh.boyd.etal.mol3,4,11-orca.engrad-mp2.def2tzvp.frozencore.pmp2re
Input Energy Weighted Density       ... 12meoh.boyd.etal.mol3,4,11-orca.engrad-mp2.def2tzvp.frozencore.wmp2.tmp
Input SCF Electron Density          ... 12meoh.boyd.etal.mol3,4,11-orca.engrad-mp2.def2tzvp.frozencore.scfp

One-Electron Terms    ...
                        ... One-Electron Terms done
Prescreening matrices              ... done

Batch handling in the gradient evaluation:
Memory available                      ... 8000.0 MB
Memory per occupied orbital in Q2     ...   10.7 MB
Memory per occupied orbital in Q3     ...    0.1 MB
Total memory requirement per |i>      ...   10.8 MB
Max. Number of orbitals possible      ...    743
Number of orbitals treated per batch  ...     21
Number of batches to be done          ...      1
Batch   0: i=    6 ...    26

---------------------------------------
MP2 TOTAL ENERGY:     -346.524405999 Eh
---------------------------------------

The final MP2 gradient
  0:   0.01311090  -0.02019143   0.00997425
  1:  -0.01549821   0.02164060  -0.01080278
  2:   0.00108997  -0.00321253  -0.00414938
  3:   0.00235744  -0.00232436   0.00331711
  4:  -0.00299241   0.00033021   0.00100664
  5:   0.00134347   0.00333801   0.00081246
  6:  -0.00594549  -0.00044544   0.02618992
  7:   0.00732215  -0.00053128  -0.03001154
  8:  -0.00534532  -0.00111741   0.00168679
  9:   0.00055115   0.00116573   0.00427075
 10:   0.00107570   0.00346337  -0.00176330
 11:   0.00233526  -0.00189909  -0.00062845
 12:  -0.00900312   0.01945907   0.01061877
 13:   0.00944467  -0.02336752  -0.01231106
 14:  -0.00263837   0.00345268  -0.00232654
 15:  -0.00016318   0.00329444   0.00290810
 16:   0.00361204  -0.00031515  -0.00065635
 17:  -0.00065664  -0.00273990   0.00186460

-----------------------------------
NORM OF THE MP2 GRADIENT:  0.068999
-----------------------------------

-------------------------   --------------------
FINAL SINGLE POINT ENERGY      -346.524405999257
-------------------------   --------------------


                            ***************************************
                            *     ORCA property calculations      *
                            ***************************************

                                    ---------------------
                                    Active property flags
                                    ---------------------
   (+) Dipole Moment


------------------------------------------------------------------------------
                       ORCA ELECTRIC PROPERTIES CALCULATION
------------------------------------------------------------------------------

Dipole Moment Calculation                       ... on
Quadrupole Moment Calculation                   ... off
Polarizability Calculation                      ... off
GBWName                                         ... 12meoh.boyd.etal.mol3,4,11-orca.engrad-mp2.def2tzvp.frozencore.gbw
Electron density file                           ... 12meoh.boyd.etal.mol3,4,11-orca.engrad-mp2.def2tzvp.frozencore.scfp
The origin for moment calculation is the CENTER OF MASS  = (-0.547171,  0.243563  3.267905)

-------------
DIPOLE MOMENT
-------------
                                X             Y             Z
Electronic contribution:     -2.51601      -1.67020      -3.83653
Nuclear contribution   :      3.71769       2.28139       4.16809
                        -----------------------------------------
Total Dipole Moment    :      1.20168       0.61119       0.33156
                        -----------------------------------------
Magnitude (a.u.)       :      1.38835
Magnitude (Debye)      :      3.52889



--------------------
Rotational spectrum 
--------------------
 
Rotational constants in cm-1:     0.106195     0.016002     0.014662 
Rotational constants in MHz :  3183.658192   479.721216   439.553826 

 Dipole components along the rotational axes: 
x,y,z [a.u.] :     1.375478    -0.149026     0.115562 
x,y,z [Debye]:     3.496187    -0.378793     0.293736 

 

                         *** MP2 UNRELAXED DENSITY ***

------------------------------------------------------------------------------
                       ORCA ELECTRIC PROPERTIES CALCULATION
------------------------------------------------------------------------------

Dipole Moment Calculation                       ... on
Quadrupole Moment Calculation                   ... off
Polarizability Calculation                      ... off
GBWName                                         ... 12meoh.boyd.etal.mol3,4,11-orca.engrad-mp2.def2tzvp.frozencore.gbw
Electron density file                           ... 12meoh.boyd.etal.mol3,4,11-orca.engrad-mp2.def2tzvp.frozencore.pmp2ur
The origin for moment calculation is the CENTER OF MASS  = (-0.547171,  0.243563  3.267905)

-------------
DIPOLE MOMENT
-------------
                                X             Y             Z
Electronic contribution:     -2.53876      -1.68368      -3.85286
Nuclear contribution   :      3.71769       2.28139       4.16809
                        -----------------------------------------
Total Dipole Moment    :      1.17893       0.59771       0.31523
                        -----------------------------------------
Magnitude (a.u.)       :      1.35886
Magnitude (Debye)      :      3.45395



--------------------
Rotational spectrum 
--------------------
 
Rotational constants in cm-1:     0.106195     0.016002     0.014662 
Rotational constants in MHz :  3183.658192   479.721216   439.553826 

 Dipole components along the rotational axes: 
x,y,z [a.u.] :     1.347087    -0.145448     0.103454 
x,y,z [Debye]:     3.424023    -0.369699     0.262958 

 

                           *** MP2 RELAXED DENSITY ***

------------------------------------------------------------------------------
                       ORCA ELECTRIC PROPERTIES CALCULATION
------------------------------------------------------------------------------

Dipole Moment Calculation                       ... on
Quadrupole Moment Calculation                   ... off
Polarizability Calculation                      ... off
GBWName                                         ... 12meoh.boyd.etal.mol3,4,11-orca.engrad-mp2.def2tzvp.frozencore.gbw
Electron density file                           ... 12meoh.boyd.etal.mol3,4,11-orca.engrad-mp2.def2tzvp.frozencore.pmp2re
The origin for moment calculation is the CENTER OF MASS  = (-0.547171,  0.243563  3.267905)

-------------
DIPOLE MOMENT
-------------
                                X             Y             Z
Electronic contribution:     -2.57269      -1.70377      -3.88598
Nuclear contribution   :      3.71769       2.28139       4.16809
                        -----------------------------------------
Total Dipole Moment    :      1.14500       0.57762       0.28211
                        -----------------------------------------
Magnitude (a.u.)       :      1.31311
Magnitude (Debye)      :      3.33765



--------------------
Rotational spectrum 
--------------------
 
Rotational constants in cm-1:     0.106195     0.016002     0.014662 
Rotational constants in MHz :  3183.658192   479.721216   439.553826 

 Dipole components along the rotational axes: 
x,y,z [a.u.] :     1.303250    -0.141036     0.076787 
x,y,z [Debye]:     3.312598    -0.358486     0.195176 

 

Timings for individual modules:

Sum of individual times         ...       60.072 sec (=   1.001 min)
GTO integral calculation        ...        1.373 sec (=   0.023 min)   2.3 %
SCF iterations                  ...       12.909 sec (=   0.215 min)  21.5 %
MP2 module                      ...       45.791 sec (=   0.763 min)  76.2 %
                             ****ORCA TERMINATED NORMALLY****
TOTAL RUN TIME: 0 days 0 hours 1 minutes 1 seconds 86 msec
