
                                 *****************
                                 * O   R   C   A *
                                 *****************

           --- An Ab Initio, DFT and Semiempirical electronic structure package ---

                  #######################################################
                  #                        -***-                        #
                  #          Department of theory and spectroscopy      #
                  #               Directorship: Frank Neese             #
                  #        Max Planck Institute fuer Kohlenforschung    #
                  #                Kaiser Wilhelm Platz 1               #
                  #                 D-45470 Muelheim/Ruhr               #
                  #                      Germany                        #
                  #                                                     #
                  #                  All rights reserved                #
                  #                        -***-                        #
                  #######################################################


                         Program Version 4.2.0 -  RELEASE  -


 With contributions from (in alphabetic order):
   Daniel Aravena         : Magnetic Suceptibility
   Michael Atanasov       : Ab Initio Ligand Field Theory (pilot matlab implementation)
   Alexander A. Auer      : GIAO ZORA, VPT2
   Ute Becker             : Parallelization
   Giovanni Bistoni       : ED, misc. LED, open-shell LED, HFLED
   Martin Brehm           : Molecular dynamics
   Dmytro Bykov           : SCF Hessian
   Vijay G. Chilkuri      : MRCI spin determinant printing, contributions to CSF-ICE
   Dipayan Datta          : RHF DLPNO-CCSD density
   Achintya Kumar Dutta   : EOM-CC, STEOM-CC
   Dmitry Ganyushin       : Spin-Orbit,Spin-Spin,Magnetic field MRCI
   Miquel Garcia          : C-PCM Hessian, Gaussian charge scheme
   Yang Guo               : DLPNO-NEVPT2, CIM, IAO-localization
   Andreas Hansen         : Spin unrestricted coupled pair/coupled cluster methods
   Benjamin Helmich-Paris : CASSCF linear response (MC-RPA)
   Lee Huntington         : MR-EOM, pCC
   Robert Izsak           : Overlap fitted RIJCOSX, COSX-SCS-MP3, EOM
   Christian Kollmar      : KDIIS, OOCD, Brueckner-CCSD(T), CCSD density
   Simone Kossmann        : Meta GGA functionals, TD-DFT gradient, OOMP2, MP2 Hessian
   Martin Krupicka        : AUTO-CI
   Lucas Lang             : DCDCAS
   Dagmar Lenk            : GEPOL surface, SMD
   Dimitrios Liakos       : Extrapolation schemes; Compound Job, initial MDCI parallelization
   Dimitrios Manganas     : Further ROCIS development; embedding schemes
   Dimitrios Pantazis     : SARC Basis sets
   Taras Petrenko         : DFT Hessian,TD-DFT gradient, ASA, ECA, R-Raman, ABS, FL, XAS/XES, NRVS
   Peter Pinski           : DLPNO-MP2, DLPNO-MP2 Gradient
   Christoph Reimann      : Effective Core Potentials
   Marius Retegan         : Local ZFS, SOC
   Christoph Riplinger    : Optimizer, TS searches, QM/MM, DLPNO-CCSD(T), (RO)-DLPNO pert. Triples
   Tobias Risthaus        : Range-separated hybrids, TD-DFT gradient, RPA, STAB
   Michael Roemelt        : Original ROCIS implementation
   Masaaki Saitow         : Open-shell DLPNO-CCSD energy and density
   Barbara Sandhoefer     : DKH picture change effects
   Avijit Sen             : IP-ROCIS
   Kantharuban Sivalingam : CASSCF convergence, NEVPT2, FIC-MRCI
   Bernardo de Souza      : ESD, SOC TD-DFT
   Georgi Stoychev        : AutoAux, RI-MP2 NMR
   Willem Van den Heuvel  : Paramagnetic NMR
   Boris Wezisla          : Elementary symmetry handling
   Frank Wennmohs         : Technical directorship


 We gratefully acknowledge several colleagues who have allowed us to
 interface, adapt or use parts of their codes:
   Stefan Grimme, W. Hujo, H. Kruse,             : VdW corrections, initial TS optimization,
                  C. Bannwarth                     DFT functionals, gCP, sTDA/sTD-DF
   Ed Valeev, F. Pavosevic, A. Kumar             : LibInt (2-el integral package), F12 methods
   Garnet Chan, S. Sharma, J. Yang, R. Olivares  : DMRG
   Ulf Ekstrom                                   : XCFun DFT Library
   Mihaly Kallay                                 : mrcc  (arbitrary order and MRCC methods)
   Andreas Klamt, Michael Diedenhofen            : otool_cosmo (COSMO solvation model)
   Jiri Pittner, Ondrej Demel                    : Mk-CCSD
   Frank Weinhold                                : gennbo (NPA and NBO analysis)
   Christopher J. Cramer and Donald G. Truhlar   : smd solvation model
   Lars Goerigk                                  : TD-DFT with DH, B97 family of functionals
   V. Asgeirsson, H. Jonsson                     : NEB implementation
   FAccTs GmbH                                   : IRC, NEB, NEB-TS, Multilevel, MM, QM/MM, CI optimization
   S Lehtola, MJT Oliveira, MAL Marques          : LibXC Library


 Your calculation uses the libint2 library for the computation of 2-el integrals
 For citations please refer to: http://libint.valeyev.net

 Your ORCA version has been built with support for libXC version: 4.2.3
 For citations please refer to: https://tddft.org/programs/libxc/

 This ORCA versions uses:
   CBLAS   interface :  Fast vector & matrix operations
   LAPACKE interface :  Fast linear algebra routines
   SCALAPACK package :  Parallel linear algebra routines


----- Orbital basis set information -----
Your calculation utilizes the basis: def2-TZVP
   F. Weigend and R. Ahlrichs, Phys. Chem. Chem. Phys. 7, 3297 (2005).

================================================================================
                                        WARNINGS
                       Please study these warnings very carefully!
================================================================================


WARNING: The frozen-core approximation for MP2-gradient calculations is turned on by default.

INFO   : the flag for use of LIBINT has been found!

================================================================================
                                       INPUT FILE
================================================================================
NAME = 12meoh.boyd.etal.mol3,7,11-orca.engrad-mp2.def2tzvp.frozencore.inp
|  1> # 12meoh.boyd.etal.mol3,7,11
|  2> ! MP2 def2-TZVP EnGrad TightSCF
|  3> 
|  4> %pal
|  5>     nprocs 6
|  6> end
|  7> 
|  8> %maxcore 8000
|  9> 
| 10> %scf
| 11>     ConvForced true
| 12> end
| 13> 
| 14> *xyz 0 1
| 15> O  -3.821405976  -2.118091637   0.596795346
| 16> H  -4.342989117  -1.344303030   0.251966383
| 17> C  -3.443883586  -1.809641231   1.934889393
| 18> H  -2.831494349  -2.637429600   2.305201764
| 19> H  -4.325601146  -1.719364371   2.585074667
| 20> H  -2.858527126  -0.882644791   1.996110694
| 21> O   4.310535586  -1.588322800   0.656128299
| 22> H   3.804372199  -1.630404735  -0.196849819
| 23> C   4.312298137  -2.894980854   1.222112691
| 24> H   4.713177833  -2.819907076   2.237066773
| 25> H   4.957796734  -3.574699304   0.648211180
| 26> H   3.302735989  -3.324433205   1.269756773
| 27> O   3.252955559   0.588596242   1.858934315
| 28> H   3.621209177  -0.251605199   1.476063364
| 29> C   4.040824528   0.944288422   2.989639460
| 30> H   3.670521436   1.902573549   3.363847391
| 31> H   5.103749934   1.055868619   2.734277559
| 32> H   3.948540682   0.200279590   3.792908518
| 33> *
| 34> 
| 35>                          ****END OF INPUT****
================================================================================

                     *******************************
                     * Energy+Gradient Calculation *
                     *******************************

---------------------------------
CARTESIAN COORDINATES (ANGSTROEM)
---------------------------------
  O     -3.821406   -2.118092    0.596795
  H     -4.342989   -1.344303    0.251966
  C     -3.443884   -1.809641    1.934889
  H     -2.831494   -2.637430    2.305202
  H     -4.325601   -1.719364    2.585075
  H     -2.858527   -0.882645    1.996111
  O      4.310536   -1.588323    0.656128
  H      3.804372   -1.630405   -0.196850
  C      4.312298   -2.894981    1.222113
  H      4.713178   -2.819907    2.237067
  H      4.957797   -3.574699    0.648211
  H      3.302736   -3.324433    1.269757
  O      3.252956    0.588596    1.858934
  H      3.621209   -0.251605    1.476063
  C      4.040825    0.944288    2.989639
  H      3.670521    1.902574    3.363847
  H      5.103750    1.055869    2.734278
  H      3.948541    0.200280    3.792909

----------------------------
CARTESIAN COORDINATES (A.U.)
----------------------------
  NO LB      ZA    FRAG     MASS         X           Y           Z
   0 O     8.0000    0    15.999   -7.221411   -4.002613    1.127780
   1 H     1.0000    0     1.008   -8.207060   -2.540365    0.476147
   2 C     6.0000    0    12.011   -6.507997   -3.419726    3.656411
   3 H     1.0000    0     1.008   -5.350749   -4.984020    4.356200
   4 H     1.0000    0     1.008   -8.174202   -3.249128    4.885083
   5 H     1.0000    0     1.008   -5.401833   -1.667957    3.772103
   6 O     8.0000    0    15.999    8.145732   -3.001495    1.239903
   7 H     1.0000    0     1.008    7.189222   -3.081018   -0.371992
   8 C     6.0000    0    12.011    8.149062   -5.470721    2.309458
   9 H     1.0000    0     1.008    8.906615   -5.328852    4.227444
  10 H     1.0000    0     1.008    9.368878   -6.755203    1.224942
  11 H     1.0000    0     1.008    6.241267   -6.282268    2.399493
  12 O     8.0000    0    15.999    6.147195    1.112286    3.512877
  13 H     1.0000    0     1.008    6.843094   -0.475465    2.789356
  14 C     6.0000    0    12.011    7.636052    1.784447    5.649600
  15 H     1.0000    0     1.008    6.936280    3.595343    6.356750
  16 H     1.0000    0     1.008    9.644690    1.995303    5.167036
  17 H     1.0000    0     1.008    7.461661    0.378474    7.167558

--------------------------------
INTERNAL COORDINATES (ANGSTROEM)
--------------------------------
 O      0   0   0     0.000000000000     0.00000000     0.00000000
 H      1   0   0     0.994839079963     0.00000000     0.00000000
 C      1   2   0     1.424134995894   107.22932759     0.00000000
 H      3   1   2     1.094251074279   107.60656698   182.49646734
 H      3   1   2     1.099234578054   111.15598505    64.29876054
 H      3   1   2     1.098049467343   112.12012929   302.03562973
 O      6   3   1     7.327277423428   115.47232508   276.54063268
 H      7   6   3     0.992745653921    70.26675881    75.67306737
 C      7   6   3     1.423972158666    90.96820578   327.24303385
 H      9   7   6     1.093833804276   107.83521386   259.27641307
 H      9   7   6     1.099112621312   111.14100782   140.88554022
 H      9   7   6     1.098141617007   112.02184717    19.06000116
 O      7   6   3     2.702627303395    57.19171524   196.04157749
 H     13   7   6     0.994051987447     4.28920238    65.55321457
 C     13   7   6     1.423287941407   109.76996429   134.61590885
 H     15  13   7     1.093373833690   107.66487715   172.09890583
 H     15  13   7     1.098849516342   112.09953284    52.77953455
 H     15  13   7     1.098775058812   111.41155745   290.76907666

---------------------------
INTERNAL COORDINATES (A.U.)
---------------------------
 O      0   0   0     0.000000000000     0.00000000     0.00000000
 H      1   0   0     1.879973408453     0.00000000     0.00000000
 C      1   2   0     2.691225119973   107.22932759     0.00000000
 H      3   1   2     2.067834852136   107.60656698   182.49646734
 H      3   1   2     2.077252309459   111.15598505    64.29876054
 H      3   1   2     2.075012774777   112.12012929   302.03562973
 O      6   3   1    13.846547637544   115.47232508   276.54063268
 H      7   6   3     1.876017406552    70.26675881    75.67306737
 C      7   6   3     2.690917402208    90.96820578   327.24303385
 H      9   7   6     2.067046326107   107.83521386   259.27641307
 H      9   7   6     2.077021844616   111.14100782   140.88554022
 H      9   7   6     2.075186912405   112.02184717    19.06000116
 O      7   6   3     5.107225445475    57.19171524   196.04157749
 H     13   7   6     1.878486019156     4.28920238    65.55321457
 C     13   7   6     2.689624418973   109.76996429   134.61590885
 H     15  13   7     2.066177107669   107.66487715   172.09890583
 H     15  13   7     2.076524648278   112.09953284    52.77953455
 H     15  13   7     2.076383943937   111.41155745   290.76907666

---------------------
BASIS SET INFORMATION
---------------------
There are 3 groups of distinct atoms

 Group   1 Type O   : 11s6p2d1f contracted to 5s3p2d1f pattern {62111/411/11/1}
 Group   2 Type H   : 5s1p contracted to 3s1p pattern {311/1}
 Group   3 Type C   : 11s6p2d1f contracted to 5s3p2d1f pattern {62111/411/11/1}

Atom   0O    basis set group =>   1
Atom   1H    basis set group =>   2
Atom   2C    basis set group =>   3
Atom   3H    basis set group =>   2
Atom   4H    basis set group =>   2
Atom   5H    basis set group =>   2
Atom   6O    basis set group =>   1
Atom   7H    basis set group =>   2
Atom   8C    basis set group =>   3
Atom   9H    basis set group =>   2
Atom  10H    basis set group =>   2
Atom  11H    basis set group =>   2
Atom  12O    basis set group =>   1
Atom  13H    basis set group =>   2
Atom  14C    basis set group =>   3
Atom  15H    basis set group =>   2
Atom  16H    basis set group =>   2
Atom  17H    basis set group =>   2


           ************************************************************
           *        Program running with 6 parallel MPI-processes     *
           *              working on a common directory               *
           ************************************************************
------------------------------------------------------------------------------
                           ORCA GTO INTEGRAL CALCULATION
------------------------------------------------------------------------------

                         BASIS SET STATISTICS AND STARTUP INFO

 # of primitive gaussian shells          ...  192
 # of primitive gaussian functions       ...  372
 # of contracted shells                  ...  114
 # of contracted basis functions         ...  258
 Highest angular momentum                ...    3
 Maximum contraction depth               ...    6
 Integral package used                   ... LIBINT
 Integral threshhold            Thresh   ...  2.500e-11
 Primitive cut-off              TCut     ...  2.500e-12


------------------------------ INTEGRAL EVALUATION ----------------------------


 * One electron integrals 
 Pre-screening matrix                    ... done
 Shell pair data                         ... done (   0.001 sec)



           ************************************************************
           *        Program running with 6 parallel MPI-processes     *
           *              working on a common directory               *
           ************************************************************
-------------------------------------------------------------------------------
                                 ORCA SCF
-------------------------------------------------------------------------------

------------
SCF SETTINGS
------------
Hamiltonian:
 Ab initio Hamiltonian  Method          .... Hartree-Fock(GTOs)


General Settings:
 Integral files         IntName         .... 12meoh.boyd.etal.mol3,7,11-orca.engrad-mp2.def2tzvp.frozencore
 Hartree-Fock type      HFTyp           .... RHF
 Total Charge           Charge          ....    0
 Multiplicity           Mult            ....    1
 Number of Electrons    NEL             ....   54
 Basis Dimension        Dim             ....  258
 Nuclear Repulsion      ENuc            ....    213.0391324240 Eh

Convergence Acceleration:
 DIIS                   CNVDIIS         .... on
   Start iteration      DIISMaxIt       ....    12
   Startup error        DIISStart       ....  0.200000
   # of expansion vecs  DIISMaxEq       ....     5
   Bias factor          DIISBfac        ....   1.050
   Max. coefficient     DIISMaxC        ....  10.000
 Newton-Raphson         CNVNR           .... off
 SOSCF                  CNVSOSCF        .... on
   Start iteration      SOSCFMaxIt      ....   150
   Startup grad/error   SOSCFStart      ....  0.003300
 Level Shifting         CNVShift        .... on
   Level shift para.    LevelShift      ....    0.2500
   Turn off err/grad.   ShiftErr        ....    0.0010
 Zerner damping         CNVZerner       .... off
 Static damping         CNVDamp         .... on
   Fraction old density DampFac         ....    0.7000
   Max. Damping (<1)    DampMax         ....    0.9800
   Min. Damping (>=0)   DampMin         ....    0.0000
   Turn off err/grad.   DampErr         ....    0.1000
 Fernandez-Rico         CNVRico         .... off

SCF Procedure:
 Maximum # iterations   MaxIter         ....   125
 SCF integral mode      SCFMode         .... Direct
   Integral package                     .... LIBINT
 Reset frequency        DirectResetFreq ....    20
 Integral Threshold     Thresh          ....  2.500e-11 Eh
 Primitive CutOff       TCut            ....  2.500e-12 Eh

Convergence Tolerance:
 Convergence Check Mode ConvCheckMode   .... Total+1el-Energy
 Convergence forced     ConvForced      .... 1
 Energy Change          TolE            ....  1.000e-08 Eh
 1-El. energy change                    ....  1.000e-05 Eh
 Orbital Gradient       TolG            ....  1.000e-05
 Orbital Rotation angle TolX            ....  1.000e-05
 DIIS Error             TolErr          ....  5.000e-07


Diagonalization of the overlap matrix:
Smallest eigenvalue                        ... 1.553e-03
Time for diagonalization                   ...    0.010 sec
Threshold for overlap eigenvalues          ... 1.000e-08
Number of eigenvalues below threshold      ... 0
Time for construction of square roots      ...    0.005 sec
Total time needed                          ...    0.015 sec

-------------------
DFT GRID GENERATION
-------------------

General Integration Accuracy     IntAcc      ...  4.340
Radial Grid Type                 RadialGrid  ... Gauss-Chebyshev
Angular Grid (max. acc.)         AngularGrid ... Lebedev-110
Angular grid pruning method      GridPruning ... 3 (G Style)
Weight generation scheme         WeightScheme... Becke
Basis function cutoff            BFCut       ...    1.0000e-11
Integration weight cutoff        WCut        ...    1.0000e-14
Grids for H and He will be reduced by one unit

# of grid points (after initial pruning)     ...  19644 (   0.0 sec)
# of grid points (after weights+screening)   ...  18707 (   0.0 sec)
nearest neighbour list constructed           ...    0.0 sec
Grid point re-assignment to atoms done       ...    0.0 sec
Grid point division into batches done        ...    0.0 sec
Reduced shell lists constructed in    0.0 sec

Total number of grid points                  ...    18707
Total number of batches                      ...      299
Average number of points per batch           ...       62
Average number of grid points per atom       ...     1039
Average number of shells per batch           ...    40.96 (35.93%)
Average number of basis functions per batch  ...    88.61 (34.34%)
Average number of large shells per batch     ...    30.88 (75.39%)
Average number of large basis fcns per batch ...    72.80 (82.16%)
Maximum spatial batch extension              ...  18.46, 23.86, 14.87 au
Average spatial batch extension              ...   0.62,  0.69,  0.57 au

Time for grid setup =    0.055 sec

------------------------------
INITIAL GUESS: MODEL POTENTIAL
------------------------------
Loading Hartree-Fock densities                     ... done
Calculating cut-offs                               ... done
Setting up the integral package                    ... done
Initializing the effective Hamiltonian             ... done
Starting the Coulomb interaction                   ... done (   0.0 sec)
Reading the grid                                   ... done
Mapping shells                                     ... done
Starting the XC term evaluation                    ... done (   0.0 sec)
Transforming the Hamiltonian                       ... done (   0.0 sec)
Diagonalizing the Hamiltonian                      ... done (   0.0 sec)
Back transforming the eigenvectors                 ... done (   0.0 sec)
Now organizing SCF variables                       ... done
                      ------------------
                      INITIAL GUESS DONE (   0.2 sec)
                      ------------------
--------------
SCF ITERATIONS
--------------
ITER       Energy         Delta-E        Max-DP      RMS-DP      [F,P]     Damp
               ***  Starting incremental Fock matrix formation  ***
  0   -344.9256502492   0.000000000000 0.03632022  0.00076318  0.2921676 0.7000
  1   -345.0507524303  -0.125102181167 0.02480335  0.00056947  0.2185909 0.7000
                               ***Turning on DIIS***
  2   -345.1236756704  -0.072923240088 0.01445760  0.00035538  0.1628174 0.7000
  3   -345.9914805894  -0.867804918944 0.00757174  0.00020171  0.1199755 0.7000
  4   -345.8444765149   0.147004074474 0.01621647  0.00048381  0.0845954 0.0000
  5   -345.3013374844   0.543139030500 0.00189247  0.00006467  0.0058096 0.0000
                      *** Initiating the SOSCF procedure ***
                           *** Shutting down DIIS ***
                      *** Re-Reading the Fockian *** 
                      *** Removing any level shift *** 
ITER      Energy       Delta-E        Grad      Rot      Max-DP    RMS-DP
  6   -345.27844959   0.0228878986  0.000819  0.000819  0.000848  0.000033
               *** Restarting incremental Fock matrix formation ***
  7   -345.27291896   0.0055306307  0.000386  0.000396  0.000478  0.000018
  8   -345.27292614  -0.0000071807  0.000213  0.000288  0.000344  0.000013
  9   -345.27292788  -0.0000017465  0.000036  0.000031  0.000062  0.000002
 10   -345.27292794  -0.0000000582  0.000006  0.000012  0.000020  0.000001
 11   -345.27292795  -0.0000000047  0.000003  0.000005  0.000005  0.000000
                  ***Gradient check signals convergence***
              ***Rediagonalizing the Fockian in SOSCF/NRSCF***

               *****************************************************
               *                     SUCCESS                       *
               *           SCF CONVERGED AFTER  12 CYCLES          *
               *****************************************************


----------------
TOTAL SCF ENERGY
----------------

Total Energy       :         -345.27292795 Eh           -9395.35402 eV

Components:
Nuclear Repulsion  :          213.03913242 Eh            5797.08951 eV
Electronic Energy  :         -558.31206037 Eh          -15192.44353 eV
One Electron Energy:         -895.07247247 Eh          -24356.16022 eV
Two Electron Energy:          336.76041210 Eh            9163.71669 eV

Virial components:
Potential Energy   :         -689.94893890 Eh          -18774.46510 eV
Kinetic Energy     :          344.67601095 Eh            9379.11108 eV
Virial Ratio       :            2.00173182


---------------
SCF CONVERGENCE
---------------

  Last Energy change         ...   -7.1009e-10  Tolerance :   1.0000e-08
  Last MAX-Density change    ...    1.5311e-06  Tolerance :   1.0000e-07
  Last RMS-Density change    ...    4.3371e-08  Tolerance :   5.0000e-09
  Last Orbital Gradient      ...    1.6136e-06  Tolerance :   1.0000e-05
  Last Orbital Rotation      ...    9.5248e-07  Tolerance :   1.0000e-05

             **** THE GBW FILE WAS UPDATED (12meoh.boyd.etal.mol3,7,11-orca.engrad-mp2.def2tzvp.frozencore.gbw) ****
             **** DENSITY FILE WAS UPDATED (12meoh.boyd.etal.mol3,7,11-orca.engrad-mp2.def2tzvp.frozencore.scfp) ****
             **** ENERGY FILE WAS UPDATED (12meoh.boyd.etal.mol3,7,11-orca.engrad-mp2.def2tzvp.frozencore.en.tmp) ****
             **** THE GBW FILE WAS UPDATED (12meoh.boyd.etal.mol3,7,11-orca.engrad-mp2.def2tzvp.frozencore.gbw) ****
             **** DENSITY FILE WAS UPDATED (12meoh.boyd.etal.mol3,7,11-orca.engrad-mp2.def2tzvp.frozencore.scfp) ****
----------------
ORBITAL ENERGIES
----------------

  NO   OCC          E(Eh)            E(eV) 
   0   2.0000     -20.589246      -560.2619 
   1   2.0000     -20.556435      -559.3690 
   2   2.0000     -20.514477      -558.2273 
   3   2.0000     -11.291256      -307.2507 
   4   2.0000     -11.269867      -306.6687 
   5   2.0000     -11.249380      -306.1112 
   6   2.0000      -1.382800       -37.6279 
   7   2.0000      -1.345500       -36.6129 
   8   2.0000      -1.311147       -35.6781 
   9   2.0000      -0.943124       -25.6637 
  10   2.0000      -0.917482       -24.9659 
  11   2.0000      -0.895774       -24.3753 
  12   2.0000      -0.713778       -19.4229 
  13   2.0000      -0.679760       -18.4972 
  14   2.0000      -0.673906       -18.3379 
  15   2.0000      -0.635627       -17.2963 
  16   2.0000      -0.615853       -16.7582 
  17   2.0000      -0.610325       -16.6078 
  18   2.0000      -0.590810       -16.0768 
  19   2.0000      -0.588721       -16.0199 
  20   2.0000      -0.562178       -15.2976 
  21   2.0000      -0.529281       -14.4025 
  22   2.0000      -0.499299       -13.5866 
  23   2.0000      -0.487105       -13.2548 
  24   2.0000      -0.457406       -12.4466 
  25   2.0000      -0.448024       -12.1913 
  26   2.0000      -0.417270       -11.3545 
  27   0.0000       0.120106         3.2683 
  28   0.0000       0.136741         3.7209 
  29   0.0000       0.156278         4.2525 
  30   0.0000       0.173336         4.7167 
  31   0.0000       0.178041         4.8447 
  32   0.0000       0.215773         5.8715 
  33   0.0000       0.220086         5.9888 
  34   0.0000       0.230729         6.2785 
  35   0.0000       0.231197         6.2912 
  36   0.0000       0.233248         6.3470 
  37   0.0000       0.243757         6.6330 
  38   0.0000       0.245105         6.6697 
  39   0.0000       0.251561         6.8453 
  40   0.0000       0.256243         6.9727 
  41   0.0000       0.313994         8.5442 
  42   0.0000       0.328919         8.9503 
  43   0.0000       0.334600         9.1049 
  44   0.0000       0.340946         9.2776 
  45   0.0000       0.356359         9.6970 
  46   0.0000       0.370940        10.0938 
  47   0.0000       0.401335        10.9209 
  48   0.0000       0.440287        11.9808 
  49   0.0000       0.461904        12.5691 
  50   0.0000       0.489653        13.3241 
  51   0.0000       0.508760        13.8441 
  52   0.0000       0.521816        14.1993 
  53   0.0000       0.559899        15.2356 
  54   0.0000       0.573590        15.6082 
  55   0.0000       0.574446        15.6315 
  56   0.0000       0.582698        15.8560 
  57   0.0000       0.609769        16.5926 
  58   0.0000       0.618222        16.8227 
  59   0.0000       0.622739        16.9456 
  60   0.0000       0.627550        17.0765 
  61   0.0000       0.637023        17.3343 
  62   0.0000       0.658351        17.9146 
  63   0.0000       0.659794        17.9539 
  64   0.0000       0.665619        18.1124 
  65   0.0000       0.675540        18.3824 
  66   0.0000       0.684867        18.6362 
  67   0.0000       0.688794        18.7430 
  68   0.0000       0.707520        19.2526 
  69   0.0000       0.718315        19.5464 
  70   0.0000       0.754945        20.5431 
  71   0.0000       0.765094        20.8193 
  72   0.0000       0.789022        21.4704 
  73   0.0000       0.800654        21.7869 
  74   0.0000       0.863311        23.4919 
  75   0.0000       0.883679        24.0461 
  76   0.0000       0.891843        24.2683 
  77   0.0000       0.909560        24.7504 
  78   0.0000       0.922980        25.1156 
  79   0.0000       0.927013        25.2253 
  80   0.0000       0.952227        25.9114 
  81   0.0000       0.980527        26.6815 
  82   0.0000       1.026754        27.9394 
  83   0.0000       1.049076        28.5468 
  84   0.0000       1.092555        29.7299 
  85   0.0000       1.094843        29.7922 
  86   0.0000       1.113964        30.3125 
  87   0.0000       1.118072        30.4243 
  88   0.0000       1.138955        30.9925 
  89   0.0000       1.192265        32.4432 
  90   0.0000       1.239086        33.7172 
  91   0.0000       1.247073        33.9346 
  92   0.0000       1.273873        34.6639 
  93   0.0000       1.534908        41.7670 
  94   0.0000       1.552322        42.2408 
  95   0.0000       1.569566        42.7101 
  96   0.0000       1.658603        45.1329 
  97   0.0000       1.663380        45.2629 
  98   0.0000       1.681696        45.7613 
  99   0.0000       1.697846        46.2007 
 100   0.0000       1.708097        46.4797 
 101   0.0000       1.735055        47.2132 
 102   0.0000       1.763550        47.9886 
 103   0.0000       1.774231        48.2793 
 104   0.0000       1.778165        48.3863 
 105   0.0000       1.785596        48.5885 
 106   0.0000       1.792813        48.7849 
 107   0.0000       1.797008        48.8991 
 108   0.0000       1.809014        49.2258 
 109   0.0000       1.817203        49.4486 
 110   0.0000       1.827906        49.7398 
 111   0.0000       1.841937        50.1217 
 112   0.0000       1.844705        50.1970 
 113   0.0000       1.863033        50.6957 
 114   0.0000       1.869289        50.8659 
 115   0.0000       1.891277        51.4643 
 116   0.0000       1.954312        53.1795 
 117   0.0000       1.967215        53.5307 
 118   0.0000       1.973729        53.7079 
 119   0.0000       2.107807        57.3563 
 120   0.0000       2.137621        58.1676 
 121   0.0000       2.140821        58.2547 
 122   0.0000       2.198888        59.8348 
 123   0.0000       2.209552        60.1250 
 124   0.0000       2.211900        60.1889 
 125   0.0000       2.227361        60.6096 
 126   0.0000       2.244007        61.0625 
 127   0.0000       2.245014        61.0899 
 128   0.0000       2.274036        61.8797 
 129   0.0000       2.287671        62.2507 
 130   0.0000       2.293233        62.4020 
 131   0.0000       2.302617        62.6574 
 132   0.0000       2.304123        62.6984 
 133   0.0000       2.343792        63.7778 
 134   0.0000       2.396806        65.2204 
 135   0.0000       2.444772        66.5256 
 136   0.0000       2.449683        66.6593 
 137   0.0000       2.499304        68.0095 
 138   0.0000       2.537881        69.0593 
 139   0.0000       2.554319        69.5066 
 140   0.0000       2.558111        69.6098 
 141   0.0000       2.562988        69.7425 
 142   0.0000       2.567617        69.8684 
 143   0.0000       2.593355        70.5688 
 144   0.0000       2.595557        70.6287 
 145   0.0000       2.616234        71.1914 
 146   0.0000       2.619087        71.2690 
 147   0.0000       2.630002        71.5660 
 148   0.0000       2.640613        71.8547 
 149   0.0000       2.672651        72.7265 
 150   0.0000       2.698578        73.4320 
 151   0.0000       2.722897        74.0938 
 152   0.0000       2.730752        74.3076 
 153   0.0000       2.781509        75.6887 
 154   0.0000       2.793453        76.0137 
 155   0.0000       2.804080        76.3029 
 156   0.0000       2.836301        77.1797 
 157   0.0000       2.842733        77.3547 
 158   0.0000       2.864087        77.9358 
 159   0.0000       2.877847        78.3102 
 160   0.0000       2.903808        79.0166 
 161   0.0000       2.989202        81.3403 
 162   0.0000       3.045802        82.8805 
 163   0.0000       3.047697        82.9321 
 164   0.0000       3.077774        83.7505 
 165   0.0000       3.110481        84.6405 
 166   0.0000       3.118451        84.8574 
 167   0.0000       3.125557        85.0507 
 168   0.0000       3.138057        85.3909 
 169   0.0000       3.187187        86.7278 
 170   0.0000       3.202849        87.1540 
 171   0.0000       3.246238        88.3346 
 172   0.0000       3.318085        90.2897 
 173   0.0000       3.357748        91.3690 
 174   0.0000       3.372823        91.7792 
 175   0.0000       3.393437        92.3401 
 176   0.0000       3.399918        92.5165 
 177   0.0000       3.422138        93.1211 
 178   0.0000       3.453680        93.9794 
 179   0.0000       3.473170        94.5098 
 180   0.0000       3.537636        96.2640 
 181   0.0000       3.541456        96.3679 
 182   0.0000       3.583195        97.5037 
 183   0.0000       3.623288        98.5947 
 184   0.0000       3.642110        99.1069 
 185   0.0000       3.652390        99.3866 
 186   0.0000       3.662481        99.6612 
 187   0.0000       3.665655        99.7475 
 188   0.0000       3.703093       100.7663 
 189   0.0000       3.722669       101.2990 
 190   0.0000       3.746163       101.9383 
 191   0.0000       3.763329       102.4054 
 192   0.0000       3.847851       104.7053 
 193   0.0000       3.863878       105.1415 
 194   0.0000       3.869926       105.3060 
 195   0.0000       3.886256       105.7504 
 196   0.0000       3.890640       105.8697 
 197   0.0000       3.897429       106.0544 
 198   0.0000       3.903629       106.2232 
 199   0.0000       3.915969       106.5589 
 200   0.0000       3.948677       107.4490 
 201   0.0000       4.224731       114.9608 
 202   0.0000       4.254425       115.7688 
 203   0.0000       4.382478       119.2533 
 204   0.0000       4.494191       122.2932 
 205   0.0000       4.503652       122.5506 
 206   0.0000       4.521232       123.0290 
 207   0.0000       4.538551       123.5002 
 208   0.0000       4.551235       123.8454 
 209   0.0000       4.590404       124.9112 
 210   0.0000       4.698072       127.8410 
 211   0.0000       4.714205       128.2801 
 212   0.0000       4.741133       129.0128 
 213   0.0000       4.867268       132.4451 
 214   0.0000       4.876154       132.6869 
 215   0.0000       4.911403       133.6461 
 216   0.0000       5.683504       154.6560 
 217   0.0000       5.696087       154.9984 
 218   0.0000       5.731070       155.9503 
 219   0.0000       5.751441       156.5047 
 220   0.0000       5.775611       157.1624 
 221   0.0000       5.811151       158.1294 
 222   0.0000       5.859410       159.4427 
 223   0.0000       5.876750       159.9145 
 224   0.0000       5.930157       161.3678 
 225   0.0000       6.137804       167.0181 
 226   0.0000       6.154137       167.4626 
 227   0.0000       6.156693       167.5321 
 228   0.0000       6.172026       167.9494 
 229   0.0000       6.205483       168.8598 
 230   0.0000       6.214613       169.1082 
 231   0.0000       6.296998       171.3500 
 232   0.0000       6.328314       172.2022 
 233   0.0000       6.369809       173.3313 
 234   0.0000       6.626177       180.3075 
 235   0.0000       6.659546       181.2155 
 236   0.0000       6.755513       183.8268 
 237   0.0000       6.949589       189.1079 
 238   0.0000       6.981636       189.9800 
 239   0.0000       7.019637       191.0140 
 240   0.0000       7.141922       194.3416 
 241   0.0000       7.156906       194.7493 
 242   0.0000       7.192290       195.7122 
 243   0.0000       7.218468       196.4245 
 244   0.0000       7.256200       197.4512 
 245   0.0000       7.306919       198.8314 
 246   0.0000       7.444554       202.5766 
 247   0.0000       7.456579       202.9038 
 248   0.0000       7.530501       204.9154 
 249   0.0000       7.591812       206.5837 
 250   0.0000       7.619561       207.3388 
 251   0.0000       7.756091       211.0540 
 252   0.0000      23.354571       635.5102 
 253   0.0000      23.360019       635.6584 
 254   0.0000      23.397929       636.6900 
 255   0.0000      45.146872      1228.5088 
 256   0.0000      45.174642      1229.2645 
 257   0.0000      45.300086      1232.6780 

                    ********************************
                    * MULLIKEN POPULATION ANALYSIS *
                    ********************************

-----------------------
MULLIKEN ATOMIC CHARGES
-----------------------
   0 O :   -0.545245
   1 H :    0.329359
   2 C :   -0.077626
   3 H :    0.105702
   4 H :    0.090160
   5 H :    0.097650
   6 O :   -0.568873
   7 H :    0.353247
   8 C :   -0.088951
   9 H :    0.118633
  10 H :    0.105858
  11 H :    0.111110
  12 O :   -0.589982
  13 H :    0.367301
  14 C :   -0.064660
  15 H :    0.098888
  16 H :    0.084429
  17 H :    0.072999
Sum of atomic charges:   -0.0000000

--------------------------------
MULLIKEN REDUCED ORBITAL CHARGES
--------------------------------
  0 O s       :     3.806274  s :     3.806274
      pz      :     1.389562  p :     4.704548
      px      :     1.741292
      py      :     1.573694
      dz2     :     0.010681  d :     0.032701
      dxz     :     0.003833
      dyz     :     0.007989
      dx2y2   :     0.002698
      dxy     :     0.007500
      f0      :     0.000396  f :     0.001722
      f+1     :     0.000370
      f-1     :     0.000183
      f+2     :     0.000089
      f-2     :     0.000280
      f+3     :     0.000350
      f-3     :     0.000054
  1 H s       :     0.627945  s :     0.627945
      pz      :     0.011247  p :     0.042696
      px      :     0.015730
      py      :     0.015718
  2 C s       :     3.195301  s :     3.195301
      pz      :     0.705807  p :     2.758959
      px      :     1.013607
      py      :     1.039544
      dz2     :     0.026826  d :     0.114477
      dxz     :     0.035135
      dyz     :     0.026076
      dx2y2   :     0.007599
      dxy     :     0.018842
      f0      :     0.002572  f :     0.008888
      f+1     :     0.001996
      f-1     :     0.001755
      f+2     :     0.000720
      f-2     :     0.000789
      f+3     :     0.001016
      f-3     :     0.000041
  3 H s       :     0.873159  s :     0.873159
      pz      :     0.003902  p :     0.021138
      px      :     0.007240
      py      :     0.009996
  4 H s       :     0.889734  s :     0.889734
      pz      :     0.006513  p :     0.020107
      px      :     0.010183
      py      :     0.003411
  5 H s       :     0.882240  s :     0.882240
      pz      :     0.002132  p :     0.020111
      px      :     0.006776
      py      :     0.011203
  6 O s       :     3.802101  s :     3.802101
      pz      :     1.466115  p :     4.733295
      px      :     1.802973
      py      :     1.464207
      dz2     :     0.006803  d :     0.031810
      dxz     :     0.007311
      dyz     :     0.005292
      dx2y2   :     0.008490
      dxy     :     0.003913
      f0      :     0.000148  f :     0.001667
      f+1     :     0.000564
      f-1     :     0.000124
      f+2     :     0.000359
      f-2     :     0.000078
      f+3     :     0.000139
      f-3     :     0.000255
  7 H s       :     0.604569  s :     0.604569
      pz      :     0.018151  p :     0.042184
      px      :     0.015138
      py      :     0.008895
  8 C s       :     3.199294  s :     3.199294
      pz      :     1.004550  p :     2.769792
      px      :     1.048627
      py      :     0.716615
      dz2     :     0.025809  d :     0.110858
      dxz     :     0.011646
      dyz     :     0.024044
      dx2y2   :     0.016418
      dxy     :     0.032940
      f0      :     0.000830  f :     0.009007
      f+1     :     0.000673
      f-1     :     0.001678
      f+2     :     0.001282
      f-2     :     0.001212
      f+3     :     0.001710
      f-3     :     0.001624
  9 H s       :     0.860113  s :     0.860113
      pz      :     0.013735  p :     0.021254
      px      :     0.005240
      py      :     0.002279
 10 H s       :     0.873534  s :     0.873534
      pz      :     0.005910  p :     0.020608
      px      :     0.007609
      py      :     0.007090
 11 H s       :     0.868633  s :     0.868633
      pz      :     0.003178  p :     0.020257
      px      :     0.012854
      py      :     0.004225
 12 O s       :     3.797115  s :     3.797115
      pz      :     1.508582  p :     4.759923
      px      :     1.691270
      py      :     1.560070
      dz2     :     0.005660  d :     0.031271
      dxz     :     0.009890
      dyz     :     0.003969
      dx2y2   :     0.005537
      dxy     :     0.006214
      f0      :     0.000223  f :     0.001673
      f+1     :     0.000363
      f-1     :     0.000208
      f+2     :     0.000313
      f-2     :     0.000287
      f+3     :     0.000242
      f-3     :     0.000038
 13 H s       :     0.576735  s :     0.576735
      pz      :     0.014959  p :     0.055964
      px      :     0.013704
      py      :     0.027301
 14 C s       :     3.183670  s :     3.183670
      pz      :     0.805372  p :     2.753272
      px      :     0.923162
      py      :     1.024738
      dz2     :     0.031152  d :     0.118613
      dxz     :     0.016869
      dyz     :     0.032811
      dx2y2   :     0.027807
      dxy     :     0.009974
      f0      :     0.001877  f :     0.009105
      f+1     :     0.001587
      f-1     :     0.001159
      f+2     :     0.001984
      f-2     :     0.001315
      f+3     :     0.000875
      f-3     :     0.000309
 15 H s       :     0.880227  s :     0.880227
      pz      :     0.004178  p :     0.020885
      px      :     0.004366
      py      :     0.012341
 16 H s       :     0.895590  s :     0.895590
      pz      :     0.002974  p :     0.019981
      px      :     0.013565
      py      :     0.003441
 17 H s       :     0.907050  s :     0.907050
      pz      :     0.008879  p :     0.019950
      px      :     0.003093
      py      :     0.007979


                     *******************************
                     * LOEWDIN POPULATION ANALYSIS *
                     *******************************

----------------------
LOEWDIN ATOMIC CHARGES
----------------------
   0 O :   -0.131622
   1 H :    0.189960
   2 C :   -0.336276
   3 H :    0.100716
   4 H :    0.087793
   5 H :    0.089428
   6 O :   -0.101623
   7 H :    0.199852
   8 C :   -0.328071
   9 H :    0.104825
  10 H :    0.096140
  11 H :    0.094780
  12 O :   -0.148779
  13 H :    0.165898
  14 C :   -0.347203
  15 H :    0.096342
  16 H :    0.085789
  17 H :    0.082050

-------------------------------
LOEWDIN REDUCED ORBITAL CHARGES
-------------------------------
  0 O s       :     3.396827  s :     3.396827
      pz      :     1.435910  p :     4.662118
      px      :     1.667720
      py      :     1.558488
      dz2     :     0.021140  d :     0.068549
      dxz     :     0.013922
      dyz     :     0.019233
      dx2y2   :     0.002792
      dxy     :     0.011462
      f0      :     0.001059  f :     0.004128
      f+1     :     0.000875
      f-1     :     0.000834
      f+2     :     0.000302
      f-2     :     0.000490
      f+3     :     0.000544
      f-3     :     0.000024
  1 H s       :     0.666177  s :     0.666177
      pz      :     0.030318  p :     0.143863
      px      :     0.049395
      py      :     0.064151
  2 C s       :     2.862814  s :     2.862814
      pz      :     0.842989  p :     2.993010
      px      :     1.065697
      py      :     1.084324
      dz2     :     0.119269  d :     0.423134
      dxz     :     0.127860
      dyz     :     0.088750
      dx2y2   :     0.020992
      dxy     :     0.066262
      f0      :     0.016884  f :     0.057318
      f+1     :     0.011180
      f-1     :     0.014129
      f+2     :     0.006986
      f-2     :     0.004547
      f+3     :     0.002998
      f-3     :     0.000594
  3 H s       :     0.840689  s :     0.840689
      pz      :     0.010837  p :     0.058595
      px      :     0.020327
      py      :     0.027431
  4 H s       :     0.853812  s :     0.853812
      pz      :     0.018061  p :     0.058395
      px      :     0.028205
      py      :     0.012128
  5 H s       :     0.851747  s :     0.851747
      pz      :     0.007925  p :     0.058825
      px      :     0.020129
      py      :     0.030772
  6 O s       :     3.384046  s :     3.384046
      pz      :     1.423791  p :     4.644697
      px      :     1.711971
      py      :     1.508935
      dz2     :     0.015225  d :     0.068703
      dxz     :     0.012324
      dyz     :     0.014014
      dx2y2   :     0.015635
      dxy     :     0.011505
      f0      :     0.000282  f :     0.004178
      f+1     :     0.000802
      f-1     :     0.000749
      f+2     :     0.000810
      f-2     :     0.000318
      f+3     :     0.000683
      f-3     :     0.000534
  7 H s       :     0.654157  s :     0.654157
      pz      :     0.067441  p :     0.145992
      px      :     0.050831
      py      :     0.027721
  8 C s       :     2.861268  s :     2.861268
      pz      :     1.047026  p :     2.991453
      px      :     1.089565
      py      :     0.854863
      dz2     :     0.086308  d :     0.417944
      dxz     :     0.036421
      dyz     :     0.086048
      dx2y2   :     0.085916
      dxy     :     0.123251
      f0      :     0.004598  f :     0.057405
      f+1     :     0.002481
      f-1     :     0.011632
      f+2     :     0.009375
      f-2     :     0.008562
      f+3     :     0.010686
      f-3     :     0.010071
  9 H s       :     0.835885  s :     0.835885
      pz      :     0.035406  p :     0.059290
      px      :     0.015997
      py      :     0.007886
 10 H s       :     0.844895  s :     0.844895
      pz      :     0.018166  p :     0.058965
      px      :     0.021827
      py      :     0.018972
 11 H s       :     0.845890  s :     0.845890
      pz      :     0.011742  p :     0.059330
      px      :     0.034886
      py      :     0.012702
 12 O s       :     3.384913  s :     3.384913
      pz      :     1.513001  p :     4.695045
      px      :     1.670161
      py      :     1.511883
      dz2     :     0.014041  d :     0.064895
      dxz     :     0.017682
      dyz     :     0.013689
      dx2y2   :     0.010668
      dxy     :     0.008815
      f0      :     0.000721  f :     0.003926
      f+1     :     0.000805
      f-1     :     0.000439
      f+2     :     0.000579
      f-2     :     0.000728
      f+3     :     0.000540
      f-3     :     0.000113
 13 H s       :     0.649832  s :     0.649832
      pz      :     0.043520  p :     0.184270
      px      :     0.046986
      py      :     0.093764
 14 C s       :     2.860736  s :     2.860736
      pz      :     0.916988  p :     2.996430
      px      :     1.010782
      py      :     1.068661
      dz2     :     0.111778  d :     0.432204
      dxz     :     0.084027
      dyz     :     0.108997
      dx2y2   :     0.093019
      dxy     :     0.034383
      f0      :     0.013457  f :     0.057834
      f+1     :     0.012083
      f-1     :     0.006047
      f+2     :     0.009302
      f-2     :     0.009545
      f+3     :     0.004451
      f-3     :     0.002948
 15 H s       :     0.845495  s :     0.845495
      pz      :     0.012127  p :     0.058163
      px      :     0.013863
      py      :     0.032174
 16 H s       :     0.856081  s :     0.856081
      pz      :     0.010226  p :     0.058130
      px      :     0.035610
      py      :     0.012294
 17 H s       :     0.860188  s :     0.860188
      pz      :     0.023819  p :     0.057762
      px      :     0.010841
      py      :     0.023102


                      *****************************
                      * MAYER POPULATION ANALYSIS *
                      *****************************

  NA   - Mulliken gross atomic population
  ZA   - Total nuclear charge
  QA   - Mulliken gross atomic charge
  VA   - Mayer's total valence
  BVA  - Mayer's bonded valence
  FA   - Mayer's free valence

  ATOM       NA         ZA         QA         VA         BVA        FA
  0 O      8.5452     8.0000    -0.5452     1.7936     1.7936    -0.0000
  1 H      0.6706     1.0000     0.3294     0.8984     0.8984    -0.0000
  2 C      6.0776     6.0000    -0.0776     3.8981     3.8981     0.0000
  3 H      0.8943     1.0000     0.1057     0.9627     0.9627     0.0000
  4 H      0.9098     1.0000     0.0902     0.9612     0.9612    -0.0000
  5 H      0.9024     1.0000     0.0976     0.9613     0.9613     0.0000
  6 O      8.5689     8.0000    -0.5689     1.7821     1.7821    -0.0000
  7 H      0.6468     1.0000     0.3532     0.8819     0.8819    -0.0000
  8 C      6.0890     6.0000    -0.0890     3.8565     3.8565    -0.0000
  9 H      0.8814     1.0000     0.1186     0.9656     0.9656    -0.0000
 10 H      0.8941     1.0000     0.1059     0.9637     0.9637    -0.0000
 11 H      0.8889     1.0000     0.1111     0.9621     0.9621    -0.0000
 12 O      8.5900     8.0000    -0.5900     1.7346     1.7346    -0.0000
 13 H      0.6327     1.0000     0.3673     0.9056     0.9056    -0.0000
 14 C      6.0647     6.0000    -0.0647     3.9222     3.9222     0.0000
 15 H      0.9011     1.0000     0.0989     0.9621     0.9621     0.0000
 16 H      0.9156     1.0000     0.0844     0.9610     0.9610    -0.0000
 17 H      0.9270     1.0000     0.0730     0.9607     0.9607     0.0000

  Mayer bond orders larger than 0.100000
B(  0-O ,  1-H ) :   0.8882 B(  0-O ,  2-C ) :   0.9324 B(  2-C ,  3-H ) :   0.9834 
B(  2-C ,  4-H ) :   0.9879 B(  2-C ,  5-H ) :   0.9869 B(  6-O ,  7-H ) :   0.8712 
B(  6-O ,  8-C ) :   0.8888 B(  8-C ,  9-H ) :   0.9852 B(  8-C , 10-H ) :   0.9823 
B(  8-C , 11-H ) :   0.9877 B( 12-O , 13-H ) :   0.8313 B( 12-O , 14-C ) :   0.9504 
B( 14-C , 15-H ) :   0.9878 B( 14-C , 16-H ) :   0.9879 B( 14-C , 17-H ) :   0.9888 


-------
TIMINGS
-------

Total SCF time: 0 days 0 hours 0 min 12 sec 

Total time                  ....      12.429 sec
Sum of individual times     ....      12.170 sec  ( 97.9%)

Fock matrix formation       ....      11.805 sec  ( 95.0%)
Diagonalization             ....       0.073 sec  (  0.6%)
Density matrix formation    ....       0.010 sec  (  0.1%)
Population analysis         ....       0.025 sec  (  0.2%)
Initial guess               ....       0.139 sec  (  1.1%)
Orbital Transformation      ....       0.000 sec  (  0.0%)
Orbital Orthonormalization  ....       0.000 sec  (  0.0%)
DIIS solution               ....       0.027 sec  (  0.2%)
SOSCF solution              ....       0.038 sec  (  0.3%)


           ************************************************************
           *        Program running with 6 parallel MPI-processes     *
           *              working on a common directory               *
           ************************************************************

------------------------------------------------------------------------------
                                ORCA  MP2 
------------------------------------------------------------------------------

Freezing NCore=12 chemical core electrons
MP2 will be done in the AO integral direct mode
The Q1-step will be done using symmetric double matrices
Dimension of the basis                    ...  258
Memory devoted for MP2                    ... 8000 MB   
Memory needed for all in one shot         ...  264 MB
Number of MOs that can be treated together...  120      
MP2 density construction                  ... relaxed
The MP2 gradient is requested => amplitudes will be stored on disk
Total number of MOs              ...   21
Number of MOs treated per batch  ...    4 
Number of batches necessary      ...    1 
OPERATORS   0/  0 PASS   0
-----------------------------------------------
 MP2 CORRELATION ENERGY   :     -1.256326641 Eh
-----------------------------------------------


---------------------
MP2 DENSITY FORMATION
---------------------

Completing the external part of the density      ... done
Storing the unrelaxed density                    ... done

Calculating G(D)                                 ... done
Completing the Lagrangian                        ... done
Solving the Z-vector equations                   ... 

------------------------------------------------------------------------------
                           ORCA CP-SCF CALCULATION
------------------------------------------------------------------------------

Input orbitals are from        ... 12meoh.boyd.etal.mol3,7,11-orca.engrad-mp2.def2tzvp.frozencore.gbw
Input Perturbation             ... 12meoh.boyd.etal.mol3,7,11-orca.engrad-mp2.def2tzvp.frozencore.pin.tmp
Wavefunction output            ... 12meoh.boyd.etal.mol3,7,11-orca.engrad-mp2.def2tzvp.frozencore.pout.tmp
Perturbation mode              ... Real perturbation (singlet)
Solver                         ... POPLE
Max. number of iterations      ... 128
Convergence tolerance          ... 1.000e-08
Integral handling              ... Direct
Number of perturbations        ... 1
Number of operators            ... 1
Orbital ranges used for CP-SCF:
 Operator 0:  Orbitals   0... 26  to  27...257
Variables per vector in CP-SCF ... 6237
Number of vectors sought       ... 1
     CP-SCF ITERATION   0: 
     CP-SCF ITERATION   1:      0.000353476592
     CP-SCF ITERATION   2:      0.000022612403
     CP-SCF ITERATION   3:      0.000003646711
     CP-SCF ITERATION   4:      0.000000169613
     CP-SCF ITERATION   5:      0.000000005877
                                                 ... done
Finalizing the relaxed density                   ... done
Transforming P to the AO basis                   ... done
Storing the relaxed density                      ... done

------------------------------------
ENERGY WEIGHTED DENSITY FINALIZATION
------------------------------------

Gathering the parts of the W-matrix              ...                                                      done
Forming the Z-density                            ... done
Transforming Z to the AO basis                   ... done
Calculating G(Z)                                 ... done
Finalizing the W-matrix                          ...                                                      done
Transforming W to the AO basis and storing       ... done

                *********************************************
                * UNRELAXED MP2 DENSITY POPULATION ANALYSIS *
                *********************************************

------------------------------------------------------------------------------
                           ORCA POPULATION ANALYSIS
------------------------------------------------------------------------------
Input electron density              ... 12meoh.boyd.etal.mol3,7,11-orca.engrad-mp2.def2tzvp.frozencore.pmp2ur
BaseName (.gbw .S,...)              ... 12meoh.boyd.etal.mol3,7,11-orca.engrad-mp2.def2tzvp.frozencore

                    ********************************
                    * MULLIKEN POPULATION ANALYSIS *
                    ********************************

-----------------------
MULLIKEN ATOMIC CHARGES
-----------------------
   0 O :   -0.534180
   1 H :    0.326661
   2 C :   -0.093603
   3 H :    0.108495
   4 H :    0.092594
   5 H :    0.100034
   6 O :   -0.557045
   7 H :    0.350521
   8 C :   -0.104480
   9 H :    0.121337
  10 H :    0.108288
  11 H :    0.113473
  12 O :   -0.578007
  13 H :    0.362826
  14 C :   -0.081076
  15 H :    0.101738
  16 H :    0.086899
  17 H :    0.075526
Sum of atomic charges:   -0.0000000

--------------------------------
MULLIKEN REDUCED ORBITAL CHARGES
--------------------------------
  0 O s       :     3.801008  s :     3.801008
      pz      :     1.378100  p :     4.668861
      px      :     1.728869
      py      :     1.561893
      dz2     :     0.015954  d :     0.059934
      dxz     :     0.009457
      dyz     :     0.013330
      dx2y2   :     0.008305
      dxy     :     0.012888
      f0      :     0.000784  f :     0.004378
      f+1     :     0.000750
      f-1     :     0.000578
      f+2     :     0.000465
      f-2     :     0.000654
      f+3     :     0.000715
      f-3     :     0.000431
  1 H s       :     0.628918  s :     0.628918
      pz      :     0.011940  p :     0.044421
      px      :     0.016381
      py      :     0.016100
  2 C s       :     3.193392  s :     3.193392
      pz      :     0.708063  p :     2.752873
      px      :     1.009738
      py      :     1.035072
      dz2     :     0.029839  d :     0.135117
      dxz     :     0.038685
      dyz     :     0.030699
      dx2y2   :     0.012715
      dxy     :     0.023180
      f0      :     0.002974  f :     0.012221
      f+1     :     0.002466
      f-1     :     0.002207
      f+2     :     0.001191
      f-2     :     0.001329
      f+3     :     0.001455
      f-3     :     0.000598
  3 H s       :     0.867278  s :     0.867278
      pz      :     0.005025  p :     0.024227
      px      :     0.008269
      py      :     0.010932
  4 H s       :     0.884104  s :     0.884104
      pz      :     0.007583  p :     0.023302
      px      :     0.011150
      py      :     0.004570
  5 H s       :     0.876689  s :     0.876689
      pz      :     0.003305  p :     0.023277
      px      :     0.007825
      py      :     0.012147
  6 O s       :     3.796718  s :     3.796718
      pz      :     1.455624  p :     4.696154
      px      :     1.789777
      py      :     1.450754
      dz2     :     0.012390  d :     0.059819
      dxz     :     0.012848
      dyz     :     0.010912
      dx2y2   :     0.013997
      dxy     :     0.009672
      f0      :     0.000530  f :     0.004354
      f+1     :     0.000923
      f-1     :     0.000521
      f+2     :     0.000741
      f-2     :     0.000465
      f+3     :     0.000534
      f-3     :     0.000640
  7 H s       :     0.605695  s :     0.605695
      pz      :     0.018246  p :     0.043784
      px      :     0.015800
      py      :     0.009738
  8 C s       :     3.197266  s :     3.197266
      pz      :     1.001086  p :     2.763382
      px      :     1.043852
      py      :     0.718443
      dz2     :     0.030149  d :     0.131502
      dxz     :     0.016709
      dyz     :     0.027685
      dx2y2   :     0.020045
      dxy     :     0.036914
      f0      :     0.001294  f :     0.012330
      f+1     :     0.001146
      f-1     :     0.002210
      f+2     :     0.001710
      f-2     :     0.001701
      f+3     :     0.002235
      f-3     :     0.002035
  9 H s       :     0.854358  s :     0.854358
      pz      :     0.014574  p :     0.024305
      px      :     0.006310
      py      :     0.003421
 10 H s       :     0.867975  s :     0.867975
      pz      :     0.006972  p :     0.023737
      px      :     0.008624
      py      :     0.008142
 11 H s       :     0.863151  s :     0.863151
      pz      :     0.004315  p :     0.023376
      px      :     0.013729
      py      :     0.005333
 12 O s       :     3.791721  s :     3.791721
      pz      :     1.496537  p :     4.722811
      px      :     1.677674
      py      :     1.548601
      dz2     :     0.011296  d :     0.059119
      dxz     :     0.015239
      dyz     :     0.009665
      dx2y2   :     0.011166
      dxy     :     0.011753
      f0      :     0.000610  f :     0.004356
      f+1     :     0.000746
      f-1     :     0.000588
      f+2     :     0.000693
      f-2     :     0.000672
      f+3     :     0.000622
      f-3     :     0.000424
 13 H s       :     0.579436  s :     0.579436
      pz      :     0.015684  p :     0.057738
      px      :     0.014509
      py      :     0.027545
 14 C s       :     3.181764  s :     3.181764
      pz      :     0.805684  p :     2.747419
      px      :     0.920798
      py      :     1.020936
      dz2     :     0.035320  d :     0.139453
      dxz     :     0.020663
      dyz     :     0.036541
      dx2y2   :     0.031855
      dxy     :     0.015074
      f0      :     0.002373  f :     0.012440
      f+1     :     0.001994
      f-1     :     0.001657
      f+2     :     0.002451
      f-2     :     0.001778
      f+3     :     0.001341
      f-3     :     0.000845
 15 H s       :     0.874229  s :     0.874229
      pz      :     0.005313  p :     0.024033
      px      :     0.005464
      py      :     0.013256
 16 H s       :     0.889889  s :     0.889889
      pz      :     0.004136  p :     0.023212
      px      :     0.014475
      py      :     0.004601
 17 H s       :     0.901247  s :     0.901247
      pz      :     0.009926  p :     0.023227
      px      :     0.004272
      py      :     0.009028


                     *******************************
                     * LOEWDIN POPULATION ANALYSIS *
                     *******************************

----------------------
LOEWDIN ATOMIC CHARGES
----------------------
   0 O :   -0.123803
   1 H :    0.188094
   2 C :   -0.346927
   3 H :    0.102475
   4 H :    0.089249
   5 H :    0.090911
   6 O :   -0.092830
   7 H :    0.198039
   8 C :   -0.338589
   9 H :    0.106595
  10 H :    0.097677
  11 H :    0.096314
  12 O :   -0.141029
  13 H :    0.163285
  14 C :   -0.358186
  15 H :    0.098044
  16 H :    0.087224
  17 H :    0.083456

-------------------------------
LOEWDIN REDUCED ORBITAL CHARGES
-------------------------------
  0 O s       :     3.393344  s :     3.393344
      pz      :     1.423654  p :     4.626231
      px      :     1.655679
      py      :     1.546897
      dz2     :     0.027177  d :     0.097193
      dxz     :     0.019650
      dyz     :     0.024655
      dx2y2   :     0.008408
      dxy     :     0.017302
      f0      :     0.001518  f :     0.007035
      f+1     :     0.001300
      f-1     :     0.001265
      f+2     :     0.000689
      f-2     :     0.000906
      f+3     :     0.000951
      f-3     :     0.000406
  1 H s       :     0.664455  s :     0.664455
      pz      :     0.031209  p :     0.147451
      px      :     0.050524
      py      :     0.065719
  2 C s       :     2.861669  s :     2.861669
      pz      :     0.841533  p :     2.979196
      px      :     1.059757
      py      :     1.077907
      dz2     :     0.122778  d :     0.443867
      dxz     :     0.131181
      dyz     :     0.092604
      dx2y2   :     0.026192
      dxy     :     0.071112
      f0      :     0.017630  f :     0.062196
      f+1     :     0.011949
      f-1     :     0.014755
      f+2     :     0.007598
      f-2     :     0.005268
      f+3     :     0.003778
      f-3     :     0.001218
  3 H s       :     0.833912  s :     0.833912
      pz      :     0.012339  p :     0.063613
      px      :     0.021949
      py      :     0.029325
  4 H s       :     0.847111  s :     0.847111
      pz      :     0.019979  p :     0.063640
      px      :     0.030267
      py      :     0.013394
  5 H s       :     0.845064  s :     0.845064
      pz      :     0.009313  p :     0.064025
      px      :     0.021743
      py      :     0.032969
  6 O s       :     3.380541  s :     3.380541
      pz      :     1.413188  p :     4.607130
      px      :     1.699199
      py      :     1.494743
      dz2     :     0.020953  d :     0.098035
      dxz     :     0.018342
      dyz     :     0.019808
      dx2y2   :     0.021840
      dxy     :     0.017093
      f0      :     0.000699  f :     0.007123
      f+1     :     0.001234
      f-1     :     0.001160
      f+2     :     0.001260
      f-2     :     0.000716
      f+3     :     0.001089
      f-3     :     0.000966
  7 H s       :     0.652577  s :     0.652577
      pz      :     0.068888  p :     0.149385
      px      :     0.051926
      py      :     0.028571
  8 C s       :     2.860100  s :     2.860100
      pz      :     1.041340  p :     2.977526
      px      :     1.083054
      py      :     0.853132
      dz2     :     0.090643  d :     0.438700
      dxz     :     0.041526
      dyz     :     0.089739
      dx2y2   :     0.089991
      dxy     :     0.126801
      f0      :     0.005407  f :     0.062263
      f+1     :     0.003227
      f-1     :     0.012162
      f+2     :     0.010091
      f-2     :     0.009166
      f+3     :     0.011255
      f-3     :     0.010956
  9 H s       :     0.829147  s :     0.829147
      pz      :     0.037686  p :     0.064258
      px      :     0.017364
      py      :     0.009207
 10 H s       :     0.838226  s :     0.838226
      pz      :     0.019740  p :     0.064098
      px      :     0.023466
      py      :     0.020892
 11 H s       :     0.839227  s :     0.839227
      pz      :     0.013003  p :     0.064459
      px      :     0.037155
      py      :     0.014301
 12 O s       :     3.381577  s :     3.381577
      pz      :     1.500586  p :     4.658361
      px      :     1.656801
      py      :     1.500973
      dz2     :     0.019800  d :     0.094224
      dxz     :     0.023834
      dyz     :     0.019544
      dx2y2   :     0.016389
      dxy     :     0.014656
      f0      :     0.001136  f :     0.006867
      f+1     :     0.001255
      f-1     :     0.000845
      f+2     :     0.001010
      f-2     :     0.001157
      f+3     :     0.000955
      f-3     :     0.000509
 13 H s       :     0.649558  s :     0.649558
      pz      :     0.044375  p :     0.187157
      px      :     0.047924
      py      :     0.094859
 14 C s       :     2.859640  s :     2.859640
      pz      :     0.914074  p :     2.982611
      px      :     1.005908
      py      :     1.062629
      dz2     :     0.115538  d :     0.453197
      dxz     :     0.088242
      dyz     :     0.112692
      dx2y2   :     0.097344
      dxy     :     0.039381
      f0      :     0.013957  f :     0.062737
      f+1     :     0.012919
      f-1     :     0.006820
      f+2     :     0.010130
      f-2     :     0.010158
      f+3     :     0.005166
      f-3     :     0.003586
 15 H s       :     0.838661  s :     0.838661
      pz      :     0.013629  p :     0.063295
      px      :     0.015247
      py      :     0.034419
 16 H s       :     0.849335  s :     0.849335
      pz      :     0.011616  p :     0.063441
      px      :     0.038246
      py      :     0.013579
 17 H s       :     0.853399  s :     0.853399
      pz      :     0.026008  p :     0.063145
      px      :     0.012149
      py      :     0.024987


                      *****************************
                      * MAYER POPULATION ANALYSIS *
                      *****************************

  NA   - Mulliken gross atomic population
  ZA   - Total nuclear charge
  QA   - Mulliken gross atomic charge
  VA   - Mayer's total valence
  BVA  - Mayer's bonded valence
  FA   - Mayer's free valence

  ATOM       NA         ZA         QA         VA         BVA        FA
  0 O      8.5342     8.0000    -0.5342     2.0922     1.6874     0.4048
  1 H      0.6733     1.0000     0.3267     0.9049     0.8518     0.0530
  2 C      6.0936     6.0000    -0.0936     4.0032     3.7246     0.2786
  3 H      0.8915     1.0000     0.1085     0.9717     0.9246     0.0471
  4 H      0.9074     1.0000     0.0926     0.9712     0.9220     0.0492
  5 H      0.9000     1.0000     0.1000     0.9710     0.9223     0.0488
  6 O      8.5570     8.0000    -0.5570     2.0850     1.6776     0.4073
  7 H      0.6495     1.0000     0.3505     0.8881     0.8371     0.0510
  8 C      6.1045     6.0000    -0.1045     3.9636     3.6854     0.2782
  9 H      0.8787     1.0000     0.1213     0.9742     0.9277     0.0465
 10 H      0.8917     1.0000     0.1083     0.9729     0.9247     0.0483
 11 H      0.8865     1.0000     0.1135     0.9713     0.9233     0.0480
 12 O      8.5780     8.0000    -0.5780     2.0405     1.6318     0.4087
 13 H      0.6372     1.0000     0.3628     0.9132     0.8633     0.0499
 14 C      6.0811     6.0000    -0.0811     4.0262     3.7449     0.2813
 15 H      0.8983     1.0000     0.1017     0.9714     0.9237     0.0477
 16 H      0.9131     1.0000     0.0869     0.9712     0.9214     0.0498
 17 H      0.9245     1.0000     0.0755     0.9713     0.9209     0.0504

  Mayer bond orders larger than 0.100000
B(  0-O ,  1-H ) :   0.8426 B(  0-O ,  2-C ) :   0.8734 B(  2-C ,  3-H ) :   0.9459 
B(  2-C ,  4-H ) :   0.9496 B(  2-C ,  5-H ) :   0.9489 B(  6-O ,  7-H ) :   0.8274 
B(  6-O ,  8-C ) :   0.8317 B(  8-C ,  9-H ) :   0.9480 B(  8-C , 10-H ) :   0.9444 
B(  8-C , 11-H ) :   0.9499 B( 12-O , 13-H ) :   0.7917 B( 12-O , 14-C ) :   0.8894 
B( 14-C , 15-H ) :   0.9500 B( 14-C , 16-H ) :   0.9493 B( 14-C , 17-H ) :   0.9499 



                *******************************************
                * RELAXED MP2 DENSITY POPULATION ANALYSIS *
                *******************************************

------------------------------------------------------------------------------
                           ORCA POPULATION ANALYSIS
------------------------------------------------------------------------------
Input electron density              ... 12meoh.boyd.etal.mol3,7,11-orca.engrad-mp2.def2tzvp.frozencore.pmp2re
BaseName (.gbw .S,...)              ... 12meoh.boyd.etal.mol3,7,11-orca.engrad-mp2.def2tzvp.frozencore

                    ********************************
                    * MULLIKEN POPULATION ANALYSIS *
                    ********************************

-----------------------
MULLIKEN ATOMIC CHARGES
-----------------------
   0 O :   -0.496923
   1 H :    0.321455
   2 C :   -0.175604
   3 H :    0.126635
   4 H :    0.108721
   5 H :    0.115716
   6 O :   -0.513282
   7 H :    0.344905
   8 C :   -0.184569
   9 H :    0.139895
  10 H :    0.124813
  11 H :    0.129675
  12 O :   -0.532719
  13 H :    0.339510
  14 C :   -0.164101
  15 H :    0.120580
  16 H :    0.102919
  17 H :    0.092377
Sum of atomic charges:   -0.0000000

--------------------------------
MULLIKEN REDUCED ORBITAL CHARGES
--------------------------------
  0 O s       :     3.802770  s :     3.802770
      pz      :     1.370422  p :     4.632045
      px      :     1.716706
      py      :     1.544916
      dz2     :     0.014689  d :     0.057787
      dxz     :     0.009545
      dyz     :     0.013060
      dx2y2   :     0.008260
      dxy     :     0.012232
      f0      :     0.000767  f :     0.004322
      f+1     :     0.000744
      f-1     :     0.000570
      f+2     :     0.000467
      f-2     :     0.000646
      f+3     :     0.000698
      f-3     :     0.000431
  1 H s       :     0.633537  s :     0.633537
      pz      :     0.012243  p :     0.045008
      px      :     0.016901
      py      :     0.015864
  2 C s       :     3.215484  s :     3.215484
      pz      :     0.724686  p :     2.822942
      px      :     1.036076
      py      :     1.062180
      dz2     :     0.027181  d :     0.125517
      dxz     :     0.035634
      dyz     :     0.032260
      dx2y2   :     0.011533
      dxy     :     0.018908
      f0      :     0.002812  f :     0.011661
      f+1     :     0.002354
      f-1     :     0.002146
      f+2     :     0.001101
      f-2     :     0.001302
      f+3     :     0.001358
      f-3     :     0.000589
  3 H s       :     0.850292  s :     0.850292
      pz      :     0.005004  p :     0.023074
      px      :     0.007942
      py      :     0.010128
  4 H s       :     0.869078  s :     0.869078
      pz      :     0.007149  p :     0.022201
      px      :     0.010250
      py      :     0.004803
  5 H s       :     0.862133  s :     0.862133
      pz      :     0.003554  p :     0.022151
      px      :     0.007500
      py      :     0.011098
  6 O s       :     3.800186  s :     3.800186
      pz      :     1.443723  p :     4.650777
      px      :     1.775973
      py      :     1.431080
      dz2     :     0.011967  d :     0.058020
      dxz     :     0.012174
      dyz     :     0.010621
      dx2y2   :     0.013132
      dxy     :     0.010126
      f0      :     0.000519  f :     0.004299
      f+1     :     0.000896
      f-1     :     0.000527
      f+2     :     0.000722
      f-2     :     0.000469
      f+3     :     0.000542
      f-3     :     0.000625
  7 H s       :     0.610778  s :     0.610778
      pz      :     0.017655  p :     0.044318
      px      :     0.016282
      py      :     0.010381
  8 C s       :     3.219043  s :     3.219043
      pz      :     1.025459  p :     2.832386
      px      :     1.070870
      py      :     0.736057
      dz2     :     0.028313  d :     0.121376
      dxz     :     0.015388
      dyz     :     0.025404
      dx2y2   :     0.017711
      dxy     :     0.034560
      f0      :     0.001216  f :     0.011764
      f+1     :     0.001075
      f-1     :     0.002145
      f+2     :     0.001637
      f-2     :     0.001598
      f+3     :     0.002154
      f-3     :     0.001939
  9 H s       :     0.836950  s :     0.836950
      pz      :     0.013233  p :     0.023155
      px      :     0.006303
      py      :     0.003619
 10 H s       :     0.852575  s :     0.852575
      pz      :     0.006738  p :     0.022613
      px      :     0.008209
      py      :     0.007666
 11 H s       :     0.848093  s :     0.848093
      pz      :     0.004529  p :     0.022233
      px      :     0.012442
      py      :     0.005261
 12 O s       :     3.787827  s :     3.787827
      pz      :     1.484903  p :     4.683273
      px      :     1.664555
      py      :     1.533815
      dz2     :     0.011045  d :     0.057313
      dxz     :     0.014137
      dyz     :     0.009780
      dx2y2   :     0.010996
      dxy     :     0.011355
      f0      :     0.000612  f :     0.004306
      f+1     :     0.000721
      f-1     :     0.000587
      f+2     :     0.000685
      f-2     :     0.000665
      f+3     :     0.000612
      f-3     :     0.000423
 13 H s       :     0.602660  s :     0.602660
      pz      :     0.016003  p :     0.057830
      px      :     0.014959
      py      :     0.026868
 14 C s       :     3.202506  s :     3.202506
      pz      :     0.825275  p :     2.818782
      px      :     0.945903
      py      :     1.047604
      dz2     :     0.034987  d :     0.130903
      dxz     :     0.020079
      dyz     :     0.032809
      dx2y2   :     0.028151
      dxy     :     0.014877
      f0      :     0.002256  f :     0.011910
      f+1     :     0.001936
      f-1     :     0.001569
      f+2     :     0.002370
      f-2     :     0.001694
      f+3     :     0.001268
      f-3     :     0.000817
 15 H s       :     0.856505  s :     0.856505
      pz      :     0.005324  p :     0.022916
      px      :     0.005482
      py      :     0.012109
 16 H s       :     0.874938  s :     0.874938
      pz      :     0.004312  p :     0.022144
      px      :     0.013026
      py      :     0.004805
 17 H s       :     0.885421  s :     0.885421
      pz      :     0.009201  p :     0.022202
      px      :     0.004531
      py      :     0.008470


                     *******************************
                     * LOEWDIN POPULATION ANALYSIS *
                     *******************************

----------------------
LOEWDIN ATOMIC CHARGES
----------------------
   0 O :   -0.110827
   1 H :    0.190759
   2 C :   -0.381893
   3 H :    0.109758
   4 H :    0.095298
   5 H :    0.096904
   6 O :   -0.074743
   7 H :    0.200489
   8 C :   -0.372551
   9 H :    0.114131
  10 H :    0.104139
  11 H :    0.102718
  12 O :   -0.126276
  13 H :    0.157063
  14 C :   -0.393287
  15 H :    0.105494
  16 H :    0.093206
  17 H :    0.089618

-------------------------------
LOEWDIN REDUCED ORBITAL CHARGES
-------------------------------
  0 O s       :     3.396315  s :     3.396315
      pz      :     1.419487  p :     4.610712
      px      :     1.649811
      py      :     1.541414
      dz2     :     0.026588  d :     0.096654
      dxz     :     0.019886
      dyz     :     0.024721
      dx2y2   :     0.008503
      dxy     :     0.016956
      f0      :     0.001557  f :     0.007146
      f+1     :     0.001328
      f-1     :     0.001282
      f+2     :     0.000700
      f-2     :     0.000918
      f+3     :     0.000955
      f-3     :     0.000407
  1 H s       :     0.661145  s :     0.661145
      pz      :     0.031184  p :     0.148095
      px      :     0.050984
      py      :     0.065928
  2 C s       :     2.867603  s :     2.867603
      pz      :     0.851142  p :     3.019171
      px      :     1.075086
      py      :     1.092943
      dz2     :     0.119921  d :     0.434447
      dxz     :     0.129427
      dyz     :     0.092944
      dx2y2   :     0.024270
      dxy     :     0.067884
      f0      :     0.017157  f :     0.060673
      f+1     :     0.011539
      f-1     :     0.014577
      f+2     :     0.007506
      f-2     :     0.005033
      f+3     :     0.003662
      f-3     :     0.001200
  3 H s       :     0.826268  s :     0.826268
      pz      :     0.012701  p :     0.063974
      px      :     0.022119
      py      :     0.029155
  4 H s       :     0.840308  s :     0.840308
      pz      :     0.020414  p :     0.064394
      px      :     0.030110
      py      :     0.013870
  5 H s       :     0.838364  s :     0.838364
      pz      :     0.009961  p :     0.064732
      px      :     0.021963
      py      :     0.032808
  6 O s       :     3.383372  s :     3.383372
      pz      :     1.411630  p :     4.585968
      px      :     1.691420
      py      :     1.482918
      dz2     :     0.020842  d :     0.098164
      dxz     :     0.018109
      dyz     :     0.019915
      dx2y2   :     0.021579
      dxy     :     0.017719
      f0      :     0.000710  f :     0.007238
      f+1     :     0.001245
      f-1     :     0.001177
      f+2     :     0.001285
      f-2     :     0.000729
      f+3     :     0.001108
      f-3     :     0.000984
  7 H s       :     0.649751  s :     0.649751
      pz      :     0.068268  p :     0.149760
      px      :     0.052494
      py      :     0.028999
  8 C s       :     2.866173  s :     2.866173
      pz      :     1.055665  p :     3.017641
      px      :     1.098981
      py      :     0.862995
      dz2     :     0.088231  d :     0.428068
      dxz     :     0.039594
      dyz     :     0.086504
      dx2y2   :     0.086984
      dxy     :     0.126754
      f0      :     0.005278  f :     0.060669
      f+1     :     0.003143
      f-1     :     0.011813
      f+2     :     0.009906
      f-2     :     0.008950
      f+3     :     0.010793
      f-3     :     0.010786
  9 H s       :     0.821211  s :     0.821211
      pz      :     0.037289  p :     0.064658
      px      :     0.017707
      py      :     0.009662
 10 H s       :     0.831062  s :     0.831062
      pz      :     0.019968  p :     0.064799
      px      :     0.023587
      py      :     0.021244
 11 H s       :     0.832126  s :     0.832126
      pz      :     0.013519  p :     0.065156
      px      :     0.036807
      py      :     0.014829
 12 O s       :     3.383849  s :     3.383849
      pz      :     1.495713  p :     4.641252
      px      :     1.647666
      py      :     1.497874
      dz2     :     0.019944  d :     0.094185
      dxz     :     0.023338
      dyz     :     0.019772
      dx2y2   :     0.016395
      dxy     :     0.014736
      f0      :     0.001164  f :     0.006989
      f+1     :     0.001272
      f-1     :     0.000857
      f+2     :     0.001030
      f-2     :     0.001185
      f+3     :     0.000967
      f-3     :     0.000514
 13 H s       :     0.655158  s :     0.655158
      pz      :     0.044659  p :     0.187779
      px      :     0.048483
      py      :     0.094638
 14 C s       :     2.865543  s :     2.865543
      pz      :     0.924781  p :     3.022086
      px      :     1.019310
      py      :     1.077996
      dz2     :     0.116102  d :     0.444457
      dxz     :     0.086082
      dyz     :     0.109260
      dx2y2   :     0.094447
      dxy     :     0.038567
      f0      :     0.013517  f :     0.061201
      f+1     :     0.012756
      f-1     :     0.006625
      f+2     :     0.009840
      f-2     :     0.009936
      f+3     :     0.005045
      f-3     :     0.003482
 15 H s       :     0.830731  s :     0.830731
      pz      :     0.014035  p :     0.063775
      px      :     0.015581
      py      :     0.034159
 16 H s       :     0.842550  s :     0.842550
      pz      :     0.012096  p :     0.064244
      px      :     0.038075
      py      :     0.014073
 17 H s       :     0.846359  s :     0.846359
      pz      :     0.026307  p :     0.064023
      px      :     0.012640
      py      :     0.025076


                      *****************************
                      * MAYER POPULATION ANALYSIS *
                      *****************************

  NA   - Mulliken gross atomic population
  ZA   - Total nuclear charge
  QA   - Mulliken gross atomic charge
  VA   - Mayer's total valence
  BVA  - Mayer's bonded valence
  FA   - Mayer's free valence

  ATOM       NA         ZA         QA         VA         BVA        FA
  0 O      8.4969     8.0000    -0.4969     2.1461     1.7479     0.3982
  1 H      0.6785     1.0000     0.3215     0.9072     0.8541     0.0531
  2 C      6.1756     6.0000    -0.1756     4.0247     3.7484     0.2763
  3 H      0.8734     1.0000     0.1266     0.9632     0.9167     0.0465
  4 H      0.8913     1.0000     0.1087     0.9637     0.9151     0.0486
  5 H      0.8843     1.0000     0.1157     0.9640     0.9158     0.0482
  6 O      8.5133     8.0000    -0.5133     2.1585     1.7588     0.3998
  7 H      0.6551     1.0000     0.3449     0.8909     0.8398     0.0511
  8 C      6.1846     6.0000    -0.1846     3.9781     3.7022     0.2758
  9 H      0.8601     1.0000     0.1399     0.9666     0.9206     0.0459
 10 H      0.8752     1.0000     0.1248     0.9651     0.9175     0.0476
 11 H      0.8703     1.0000     0.1297     0.9647     0.9173     0.0474
 12 O      8.5327     8.0000    -0.5327     2.1004     1.6983     0.4021
 13 H      0.6605     1.0000     0.3395     0.9446     0.8954     0.0491
 14 C      6.1641     6.0000    -0.1641     4.0461     3.7671     0.2791
 15 H      0.8794     1.0000     0.1206     0.9627     0.9156     0.0471
 16 H      0.8971     1.0000     0.1029     0.9638     0.9147     0.0491
 17 H      0.9076     1.0000     0.0924     0.9635     0.9137     0.0498

  Mayer bond orders larger than 0.100000
B(  0-O ,  1-H ) :   0.8428 B(  0-O ,  2-C ) :   0.9249 B(  2-C ,  3-H ) :   0.9379 
B(  2-C ,  4-H ) :   0.9390 B(  2-C ,  5-H ) :   0.9384 B(  6-O ,  7-H ) :   0.8275 
B(  6-O ,  8-C ) :   0.8726 B(  8-C ,  9-H ) :   0.9399 B(  8-C , 10-H ) :   0.9330 
B(  8-C , 11-H ) :   0.9398 B( 12-O , 13-H ) :   0.7922 B( 12-O , 14-C ) :   0.9409 
B( 14-C , 15-H ) :   0.9420 B( 14-C , 16-H ) :   0.9381 B( 14-C , 17-H ) :   0.9389 



----------------------------------
MP2 DERIVATIVE INTEGRAL GENERATION
----------------------------------


Input Wavefunction Amplitudes       ... 12meoh.boyd.etal.mol3,7,11-orca.engrad-mp2.def2tzvp.frozencore.mp2tsaa.tmp
Input Correlated Electron Density   ... 12meoh.boyd.etal.mol3,7,11-orca.engrad-mp2.def2tzvp.frozencore.pmp2re
Input Energy Weighted Density       ... 12meoh.boyd.etal.mol3,7,11-orca.engrad-mp2.def2tzvp.frozencore.wmp2.tmp
Input SCF Electron Density          ... 12meoh.boyd.etal.mol3,7,11-orca.engrad-mp2.def2tzvp.frozencore.scfp

One-Electron Terms    ...
                        ... One-Electron Terms done
Prescreening matrices              ... done

Batch handling in the gradient evaluation:
Memory available                      ... 8000.0 MB
Memory per occupied orbital in Q2     ...   10.7 MB
Memory per occupied orbital in Q3     ...    0.1 MB
Total memory requirement per |i>      ...   10.8 MB
Max. Number of orbitals possible      ...    743
Number of orbitals treated per batch  ...     21
Number of batches to be done          ...      1
Batch   0: i=    6 ...    26

---------------------------------------
MP2 TOTAL ENERGY:     -346.529254587 Eh
---------------------------------------

The final MP2 gradient
  0:   0.01226734  -0.02097378   0.00849422
  1:  -0.01492073   0.02206581  -0.01034052
  2:   0.00275222  -0.00102376  -0.00240793
  3:   0.00214413  -0.00289473   0.00326225
  4:  -0.00354346  -0.00027913   0.00101449
  5:   0.00120624   0.00311093  -0.00001011
  6:   0.01216073   0.00386001   0.02321741
  7:  -0.01403988  -0.00096925  -0.02058983
  8:  -0.00068708   0.00893577  -0.00093113
  9:   0.00192787  -0.00187882   0.00409392
 10:   0.00252314  -0.00299802  -0.00195046
 11:  -0.00345953  -0.00250600  -0.00074016
 12:  -0.00586346   0.00820111   0.00058169
 13:   0.00437713  -0.01675610  -0.00958587
 14:   0.00264157   0.00366418   0.00487587
 15:  -0.00096216   0.00264746   0.00125211
 16:   0.00255565   0.00000884  -0.00082631
 17:  -0.00107974  -0.00221452   0.00059036

-----------------------------------
NORM OF THE MP2 GRADIENT:  0.059749
-----------------------------------

-------------------------   --------------------
FINAL SINGLE POINT ENERGY      -346.529254586953
-------------------------   --------------------


                            ***************************************
                            *     ORCA property calculations      *
                            ***************************************

                                    ---------------------
                                    Active property flags
                                    ---------------------
   (+) Dipole Moment


------------------------------------------------------------------------------
                       ORCA ELECTRIC PROPERTIES CALCULATION
------------------------------------------------------------------------------

Dipole Moment Calculation                       ... on
Quadrupole Moment Calculation                   ... off
Polarizability Calculation                      ... off
GBWName                                         ... 12meoh.boyd.etal.mol3,7,11-orca.engrad-mp2.def2tzvp.frozencore.gbw
Electron density file                           ... 12meoh.boyd.etal.mol3,7,11-orca.engrad-mp2.def2tzvp.frozencore.scfp
The origin for moment calculation is the CENTER OF MASS  = ( 2.707968, -2.166279  2.875249)

-------------
DIPOLE MOMENT
-------------
                                X             Y             Z
Electronic contribution:     -1.30098       0.50508      -3.82197
Nuclear contribution   :      1.46240      -1.18666       3.92396
                        -----------------------------------------
Total Dipole Moment    :      0.16142      -0.68158       0.10199
                        -----------------------------------------
Magnitude (a.u.)       :      0.70782
Magnitude (Debye)      :      1.79914



--------------------
Rotational spectrum 
--------------------
 
Rotational constants in cm-1:     0.070621     0.012741     0.011263 
Rotational constants in MHz :  2117.156012   381.968456   337.658005 

 Dipole components along the rotational axes: 
x,y,z [a.u.] :    -0.060296    -0.573255     0.410795 
x,y,z [Debye]:    -0.153260    -1.457099     1.044159 

 

                         *** MP2 UNRELAXED DENSITY ***

------------------------------------------------------------------------------
                       ORCA ELECTRIC PROPERTIES CALCULATION
------------------------------------------------------------------------------

Dipole Moment Calculation                       ... on
Quadrupole Moment Calculation                   ... off
Polarizability Calculation                      ... off
GBWName                                         ... 12meoh.boyd.etal.mol3,7,11-orca.engrad-mp2.def2tzvp.frozencore.gbw
Electron density file                           ... 12meoh.boyd.etal.mol3,7,11-orca.engrad-mp2.def2tzvp.frozencore.pmp2ur
The origin for moment calculation is the CENTER OF MASS  = ( 2.707968, -2.166279  2.875249)

-------------
DIPOLE MOMENT
-------------
                                X             Y             Z
Electronic contribution:     -1.30522       0.50940      -3.83984
Nuclear contribution   :      1.46240      -1.18666       3.92396
                        -----------------------------------------
Total Dipole Moment    :      0.15718      -0.67726       0.08412
                        -----------------------------------------
Magnitude (a.u.)       :      0.70033
Magnitude (Debye)      :      1.78010



--------------------
Rotational spectrum 
--------------------
 
Rotational constants in cm-1:     0.070621     0.012741     0.011263 
Rotational constants in MHz :  2117.156012   381.968456   337.658005 

 Dipole components along the rotational axes: 
x,y,z [a.u.] :    -0.055668    -0.577052     0.392905 
x,y,z [Debye]:    -0.141496    -1.466750     0.998685 

 

                           *** MP2 RELAXED DENSITY ***

------------------------------------------------------------------------------
                       ORCA ELECTRIC PROPERTIES CALCULATION
------------------------------------------------------------------------------

Dipole Moment Calculation                       ... on
Quadrupole Moment Calculation                   ... off
Polarizability Calculation                      ... off
GBWName                                         ... 12meoh.boyd.etal.mol3,7,11-orca.engrad-mp2.def2tzvp.frozencore.gbw
Electron density file                           ... 12meoh.boyd.etal.mol3,7,11-orca.engrad-mp2.def2tzvp.frozencore.pmp2re
The origin for moment calculation is the CENTER OF MASS  = ( 2.707968, -2.166279  2.875249)

-------------
DIPOLE MOMENT
-------------
                                X             Y             Z
Electronic contribution:     -1.31150       0.50865      -3.87148
Nuclear contribution   :      1.46240      -1.18666       3.92396
                        -----------------------------------------
Total Dipole Moment    :      0.15090      -0.67801       0.05248
                        -----------------------------------------
Magnitude (a.u.)       :      0.69658
Magnitude (Debye)      :      1.77056



--------------------
Rotational spectrum 
--------------------
 
Rotational constants in cm-1:     0.070621     0.012741     0.011263 
Rotational constants in MHz :  2117.156012   381.968456   337.658005 

 Dipole components along the rotational axes: 
x,y,z [a.u.] :    -0.047395    -0.591296     0.365159 
x,y,z [Debye]:    -0.120469    -1.502955     0.928161 

 

Timings for individual modules:

Sum of individual times         ...       55.999 sec (=   0.933 min)
GTO integral calculation        ...        1.372 sec (=   0.023 min)   2.5 %
SCF iterations                  ...       13.343 sec (=   0.222 min)  23.8 %
MP2 module                      ...       41.284 sec (=   0.688 min)  73.7 %
                             ****ORCA TERMINATED NORMALLY****
TOTAL RUN TIME: 0 days 0 hours 0 minutes 56 seconds 919 msec
