61
Energy:  -1088.50103995
O   -1.92072762  -0.75800090   1.70872467
H   -2.68562605  -0.60967223   1.15270232
H   -1.93466632  -0.03362685   2.33428026
O   -1.35182768   2.20287405   0.62520426
H   -2.08801233   2.30822915   0.02257310
H   -0.77667172   2.94353885   0.43325864
O   -1.53823605   2.21406400  -3.22224785
H   -1.65014428   2.35951650  -4.16169022
H   -1.45803087   1.26429059  -3.13433058
O   -2.75884588  -2.30316051  -1.70719019
H   -2.02396719  -2.63786946  -1.19322999
H   -3.22487549  -1.72001554  -1.10803228
O    3.52268488  -2.43276003   0.86196292
H    4.21508366  -2.72454779   1.45498541
H    2.80751305  -2.16739328   1.44018571
O   -0.41130612  -2.78232623  -0.31158894
H    0.37085222  -3.22095807  -0.64634601
H   -0.52593247  -3.13613826   0.57040295
O    2.11089172  -3.58994189  -1.18936547
H    2.69541745  -3.30394980  -0.48738965
H    2.48177877  -4.42065836  -1.48699743
O   -1.57880148   1.49880151   3.24861829
H   -2.22761961   2.03223808   3.70765239
H   -1.51233635   1.89618060   2.38034179
O    1.71413747   1.91903194   1.58109495
H    2.40394393   1.39103724   1.17907443
H    1.61541983   1.55521228   2.46093694
O    0.70328623   3.98340075   0.15083319
H    1.17836487   3.40533403   0.74780136
H    1.04008701   4.85809870   0.34499959
O   -3.91723760  -0.31931812  -0.12688427
H   -3.80265573   0.52408361  -0.56480706
H   -4.86484020  -0.45322223  -0.10815332
O    0.90276594   2.13188711  -1.87402664
H    0.12646558   2.26317472  -2.41840992
H    0.91420918   2.88724414  -1.28620297
O   -3.39797142   2.20618903  -1.20747612
H   -4.05741839   2.88426345  -1.35436590
H   -2.82804222   2.25543287  -1.97493139
O    1.40729717  -1.22480338  -2.44078566
H    1.77398195  -2.07361606  -2.19321516
H    2.16873866  -0.69230254  -2.67074560
O   -1.15297654  -0.34036656  -2.55364808
H   -1.76217833  -1.06609624  -2.41792241
H   -0.31768568  -0.76254465  -2.75436354
O    0.96065234   0.65046660   3.91372455
H    1.17984979   0.81064394   4.83161754
H    0.05855492   0.95806526   3.82520810
O    3.22968630   0.84637094  -2.63473544
H    2.47469273   1.41795310  -2.49505582
H    3.76655745   1.31057550  -3.27700902
O    1.33242509  -1.46858334   2.18140778
H    0.66460698  -2.12355358   2.38454517
H    1.26277194  -0.82745583   2.88875196
O    3.10562733   0.17826333   0.03580622
H    3.46447477  -0.69101043   0.21419759
H    3.37869637   0.37118891  -0.86110229
O   -0.82607594  -3.15612573   2.38837016
H   -1.35705888  -3.74947718   2.91961682
H   -1.37844839  -2.38397966   2.26627601
K    0.25350749  -0.06440750  -0.09074700
