61
Energy:  -1097.77490532
O   -2.24452227  -0.68404611   2.66788798
H   -2.68185227  -0.48173477   1.84081818
H   -2.03253650   0.17084573   3.04265966
O   -1.24709292   2.39616453   0.76594269
H   -1.99292672   2.50907879   0.17669388
H   -0.61278783   3.05299954   0.47879001
O   -1.73171441   2.06686709  -3.35455417
H   -1.89646493   2.24704709  -4.28009417
H   -1.70513188   1.11176735  -3.29702409
O   -3.03349092  -2.41947639  -1.56289544
H   -3.57259271  -3.18653143  -1.75584016
H   -2.30724002  -2.76155507  -1.04157630
O    3.13997006  -2.17514770   0.58741937
H    2.49305103  -1.90978050   1.24110726
H    3.60922852  -1.36886529   0.37309012
O   -0.80350851  -2.86691049  -0.05434315
H   -0.01189441  -3.31679794  -0.34960617
H   -0.87800157  -3.09546169   0.87218099
O    1.65320933  -3.77750542  -0.97846940
H    2.06360755  -4.62447787  -1.15294809
H    2.26960835  -3.32645900  -0.40154546
O   -1.34578090   1.82164741   3.42603954
H   -1.91255321   2.42773313   3.90317799
H   -1.36870886   2.13342172   2.52132802
O    1.93137561   1.56288362   1.00959884
H    2.76509124   1.16709506   0.75562738
H    1.86673844   1.40296225   1.95112900
O    0.93561917   3.83537160  -0.09426585
H    1.43607189   3.16898104   0.37658715
H    1.40464663   4.65231917   0.07556278
O   -2.95078542  -0.17805552   0.06777571
H   -3.26933747   0.60578752  -0.37982515
H   -3.21146234  -0.90210879  -0.50145733
O    0.68854401   1.89455515  -2.02235275
H   -0.07727372   2.06608137  -2.57037995
H    0.78857865   2.68705200  -1.49493105
O   -3.27932454   2.33263202  -1.10389357
H   -4.05883076   2.86686270  -1.25620733
H   -2.82151073   2.33097645  -1.94450979
O    1.09938637  -1.38995635  -2.22862003
H    1.39987708  -2.25876195  -1.96194792
H    1.90097382  -0.91684387  -2.45190010
O   -1.43349482  -0.54686699  -2.78923710
H   -2.03452925  -1.25326115  -2.55260079
H   -0.57392986  -0.96619491  -2.82853122
O    1.26249921   0.97988146   3.64557313
H    1.62260200   1.12323593   4.52079157
H    0.36617527   1.31174761   3.69753557
O    3.02585317   0.57075788  -2.59335515
H    2.25111971   1.12186430  -2.48244252
H    3.37642038   0.81890967  -3.44878204
O    1.04157537  -1.27526156   2.08129348
H    0.45258023  -1.93673837   2.44428795
H    1.13148717  -0.62549821   2.77839842
O    4.12981961   0.32006768  -0.09002213
H    5.07495763   0.47152284  -0.09272356
H    3.86915147   0.41366901  -1.00627687
O   -0.96304798  -3.05407523   2.69732585
H   -1.25053538  -3.66120662   3.37921609
H   -1.52930330  -2.28952441   2.80243921
K   -0.16857430  -0.08283516  -0.11176646
