
                                 *****************
                                 * O   R   C   A *
                                 *****************

           --- An Ab Initio, DFT and Semiempirical electronic structure package ---

                  #######################################################
                  #                        -***-                        #
                  #          Department of theory and spectroscopy      #
                  #               Directorship: Frank Neese             #
                  #        Max Planck Institute fuer Kohlenforschung    #
                  #                Kaiser Wilhelm Platz 1               #
                  #                 D-45470 Muelheim/Ruhr               #
                  #                      Germany                        #
                  #                                                     #
                  #                  All rights reserved                #
                  #                        -***-                        #
                  #######################################################


                         Program Version 4.2.0 -  RELEASE  -


 With contributions from (in alphabetic order):
   Daniel Aravena         : Magnetic Suceptibility
   Michael Atanasov       : Ab Initio Ligand Field Theory (pilot matlab implementation)
   Alexander A. Auer      : GIAO ZORA, VPT2
   Ute Becker             : Parallelization
   Giovanni Bistoni       : ED, misc. LED, open-shell LED, HFLED
   Martin Brehm           : Molecular dynamics
   Dmytro Bykov           : SCF Hessian
   Vijay G. Chilkuri      : MRCI spin determinant printing, contributions to CSF-ICE
   Dipayan Datta          : RHF DLPNO-CCSD density
   Achintya Kumar Dutta   : EOM-CC, STEOM-CC
   Dmitry Ganyushin       : Spin-Orbit,Spin-Spin,Magnetic field MRCI
   Miquel Garcia          : C-PCM Hessian, Gaussian charge scheme
   Yang Guo               : DLPNO-NEVPT2, CIM, IAO-localization
   Andreas Hansen         : Spin unrestricted coupled pair/coupled cluster methods
   Benjamin Helmich-Paris : CASSCF linear response (MC-RPA)
   Lee Huntington         : MR-EOM, pCC
   Robert Izsak           : Overlap fitted RIJCOSX, COSX-SCS-MP3, EOM
   Christian Kollmar      : KDIIS, OOCD, Brueckner-CCSD(T), CCSD density
   Simone Kossmann        : Meta GGA functionals, TD-DFT gradient, OOMP2, MP2 Hessian
   Martin Krupicka        : AUTO-CI
   Lucas Lang             : DCDCAS
   Dagmar Lenk            : GEPOL surface, SMD
   Dimitrios Liakos       : Extrapolation schemes; Compound Job, initial MDCI parallelization
   Dimitrios Manganas     : Further ROCIS development; embedding schemes
   Dimitrios Pantazis     : SARC Basis sets
   Taras Petrenko         : DFT Hessian,TD-DFT gradient, ASA, ECA, R-Raman, ABS, FL, XAS/XES, NRVS
   Peter Pinski           : DLPNO-MP2, DLPNO-MP2 Gradient
   Christoph Reimann      : Effective Core Potentials
   Marius Retegan         : Local ZFS, SOC
   Christoph Riplinger    : Optimizer, TS searches, QM/MM, DLPNO-CCSD(T), (RO)-DLPNO pert. Triples
   Tobias Risthaus        : Range-separated hybrids, TD-DFT gradient, RPA, STAB
   Michael Roemelt        : Original ROCIS implementation
   Masaaki Saitow         : Open-shell DLPNO-CCSD energy and density
   Barbara Sandhoefer     : DKH picture change effects
   Avijit Sen             : IP-ROCIS
   Kantharuban Sivalingam : CASSCF convergence, NEVPT2, FIC-MRCI
   Bernardo de Souza      : ESD, SOC TD-DFT
   Georgi Stoychev        : AutoAux, RI-MP2 NMR
   Willem Van den Heuvel  : Paramagnetic NMR
   Boris Wezisla          : Elementary symmetry handling
   Frank Wennmohs         : Technical directorship


 We gratefully acknowledge several colleagues who have allowed us to
 interface, adapt or use parts of their codes:
   Stefan Grimme, W. Hujo, H. Kruse,             : VdW corrections, initial TS optimization,
                  C. Bannwarth                     DFT functionals, gCP, sTDA/sTD-DF
   Ed Valeev, F. Pavosevic, A. Kumar             : LibInt (2-el integral package), F12 methods
   Garnet Chan, S. Sharma, J. Yang, R. Olivares  : DMRG
   Ulf Ekstrom                                   : XCFun DFT Library
   Mihaly Kallay                                 : mrcc  (arbitrary order and MRCC methods)
   Andreas Klamt, Michael Diedenhofen            : otool_cosmo (COSMO solvation model)
   Jiri Pittner, Ondrej Demel                    : Mk-CCSD
   Frank Weinhold                                : gennbo (NPA and NBO analysis)
   Christopher J. Cramer and Donald G. Truhlar   : smd solvation model
   Lars Goerigk                                  : TD-DFT with DH, B97 family of functionals
   V. Asgeirsson, H. Jonsson                     : NEB implementation
   FAccTs GmbH                                   : IRC, NEB, NEB-TS, Multilevel, MM, QM/MM, CI optimization
   S Lehtola, MJT Oliveira, MAL Marques          : LibXC Library


 Your calculation uses the libint2 library for the computation of 2-el integrals
 For citations please refer to: http://libint.valeyev.net

 Your ORCA version has been built with support for libXC version: 4.2.3
 For citations please refer to: https://tddft.org/programs/libxc/

 This ORCA versions uses:
   CBLAS   interface :  Fast vector & matrix operations
   LAPACKE interface :  Fast linear algebra routines
   SCALAPACK package :  Parallel linear algebra routines


----- Orbital basis set information -----
Your calculation utilizes the basis: def2-TZVP
   F. Weigend and R. Ahlrichs, Phys. Chem. Chem. Phys. 7, 3297 (2005).

================================================================================
                                        WARNINGS
                       Please study these warnings very carefully!
================================================================================


WARNING: The frozen-core approximation for MP2-gradient calculations is turned on by default.

INFO   : the flag for use of LIBINT has been found!

================================================================================
                                       INPUT FILE
================================================================================
NAME = 12h2o.su.etal.mol0,1,5,6,7,9-orca.engrad-mp2.def2tzvp.frozencore.inp
|  1> # 12h2o.su.etal.mol0,1,5,6,7,9
|  2> ! MP2 def2-TZVP EnGrad TightSCF
|  3> 
|  4> %pal
|  5>     nprocs 6
|  6> end
|  7> 
|  8> %maxcore 8000
|  9> 
| 10> %scf
| 11>     ConvForced true
| 12> end
| 13> 
| 14> *xyz 0 1
| 15> O   1.794470000   0.923410000   2.768350000
| 16> H   2.338250000   1.359750000   3.430940000
| 17> H   0.879480000   1.303000000   2.865760000
| 18> O  -1.794470000  -0.923410000   2.768350000
| 19> H  -2.338250000  -1.359750000   3.430940000
| 20> H  -0.879480000  -1.303000000   2.865760000
| 21> O   0.885520000  -1.737840000   0.052730000
| 22> H   1.284090000  -0.839590000   0.017130000
| 23> H   1.032320000  -2.090180000  -0.841890000
| 24> O   1.737840000   0.885520000  -0.052730000
| 25> H   2.090180000   1.032320000   0.841890000
| 26> H   0.839590000   1.284090000  -0.017130000
| 27> O  -1.737840000  -0.885520000  -0.052730000
| 28> H  -2.090180000  -1.032320000   0.841890000
| 29> H  -0.839590000  -1.284090000  -0.017130000
| 30> O   0.741530000  -1.752130000   2.896280000
| 31> H   0.920500000  -2.036450000   1.984040000
| 32> H   1.242140000  -0.921210000   2.984230000
| 33> *
| 34> 
| 35>                          ****END OF INPUT****
================================================================================

                     *******************************
                     * Energy+Gradient Calculation *
                     *******************************

---------------------------------
CARTESIAN COORDINATES (ANGSTROEM)
---------------------------------
  O      1.794470    0.923410    2.768350
  H      2.338250    1.359750    3.430940
  H      0.879480    1.303000    2.865760
  O     -1.794470   -0.923410    2.768350
  H     -2.338250   -1.359750    3.430940
  H     -0.879480   -1.303000    2.865760
  O      0.885520   -1.737840    0.052730
  H      1.284090   -0.839590    0.017130
  H      1.032320   -2.090180   -0.841890
  O      1.737840    0.885520   -0.052730
  H      2.090180    1.032320    0.841890
  H      0.839590    1.284090   -0.017130
  O     -1.737840   -0.885520   -0.052730
  H     -2.090180   -1.032320    0.841890
  H     -0.839590   -1.284090   -0.017130
  O      0.741530   -1.752130    2.896280
  H      0.920500   -2.036450    1.984040
  H      1.242140   -0.921210    2.984230

----------------------------
CARTESIAN COORDINATES (A.U.)
----------------------------
  NO LB      ZA    FRAG     MASS         X           Y           Z
   0 O     8.0000    0    15.999    3.391057    1.744992    5.231423
   1 H     1.0000    0     1.008    4.418652    2.569555    6.483537
   2 H     1.0000    0     1.008    1.661976    2.462313    5.415502
   3 O     8.0000    0    15.999   -3.391057   -1.744992    5.231423
   4 H     1.0000    0     1.008   -4.418652   -2.569555    6.483537
   5 H     1.0000    0     1.008   -1.661976   -2.462313    5.415502
   6 O     8.0000    0    15.999    1.673390   -3.284042    0.099645
   7 H     1.0000    0     1.008    2.426578   -1.586595    0.032371
   8 H     1.0000    0     1.008    1.950802   -3.949868   -1.590942
   9 O     8.0000    0    15.999    3.284042    1.673390   -0.099645
  10 H     1.0000    0     1.008    3.949868    1.950802    1.590942
  11 H     1.0000    0     1.008    1.586595    2.426578   -0.032371
  12 O     8.0000    0    15.999   -3.284042   -1.673390   -0.099645
  13 H     1.0000    0     1.008   -3.949868   -1.950802    1.590942
  14 H     1.0000    0     1.008   -1.586595   -2.426578   -0.032371
  15 O     8.0000    0    15.999    1.401289   -3.311046    5.473176
  16 H     1.0000    0     1.008    1.739493   -3.848333    3.749292
  17 H     1.0000    0     1.008    2.347304   -1.740835    5.639377

--------------------------------
INTERNAL COORDINATES (ANGSTROEM)
--------------------------------
 O      0   0   0     0.000000000000     0.00000000     0.00000000
 H      1   0   0     0.961828878803     0.00000000     0.00000000
 H      1   2   0     0.995381322057   106.21731035     0.00000000
 O      3   1   2     3.480861789658   117.35405144   223.81249033
 H      4   3   1     0.961828878803   134.84484566    98.22461471
 H      4   3   1     0.995381322057    62.29205096    12.66575463
 O      6   4   3     3.349245975813   116.85538783   276.41377787
 H      7   6   4     0.983350632989    97.20424340    87.67157074
 H      7   6   4     0.972645187106   154.03893681   304.15813038
 O      8   7   6     1.785153773264   170.81379649   301.36914736
 H     10   8   7     0.972645187106   101.65007623   109.44492584
 H     10   8   7     0.983350632989    99.09581498     3.33484705
 O      7   6   4     2.760360281485    59.41411630   355.12427997
 H     13   7   6     0.972645187106   105.22009255   347.26752702
 H     13   7   6     0.983350632989     5.92595386   271.62167973
 O      6   4   3     1.682356278379   171.61043709   328.33166207
 H     16   6   4     0.972136791249   103.79460456   289.35412162
 H     16   6   4     0.974050112161   105.61118924    38.30604821

---------------------------
INTERNAL COORDINATES (A.U.)
---------------------------
 O      0   0   0     0.000000000000     0.00000000     0.00000000
 H      1   0   0     1.817593168635     0.00000000     0.00000000
 H      1   2   0     1.880998097508   106.21731035     0.00000000
 O      3   1   2     6.577875492484   117.35405144   223.81249033
 H      4   3   1     1.817593168635   134.84484566    98.22461471
 H      4   3   1     1.880998097508    62.29205096    12.66575463
 O      6   4   3     6.329157649425   116.85538783   276.41377787
 H      7   6   4     1.858263389967    97.20424340    87.67157074
 H      7   6   4     1.838033029106   154.03893681   304.15813038
 O      8   7   6     3.373451738406   170.81379649   301.36914736
 H     10   8   7     1.838033029106   101.65007623   109.44492584
 H     10   8   7     1.858263389967    99.09581498     3.33484705
 O      7   6   4     5.216324962960    59.41411630   355.12427997
 H     13   7   6     1.838033029106   105.22009255   347.26752702
 H     13   7   6     1.858263389967     5.92595386   271.62167973
 O      6   4   3     3.179192625819   171.61043709   328.33166207
 H     16   6   4     1.837072300170   103.79460456   289.35412162
 H     16   6   4     1.840687952699   105.61118924    38.30604821

---------------------
BASIS SET INFORMATION
---------------------
There are 2 groups of distinct atoms

 Group   1 Type O   : 11s6p2d1f contracted to 5s3p2d1f pattern {62111/411/11/1}
 Group   2 Type H   : 5s1p contracted to 3s1p pattern {311/1}

Atom   0O    basis set group =>   1
Atom   1H    basis set group =>   2
Atom   2H    basis set group =>   2
Atom   3O    basis set group =>   1
Atom   4H    basis set group =>   2
Atom   5H    basis set group =>   2
Atom   6O    basis set group =>   1
Atom   7H    basis set group =>   2
Atom   8H    basis set group =>   2
Atom   9O    basis set group =>   1
Atom  10H    basis set group =>   2
Atom  11H    basis set group =>   2
Atom  12O    basis set group =>   1
Atom  13H    basis set group =>   2
Atom  14H    basis set group =>   2
Atom  15O    basis set group =>   1
Atom  16H    basis set group =>   2
Atom  17H    basis set group =>   2


           ************************************************************
           *        Program running with 6 parallel MPI-processes     *
           *              working on a common directory               *
           ************************************************************
------------------------------------------------------------------------------
                           ORCA GTO INTEGRAL CALCULATION
------------------------------------------------------------------------------

                         BASIS SET STATISTICS AND STARTUP INFO

 # of primitive gaussian shells          ...  192
 # of primitive gaussian functions       ...  372
 # of contracted shells                  ...  114
 # of contracted basis functions         ...  258
 Highest angular momentum                ...    3
 Maximum contraction depth               ...    6
 Integral package used                   ... LIBINT
 Integral threshhold            Thresh   ...  2.500e-11
 Primitive cut-off              TCut     ...  2.500e-12


------------------------------ INTEGRAL EVALUATION ----------------------------


 * One electron integrals 
 Pre-screening matrix                    ... done
 Shell pair data                         ... done (   0.002 sec)



           ************************************************************
           *        Program running with 6 parallel MPI-processes     *
           *              working on a common directory               *
           ************************************************************
-------------------------------------------------------------------------------
                                 ORCA SCF
-------------------------------------------------------------------------------

------------
SCF SETTINGS
------------
Hamiltonian:
 Ab initio Hamiltonian  Method          .... Hartree-Fock(GTOs)


General Settings:
 Integral files         IntName         .... 12h2o.su.etal.mol0,1,5,6,7,9-orca.engrad-mp2.def2tzvp.frozencore
 Hartree-Fock type      HFTyp           .... RHF
 Total Charge           Charge          ....    0
 Multiplicity           Mult            ....    1
 Number of Electrons    NEL             ....   60
 Basis Dimension        Dim             ....  258
 Nuclear Repulsion      ENuc            ....    290.5872908220 Eh

Convergence Acceleration:
 DIIS                   CNVDIIS         .... on
   Start iteration      DIISMaxIt       ....    12
   Startup error        DIISStart       ....  0.200000
   # of expansion vecs  DIISMaxEq       ....     5
   Bias factor          DIISBfac        ....   1.050
   Max. coefficient     DIISMaxC        ....  10.000
 Newton-Raphson         CNVNR           .... off
 SOSCF                  CNVSOSCF        .... on
   Start iteration      SOSCFMaxIt      ....   150
   Startup grad/error   SOSCFStart      ....  0.003300
 Level Shifting         CNVShift        .... on
   Level shift para.    LevelShift      ....    0.2500
   Turn off err/grad.   ShiftErr        ....    0.0010
 Zerner damping         CNVZerner       .... off
 Static damping         CNVDamp         .... on
   Fraction old density DampFac         ....    0.7000
   Max. Damping (<1)    DampMax         ....    0.9800
   Min. Damping (>=0)   DampMin         ....    0.0000
   Turn off err/grad.   DampErr         ....    0.1000
 Fernandez-Rico         CNVRico         .... off

SCF Procedure:
 Maximum # iterations   MaxIter         ....   125
 SCF integral mode      SCFMode         .... Direct
   Integral package                     .... LIBINT
 Reset frequency        DirectResetFreq ....    20
 Integral Threshold     Thresh          ....  2.500e-11 Eh
 Primitive CutOff       TCut            ....  2.500e-12 Eh

Convergence Tolerance:
 Convergence Check Mode ConvCheckMode   .... Total+1el-Energy
 Convergence forced     ConvForced      .... 1
 Energy Change          TolE            ....  1.000e-08 Eh
 1-El. energy change                    ....  1.000e-05 Eh
 Orbital Gradient       TolG            ....  1.000e-05
 Orbital Rotation angle TolX            ....  1.000e-05
 DIIS Error             TolErr          ....  5.000e-07


Diagonalization of the overlap matrix:
Smallest eigenvalue                        ... 3.591e-03
Time for diagonalization                   ...    0.010 sec
Threshold for overlap eigenvalues          ... 1.000e-08
Number of eigenvalues below threshold      ... 0
Time for construction of square roots      ...    0.005 sec
Total time needed                          ...    0.015 sec

-------------------
DFT GRID GENERATION
-------------------

General Integration Accuracy     IntAcc      ...  4.340
Radial Grid Type                 RadialGrid  ... Gauss-Chebyshev
Angular Grid (max. acc.)         AngularGrid ... Lebedev-110
Angular grid pruning method      GridPruning ... 3 (G Style)
Weight generation scheme         WeightScheme... Becke
Basis function cutoff            BFCut       ...    1.0000e-11
Integration weight cutoff        WCut        ...    1.0000e-14
Grids for H and He will be reduced by one unit

# of grid points (after initial pruning)     ...  19824 (   0.0 sec)
# of grid points (after weights+screening)   ...  18594 (   0.0 sec)
nearest neighbour list constructed           ...    0.0 sec
Grid point re-assignment to atoms done       ...    0.0 sec
Grid point division into batches done        ...    0.0 sec
Reduced shell lists constructed in    0.0 sec

Total number of grid points                  ...    18594
Total number of batches                      ...      301
Average number of points per batch           ...       61
Average number of grid points per atom       ...     1033
Average number of shells per batch           ...    60.77 (53.31%)
Average number of basis functions per batch  ...   122.35 (47.42%)
Average number of large shells per batch     ...    43.29 (71.23%)
Average number of large basis fcns per batch ...    83.94 (68.61%)
Maximum spatial batch extension              ...  14.53, 16.69, 13.47 au
Average spatial batch extension              ...   0.62,  0.68,  0.61 au

Time for grid setup =    0.057 sec

------------------------------
INITIAL GUESS: MODEL POTENTIAL
------------------------------
Loading Hartree-Fock densities                     ... done
Calculating cut-offs                               ... done
Setting up the integral package                    ... done
Initializing the effective Hamiltonian             ... done
Starting the Coulomb interaction                   ... done (   0.0 sec)
Reading the grid                                   ... done
Mapping shells                                     ... done
Starting the XC term evaluation                    ... done (   0.0 sec)
Transforming the Hamiltonian                       ... done (   0.0 sec)
Diagonalizing the Hamiltonian                      ... done (   0.0 sec)
Back transforming the eigenvectors                 ... done (   0.0 sec)
Now organizing SCF variables                       ... done
                      ------------------
                      INITIAL GUESS DONE (   0.2 sec)
                      ------------------
--------------
SCF ITERATIONS
--------------
ITER       Energy         Delta-E        Max-DP      RMS-DP      [F,P]     Damp
               ***  Starting incremental Fock matrix formation  ***
  0   -455.8699098609   0.000000000000 0.04471521  0.00095660  0.3434657 0.7000
  1   -456.0689876811  -0.199077820207 0.02965477  0.00066520  0.2167413 0.7000
                               ***Turning on DIIS***
  2   -456.1751269786  -0.106139297529 0.01638022  0.00037506  0.1633678 0.7000
  3   -457.1604824634  -0.985355484767 0.00747459  0.00017559  0.1217822 0.7000
  4   -456.9629341599   0.197548303506 0.01698605  0.00040973  0.0861676 0.0000
  5   -456.4186168242   0.544317335693 0.00241034  0.00006676  0.0051863 0.0000
                      *** Initiating the SOSCF procedure ***
                           *** Shutting down DIIS ***
                      *** Re-Reading the Fockian *** 
                      *** Removing any level shift *** 
ITER      Energy       Delta-E        Grad      Rot      Max-DP    RMS-DP
  6   -456.38983963   0.0287771981  0.000928  0.000928  0.001495  0.000042
               *** Restarting incremental Fock matrix formation ***
  7   -456.38108288   0.0087567497  0.000292  0.000396  0.000680  0.000018
  8   -456.38109198  -0.0000091020  0.000156  0.000349  0.000552  0.000015
  9   -456.38109417  -0.0000021906  0.000056  0.000044  0.000097  0.000003
 10   -456.38109434  -0.0000001740  0.000012  0.000009  0.000024  0.000001
                  ***Gradient check signals convergence***
              ***Rediagonalizing the Fockian in SOSCF/NRSCF***

               *****************************************************
               *                     SUCCESS                       *
               *           SCF CONVERGED AFTER  11 CYCLES          *
               *****************************************************


----------------
TOTAL SCF ENERGY
----------------

Total Energy       :         -456.38109435 Eh          -12418.76093 eV

Components:
Nuclear Repulsion  :          290.58729082 Eh            7907.28218 eV
Electronic Energy  :         -746.96838517 Eh          -20326.04312 eV
One Electron Energy:        -1209.29365867 Eh          -32906.55339 eV
Two Electron Energy:          462.32527350 Eh           12580.51027 eV

Virial components:
Potential Energy   :         -912.19410965 Eh          -24822.06365 eV
Kinetic Energy     :          455.81301530 Eh           12403.30272 eV
Virial Ratio       :            2.00124630


---------------
SCF CONVERGENCE
---------------

  Last Energy change         ...   -5.1612e-09  Tolerance :   1.0000e-08
  Last MAX-Density change    ...    5.5234e-06  Tolerance :   1.0000e-07
  Last RMS-Density change    ...    1.3709e-07  Tolerance :   5.0000e-09
  Last Orbital Gradient      ...    2.0846e-06  Tolerance :   1.0000e-05
  Last Orbital Rotation      ...    2.1684e-06  Tolerance :   1.0000e-05

             **** THE GBW FILE WAS UPDATED (12h2o.su.etal.mol0,1,5,6,7,9-orca.engrad-mp2.def2tzvp.frozencore.gbw) ****
             **** DENSITY FILE WAS UPDATED (12h2o.su.etal.mol0,1,5,6,7,9-orca.engrad-mp2.def2tzvp.frozencore.scfp) ****
             **** ENERGY FILE WAS UPDATED (12h2o.su.etal.mol0,1,5,6,7,9-orca.engrad-mp2.def2tzvp.frozencore.en.tmp) ****
             **** THE GBW FILE WAS UPDATED (12h2o.su.etal.mol0,1,5,6,7,9-orca.engrad-mp2.def2tzvp.frozencore.gbw) ****
             **** DENSITY FILE WAS UPDATED (12h2o.su.etal.mol0,1,5,6,7,9-orca.engrad-mp2.def2tzvp.frozencore.scfp) ****
----------------
ORBITAL ENERGIES
----------------

  NO   OCC          E(Eh)            E(eV) 
   0   2.0000     -20.630452      -561.3831 
   1   2.0000     -20.583458      -560.1044 
   2   2.0000     -20.572130      -559.7961 
   3   2.0000     -20.557263      -559.3916 
   4   2.0000     -20.532300      -558.7123 
   5   2.0000     -20.490048      -557.5626 
   6   2.0000      -1.411068       -38.3971 
   7   2.0000      -1.371896       -37.3312 
   8   2.0000      -1.357635       -36.9431 
   9   2.0000      -1.347493       -36.6671 
  10   2.0000      -1.315773       -35.8040 
  11   2.0000      -1.274244       -34.6739 
  12   2.0000      -0.776321       -21.1248 
  13   2.0000      -0.731376       -19.9017 
  14   2.0000      -0.729400       -19.8480 
  15   2.0000      -0.715909       -19.4809 
  16   2.0000      -0.699491       -19.0341 
  17   2.0000      -0.659572       -17.9479 
  18   2.0000      -0.653527       -17.7834 
  19   2.0000      -0.620056       -16.8726 
  20   2.0000      -0.611730       -16.6460 
  21   2.0000      -0.580047       -15.7839 
  22   2.0000      -0.570164       -15.5149 
  23   2.0000      -0.557650       -15.1744 
  24   2.0000      -0.535046       -14.5593 
  25   2.0000      -0.522992       -14.2313 
  26   2.0000      -0.499550       -13.5934 
  27   2.0000      -0.497454       -13.5364 
  28   2.0000      -0.476446       -12.9648 
  29   2.0000      -0.441197       -12.0056 
  30   0.0000       0.083560         2.2738 
  31   0.0000       0.136365         3.7107 
  32   0.0000       0.155048         4.2191 
  33   0.0000       0.162825         4.4307 
  34   0.0000       0.189830         5.1655 
  35   0.0000       0.221920         6.0387 
  36   0.0000       0.242171         6.5898 
  37   0.0000       0.274144         7.4598 
  38   0.0000       0.297703         8.1009 
  39   0.0000       0.322593         8.7782 
  40   0.0000       0.345799         9.4097 
  41   0.0000       0.353176         9.6104 
  42   0.0000       0.420859        11.4522 
  43   0.0000       0.470508        12.8032 
  44   0.0000       0.486798        13.2464 
  45   0.0000       0.491611        13.3774 
  46   0.0000       0.524254        14.2657 
  47   0.0000       0.535608        14.5746 
  48   0.0000       0.546253        14.8643 
  49   0.0000       0.558479        15.1970 
  50   0.0000       0.564667        15.3654 
  51   0.0000       0.580365        15.7925 
  52   0.0000       0.584873        15.9152 
  53   0.0000       0.609751        16.5922 
  54   0.0000       0.629855        17.1392 
  55   0.0000       0.636437        17.3183 
  56   0.0000       0.647547        17.6206 
  57   0.0000       0.679128        18.4800 
  58   0.0000       0.697190        18.9715 
  59   0.0000       0.701427        19.0868 
  60   0.0000       0.711225        19.3534 
  61   0.0000       0.726725        19.7752 
  62   0.0000       0.729758        19.8577 
  63   0.0000       0.764940        20.8151 
  64   0.0000       0.785599        21.3772 
  65   0.0000       0.794515        21.6198 
  66   0.0000       0.818256        22.2659 
  67   0.0000       0.832877        22.6637 
  68   0.0000       0.846195        23.0261 
  69   0.0000       0.871852        23.7243 
  70   0.0000       0.905034        24.6272 
  71   0.0000       0.915820        24.9207 
  72   0.0000       0.946850        25.7651 
  73   0.0000       0.986607        26.8470 
  74   0.0000       1.022855        27.8333 
  75   0.0000       1.039304        28.2809 
  76   0.0000       1.103125        30.0175 
  77   0.0000       1.170915        31.8622 
  78   0.0000       1.346780        36.6478 
  79   0.0000       1.353660        36.8350 
  80   0.0000       1.382552        37.6212 
  81   0.0000       1.388924        37.7946 
  82   0.0000       1.399720        38.0883 
  83   0.0000       1.435148        39.0524 
  84   0.0000       1.443803        39.2879 
  85   0.0000       1.462611        39.7997 
  86   0.0000       1.481256        40.3070 
  87   0.0000       1.491325        40.5810 
  88   0.0000       1.524481        41.4832 
  89   0.0000       1.541708        41.9520 
  90   0.0000       1.565077        42.5879 
  91   0.0000       1.582881        43.0724 
  92   0.0000       1.602067        43.5945 
  93   0.0000       1.617422        44.0123 
  94   0.0000       1.648831        44.8670 
  95   0.0000       1.694023        46.0967 
  96   0.0000       1.777476        48.3676 
  97   0.0000       1.820407        49.5358 
  98   0.0000       1.825742        49.6810 
  99   0.0000       1.872630        50.9568 
 100   0.0000       1.893576        51.5268 
 101   0.0000       1.912105        52.0310 
 102   0.0000       1.931200        52.5506 
 103   0.0000       1.947693        52.9994 
 104   0.0000       1.967337        53.5340 
 105   0.0000       1.988040        54.0973 
 106   0.0000       2.000523        54.4370 
 107   0.0000       2.048230        55.7352 
 108   0.0000       2.073536        56.4238 
 109   0.0000       2.086444        56.7750 
 110   0.0000       2.099290        57.1246 
 111   0.0000       2.168446        59.0064 
 112   0.0000       2.187258        59.5183 
 113   0.0000       2.209933        60.1353 
 114   0.0000       2.230732        60.7013 
 115   0.0000       2.272251        61.8311 
 116   0.0000       2.285227        62.1842 
 117   0.0000       2.300708        62.6054 
 118   0.0000       2.328413        63.3593 
 119   0.0000       2.338312        63.6287 
 120   0.0000       2.349004        63.9197 
 121   0.0000       2.369794        64.4854 
 122   0.0000       2.387345        64.9630 
 123   0.0000       2.412600        65.6502 
 124   0.0000       2.424667        65.9785 
 125   0.0000       2.450237        66.6743 
 126   0.0000       2.466516        67.1173 
 127   0.0000       2.490025        67.7570 
 128   0.0000       2.528112        68.7934 
 129   0.0000       2.542708        69.1906 
 130   0.0000       2.558319        69.6154 
 131   0.0000       2.592116        70.5351 
 132   0.0000       2.607444        70.9522 
 133   0.0000       2.621910        71.3458 
 134   0.0000       2.630013        71.5663 
 135   0.0000       2.645659        71.9921 
 136   0.0000       2.658063        72.3296 
 137   0.0000       2.682312        72.9894 
 138   0.0000       2.693426        73.2919 
 139   0.0000       2.701613        73.5146 
 140   0.0000       2.721160        74.0465 
 141   0.0000       2.782022        75.7027 
 142   0.0000       2.791354        75.9566 
 143   0.0000       2.808676        76.4280 
 144   0.0000       2.866033        77.9887 
 145   0.0000       2.906576        79.0920 
 146   0.0000       2.930781        79.7506 
 147   0.0000       2.953260        80.3623 
 148   0.0000       2.971549        80.8599 
 149   0.0000       2.992337        81.4256 
 150   0.0000       3.004915        81.7679 
 151   0.0000       3.018710        82.1433 
 152   0.0000       3.059996        83.2667 
 153   0.0000       3.063940        83.3741 
 154   0.0000       3.088020        84.0293 
 155   0.0000       3.109568        84.6156 
 156   0.0000       3.137929        85.3874 
 157   0.0000       3.152347        85.7797 
 158   0.0000       3.192829        86.8813 
 159   0.0000       3.238108        88.1134 
 160   0.0000       3.273108        89.0658 
 161   0.0000       3.304402        89.9174 
 162   0.0000       3.324180        90.4555 
 163   0.0000       3.335330        90.7589 
 164   0.0000       3.371539        91.7442 
 165   0.0000       3.432350        93.3990 
 166   0.0000       3.487923        94.9112 
 167   0.0000       3.553712        96.7014 
 168   0.0000       3.955419       107.6324 
 169   0.0000       4.033410       109.7547 
 170   0.0000       4.092077       111.3511 
 171   0.0000       4.102900       111.6456 
 172   0.0000       4.138654       112.6185 
 173   0.0000       4.176353       113.6444 
 174   0.0000       4.254398       115.7681 
 175   0.0000       4.288648       116.7000 
 176   0.0000       4.322762       117.6283 
 177   0.0000       4.351920       118.4218 
 178   0.0000       4.398688       119.6944 
 179   0.0000       4.420618       120.2911 
 180   0.0000       5.483209       149.2057 
 181   0.0000       5.521019       150.2346 
 182   0.0000       5.529758       150.4724 
 183   0.0000       5.544275       150.8674 
 184   0.0000       5.575927       151.7287 
 185   0.0000       5.577177       151.7627 
 186   0.0000       5.612164       152.7148 
 187   0.0000       5.651019       153.7720 
 188   0.0000       5.657932       153.9602 
 189   0.0000       5.664504       154.1390 
 190   0.0000       5.693745       154.9347 
 191   0.0000       5.722158       155.7078 
 192   0.0000       5.746626       156.3736 
 193   0.0000       5.784902       157.4152 
 194   0.0000       5.793506       157.6493 
 195   0.0000       5.817285       158.2964 
 196   0.0000       5.831233       158.6759 
 197   0.0000       5.836518       158.8197 
 198   0.0000       5.842277       158.9764 
 199   0.0000       5.851996       159.2409 
 200   0.0000       5.855251       159.3295 
 201   0.0000       5.869695       159.7225 
 202   0.0000       5.870805       159.7527 
 203   0.0000       5.880023       160.0036 
 204   0.0000       5.889080       160.2500 
 205   0.0000       5.897014       160.4659 
 206   0.0000       5.908146       160.7688 
 207   0.0000       5.936900       161.5513 
 208   0.0000       5.956607       162.0875 
 209   0.0000       5.970324       162.4608 
 210   0.0000       6.365537       173.2151 
 211   0.0000       6.444249       175.3569 
 212   0.0000       6.459154       175.7625 
 213   0.0000       6.489346       176.5841 
 214   0.0000       6.501422       176.9127 
 215   0.0000       6.533451       177.7842 
 216   0.0000       6.644511       180.8063 
 217   0.0000       6.675021       181.6366 
 218   0.0000       6.702184       182.3757 
 219   0.0000       6.737750       183.3435 
 220   0.0000       6.742792       183.4807 
 221   0.0000       6.784575       184.6177 
 222   0.0000       6.822401       185.6470 
 223   0.0000       6.838630       186.0886 
 224   0.0000       6.852439       186.4643 
 225   0.0000       6.866367       186.8434 
 226   0.0000       6.876918       187.1305 
 227   0.0000       6.886789       187.3990 
 228   0.0000       6.897897       187.7013 
 229   0.0000       6.911816       188.0801 
 230   0.0000       6.925484       188.4520 
 231   0.0000       6.930453       188.5872 
 232   0.0000       6.950286       189.1269 
 233   0.0000       6.969567       189.6516 
 234   0.0000       6.975361       189.8092 
 235   0.0000       7.003847       190.5844 
 236   0.0000       7.017441       190.9543 
 237   0.0000       7.040590       191.5842 
 238   0.0000       7.053424       191.9334 
 239   0.0000       7.122265       193.8067 
 240   0.0000       7.327992       199.4048 
 241   0.0000       7.369186       200.5258 
 242   0.0000       7.425816       202.0667 
 243   0.0000       7.446129       202.6195 
 244   0.0000       7.448216       202.6762 
 245   0.0000       7.510208       204.3631 
 246   0.0000       7.520727       204.6494 
 247   0.0000       7.534576       205.0262 
 248   0.0000       7.575735       206.1462 
 249   0.0000       7.581831       206.3121 
 250   0.0000       7.587883       206.4768 
 251   0.0000       7.665753       208.5957 
 252   0.0000      44.875325      1221.1197 
 253   0.0000      44.969705      1223.6879 
 254   0.0000      45.001449      1224.5517 
 255   0.0000      45.009119      1224.7604 
 256   0.0000      45.061754      1226.1927 
 257   0.0000      45.141451      1228.3613 

                    ********************************
                    * MULLIKEN POPULATION ANALYSIS *
                    ********************************

-----------------------
MULLIKEN ATOMIC CHARGES
-----------------------
   0 O :   -0.755246
   1 H :    0.380554
   2 H :    0.390783
   3 O :   -0.773692
   4 H :    0.341413
   5 H :    0.398092
   6 O :   -0.773634
   7 H :    0.397552
   8 H :    0.369524
   9 O :   -0.735196
  10 H :    0.394111
  11 H :    0.367838
  12 O :   -0.773118
  13 H :    0.380937
  14 H :    0.361512
  15 O :   -0.753896
  16 H :    0.403820
  17 H :    0.378646
Sum of atomic charges:    0.0000000

--------------------------------
MULLIKEN REDUCED ORBITAL CHARGES
--------------------------------
  0 O s       :     3.807317  s :     3.807317
      pz      :     1.735609  p :     4.922781
      px      :     1.390051
      py      :     1.797122
      dz2     :     0.003937  d :     0.023678
      dxz     :     0.004432
      dyz     :     0.005354
      dx2y2   :     0.002530
      dxy     :     0.007424
      f0      :     0.000085  f :     0.001470
      f+1     :     0.000334
      f-1     :     0.000178
      f+2     :     0.000062
      f-2     :     0.000348
      f+3     :     0.000093
      f-3     :     0.000371
  1 H s       :     0.574652  s :     0.574652
      pz      :     0.016993  p :     0.044794
      px      :     0.013247
      py      :     0.014554
  2 H s       :     0.568861  s :     0.568861
      pz      :     0.010298  p :     0.040356
      px      :     0.018148
      py      :     0.011910
  3 O s       :     3.808474  s :     3.808474
      pz      :     1.711460  p :     4.940842
      px      :     1.420876
      py      :     1.808506
      dz2     :     0.003751  d :     0.022950
      dxz     :     0.004363
      dyz     :     0.005390
      dx2y2   :     0.002245
      dxy     :     0.007201
      f0      :     0.000080  f :     0.001426
      f+1     :     0.000312
      f-1     :     0.000178
      f+2     :     0.000069
      f-2     :     0.000349
      f+3     :     0.000088
      f-3     :     0.000351
  4 H s       :     0.612788  s :     0.612788
      pz      :     0.016911  p :     0.045800
      px      :     0.013924
      py      :     0.014964
  5 H s       :     0.545279  s :     0.545279
      pz      :     0.010192  p :     0.056630
      px      :     0.032478
      py      :     0.013960
  6 O s       :     3.801670  s :     3.801670
      pz      :     1.560853  p :     4.947702
      px      :     1.858866
      py      :     1.527983
      dz2     :     0.010492  d :     0.022883
      dxz     :     0.002021
      dyz     :     0.002538
      dx2y2   :     0.003115
      dxy     :     0.004718
      f0      :     0.000193  f :     0.001379
      f+1     :     0.000115
      f-1     :     0.000444
      f+2     :     0.000070
      f-2     :     0.000038
      f+3     :     0.000419
      f-3     :     0.000100
  7 H s       :     0.550014  s :     0.550014
      pz      :     0.008669  p :     0.052434
      px      :     0.014442
      py      :     0.029323
  8 H s       :     0.586496  s :     0.586496
      pz      :     0.018899  p :     0.043980
      px      :     0.013265
      py      :     0.011815
  9 O s       :     3.804109  s :     3.804109
      pz      :     1.594803  p :     4.904384
      px      :     1.469210
      py      :     1.840371
      dz2     :     0.011607  d :     0.025329
      dxz     :     0.002935
      dyz     :     0.002297
      dx2y2   :     0.003555
      dxy     :     0.004936
      f0      :     0.000149  f :     0.001373
      f+1     :     0.000458
      f-1     :     0.000111
      f+2     :     0.000066
      f-2     :     0.000039
      f+3     :     0.000104
      f-3     :     0.000445
 10 H s       :     0.557569  s :     0.557569
      pz      :     0.024748  p :     0.048320
      px      :     0.010893
      py      :     0.012679
 11 H s       :     0.589517  s :     0.589517
      pz      :     0.009928  p :     0.042645
      px      :     0.018812
      py      :     0.013905
 12 O s       :     3.804599  s :     3.804599
      pz      :     1.586339  p :     4.943071
      px      :     1.484904
      py      :     1.871827
      dz2     :     0.010817  d :     0.024052
      dxz     :     0.002767
      dyz     :     0.002446
      dx2y2   :     0.003011
      dxy     :     0.005010
      f0      :     0.000164  f :     0.001396
      f+1     :     0.000440
      f-1     :     0.000117
      f+2     :     0.000077
      f-2     :     0.000040
      f+3     :     0.000116
      f-3     :     0.000443
 13 H s       :     0.570086  s :     0.570086
      pz      :     0.024477  p :     0.048977
      px      :     0.011303
      py      :     0.013198
 14 H s       :     0.584130  s :     0.584130
      pz      :     0.010080  p :     0.054358
      px      :     0.028164
      py      :     0.016114
 15 O s       :     3.792965  s :     3.792965
      pz      :     1.574044  p :     4.935317
      px      :     1.783905
      py      :     1.577368
      dz2     :     0.011701  d :     0.024259
      dxz     :     0.002283
      dyz     :     0.001189
      dx2y2   :     0.002387
      dxy     :     0.006700
      f0      :     0.000229  f :     0.001355
      f+1     :     0.000150
      f-1     :     0.000377
      f+2     :     0.000051
      f-2     :     0.000055
      f+3     :     0.000445
      f-3     :     0.000049
 16 H s       :     0.548414  s :     0.548414
      pz      :     0.024706  p :     0.047766
      px      :     0.011963
      py      :     0.011097
 17 H s       :     0.571714  s :     0.571714
      pz      :     0.010129  p :     0.049640
      px      :     0.015888
      py      :     0.023623


                     *******************************
                     * LOEWDIN POPULATION ANALYSIS *
                     *******************************

----------------------
LOEWDIN ATOMIC CHARGES
----------------------
   0 O :   -0.299182
   1 H :    0.170804
   2 H :    0.196834
   3 O :   -0.351709
   4 H :    0.150667
   5 H :    0.152632
   6 O :   -0.310126
   7 H :    0.156228
   8 H :    0.172303
   9 O :   -0.305880
  10 H :    0.157686
  11 H :    0.178885
  12 O :   -0.378670
  13 H :    0.150507
  14 H :    0.140419
  15 O :   -0.297055
  16 H :    0.162788
  17 H :    0.152869

-------------------------------
LOEWDIN REDUCED ORBITAL CHARGES
-------------------------------
  0 O s       :     3.460991  s :     3.460991
      pz      :     1.688435  p :     4.805322
      px      :     1.368450
      py      :     1.748437
      dz2     :     0.005322  d :     0.030828
      dxz     :     0.006535
      dyz     :     0.005177
      dx2y2   :     0.004155
      dxy     :     0.009640
      f0      :     0.000089  f :     0.002041
      f+1     :     0.000443
      f-1     :     0.000268
      f+2     :     0.000033
      f-2     :     0.000593
      f+3     :     0.000089
      f-3     :     0.000527
  1 H s       :     0.664968  s :     0.664968
      pz      :     0.066763  p :     0.164228
      px      :     0.044752
      py      :     0.052713
  2 H s       :     0.653688  s :     0.653688
      pz      :     0.033166  p :     0.149479
      px      :     0.072838
      py      :     0.043475
  3 O s       :     3.461738  s :     3.461738
      pz      :     1.678206  p :     4.858591
      px      :     1.398031
      py      :     1.782354
      dz2     :     0.004708  d :     0.029392
      dxz     :     0.006932
      dyz     :     0.005664
      dx2y2   :     0.003243
      dxy     :     0.008845
      f0      :     0.000086  f :     0.001989
      f+1     :     0.000430
      f-1     :     0.000261
      f+2     :     0.000034
      f-2     :     0.000622
      f+3     :     0.000085
      f-3     :     0.000472
  4 H s       :     0.684401  s :     0.684401
      pz      :     0.065904  p :     0.164932
      px      :     0.045795
      py      :     0.053233
  5 H s       :     0.650189  s :     0.650189
      pz      :     0.033477  p :     0.197179
      px      :     0.115926
      py      :     0.047776
  6 O s       :     3.455800  s :     3.455800
      pz      :     1.533967  p :     4.822446
      px      :     1.796058
      py      :     1.492421
      dz2     :     0.014427  d :     0.029885
      dxz     :     0.001321
      dyz     :     0.003950
      dx2y2   :     0.004525
      dxy     :     0.005662
      f0      :     0.000383  f :     0.001995
      f+1     :     0.000198
      f-1     :     0.000729
      f+2     :     0.000040
      f-2     :     0.000046
      f+3     :     0.000534
      f-3     :     0.000066
  7 H s       :     0.656077  s :     0.656077
      pz      :     0.029002  p :     0.187695
      px      :     0.052741
      py      :     0.105952
  8 H s       :     0.667860  s :     0.667860
      pz      :     0.079689  p :     0.159837
      px      :     0.043189
      py      :     0.036959
  9 O s       :     3.462981  s :     3.462981
      pz      :     1.572624  p :     4.809361
      px      :     1.456349
      py      :     1.780388
      dz2     :     0.014515  d :     0.031526
      dxz     :     0.003875
      dyz     :     0.001372
      dx2y2   :     0.005343
      dxy     :     0.006421
      f0      :     0.000329  f :     0.002012
      f+1     :     0.000715
      f-1     :     0.000204
      f+2     :     0.000038
      f-2     :     0.000042
      f+3     :     0.000071
      f-3     :     0.000613
 10 H s       :     0.670063  s :     0.670063
      pz      :     0.093460  p :     0.172251
      px      :     0.036095
      py      :     0.042696
 11 H s       :     0.666592  s :     0.666592
      pz      :     0.030282  p :     0.154523
      px      :     0.075165
      py      :     0.049076
 12 O s       :     3.464380  s :     3.464380
      pz      :     1.571515  p :     4.883247
      px      :     1.475513
      py      :     1.836219
      dz2     :     0.013482  d :     0.029090
      dxz     :     0.003790
      dyz     :     0.001545
      dx2y2   :     0.004023
      dxy     :     0.006251
      f0      :     0.000342  f :     0.001953
      f+1     :     0.000702
      f-1     :     0.000187
      f+2     :     0.000043
      f-2     :     0.000042
      f+3     :     0.000068
      f-3     :     0.000569
 13 H s       :     0.676243  s :     0.676243
      pz      :     0.093062  p :     0.173250
      px      :     0.037168
      py      :     0.043020
 14 H s       :     0.675379  s :     0.675379
      pz      :     0.031017  p :     0.184203
      px      :     0.100276
      py      :     0.052910
 15 O s       :     3.446966  s :     3.446966
      pz      :     1.543249  p :     4.817734
      px      :     1.728042
      py      :     1.546443
      dz2     :     0.014861  d :     0.030326
      dxz     :     0.001735
      dyz     :     0.001739
      dx2y2   :     0.003511
      dxy     :     0.008480
      f0      :     0.000412  f :     0.002030
      f+1     :     0.000322
      f-1     :     0.000543
      f+2     :     0.000019
      f-2     :     0.000048
      f+3     :     0.000660
      f-3     :     0.000025
 16 H s       :     0.664910  s :     0.664910
      pz      :     0.093953  p :     0.172302
      px      :     0.041529
      py      :     0.036820
 17 H s       :     0.673422  s :     0.673422
      pz      :     0.031345  p :     0.173709
      px      :     0.057780
      py      :     0.084585


                      *****************************
                      * MAYER POPULATION ANALYSIS *
                      *****************************

  NA   - Mulliken gross atomic population
  ZA   - Total nuclear charge
  QA   - Mulliken gross atomic charge
  VA   - Mayer's total valence
  BVA  - Mayer's bonded valence
  FA   - Mayer's free valence

  ATOM       NA         ZA         QA         VA         BVA        FA
  0 O      8.7552     8.0000    -0.7552     1.7465     1.7465    -0.0000
  1 H      0.6194     1.0000     0.3806     0.8711     0.8711    -0.0000
  2 H      0.6092     1.0000     0.3908     0.8634     0.8634     0.0000
  3 O      8.7737     8.0000    -0.7737     1.6828     1.6828     0.0000
  4 H      0.6586     1.0000     0.3414     0.8997     0.8997    -0.0000
  5 H      0.6019     1.0000     0.3981     0.8819     0.8819    -0.0000
  6 O      8.7736     8.0000    -0.7736     1.6956     1.6956     0.0000
  7 H      0.6024     1.0000     0.3976     0.8815     0.8815     0.0000
  8 H      0.6305     1.0000     0.3695     0.8801     0.8801    -0.0000
  9 O      8.7352     8.0000    -0.7352     1.7566     1.7566    -0.0000
 10 H      0.6059     1.0000     0.3941     0.8690     0.8690    -0.0000
 11 H      0.6322     1.0000     0.3678     0.8833     0.8833     0.0000
 12 O      8.7731     8.0000    -0.7731     1.6980     1.6980     0.0000
 13 H      0.6191     1.0000     0.3809     0.8862     0.8862     0.0000
 14 H      0.6385     1.0000     0.3615     0.9071     0.9071    -0.0000
 15 O      8.7539     8.0000    -0.7539     1.7344     1.7344    -0.0000
 16 H      0.5962     1.0000     0.4038     0.8630     0.8630    -0.0000
 17 H      0.6214     1.0000     0.3786     0.8838     0.8838     0.0000

  Mayer bond orders larger than 0.100000
B(  0-O ,  1-H ) :   0.8624 B(  0-O ,  2-H ) :   0.8486 B(  3-O ,  4-H ) :   0.8910 
B(  3-O ,  5-H ) :   0.7920 B(  6-O ,  7-H ) :   0.7994 B(  6-O ,  8-H ) :   0.8717 
B(  9-O , 10-H ) :   0.8406 B(  9-O , 11-H ) :   0.8686 B( 12-O , 13-H ) :   0.8524 
B( 12-O , 14-H ) :   0.8543 B( 15-O , 16-H ) :   0.8336 B( 15-O , 17-H ) :   0.8533 


-------
TIMINGS
-------

Total SCF time: 0 days 0 hours 0 min 14 sec 

Total time                  ....      14.906 sec
Sum of individual times     ....      14.652 sec  ( 98.3%)

Fock matrix formation       ....      14.287 sec  ( 95.8%)
Diagonalization             ....       0.078 sec  (  0.5%)
Density matrix formation    ....       0.010 sec  (  0.1%)
Population analysis         ....       0.008 sec  (  0.1%)
Initial guess               ....       0.151 sec  (  1.0%)
Orbital Transformation      ....       0.000 sec  (  0.0%)
Orbital Orthonormalization  ....       0.000 sec  (  0.0%)
DIIS solution               ....       0.028 sec  (  0.2%)
SOSCF solution              ....       0.033 sec  (  0.2%)


           ************************************************************
           *        Program running with 6 parallel MPI-processes     *
           *              working on a common directory               *
           ************************************************************

------------------------------------------------------------------------------
                                ORCA  MP2 
------------------------------------------------------------------------------

Freezing NCore=12 chemical core electrons
MP2 will be done in the AO integral direct mode
The Q1-step will be done using symmetric double matrices
Dimension of the basis                    ...  258
Memory devoted for MP2                    ... 8000 MB   
Memory needed for all in one shot         ...  264 MB
Number of MOs that can be treated together...  120      
MP2 density construction                  ... relaxed
The MP2 gradient is requested => amplitudes will be stored on disk
Total number of MOs              ...   24
Number of MOs treated per batch  ...    4 
Number of batches necessary      ...    1 
OPERATORS   0/  0 PASS   0
-----------------------------------------------
 MP2 CORRELATION ENERGY   :     -1.555397112 Eh
-----------------------------------------------


---------------------
MP2 DENSITY FORMATION
---------------------

Completing the external part of the density      ... done
Storing the unrelaxed density                    ... done

Calculating G(D)                                 ... done
Completing the Lagrangian                        ... done
Solving the Z-vector equations                   ... 

------------------------------------------------------------------------------
                           ORCA CP-SCF CALCULATION
------------------------------------------------------------------------------

Input orbitals are from        ... 12h2o.su.etal.mol0,1,5,6,7,9-orca.engrad-mp2.def2tzvp.frozencore.gbw
Input Perturbation             ... 12h2o.su.etal.mol0,1,5,6,7,9-orca.engrad-mp2.def2tzvp.frozencore.pin.tmp
Wavefunction output            ... 12h2o.su.etal.mol0,1,5,6,7,9-orca.engrad-mp2.def2tzvp.frozencore.pout.tmp
Perturbation mode              ... Real perturbation (singlet)
Solver                         ... POPLE
Max. number of iterations      ... 128
Convergence tolerance          ... 1.000e-08
Integral handling              ... Direct
Number of perturbations        ... 1
Number of operators            ... 1
Orbital ranges used for CP-SCF:
 Operator 0:  Orbitals   0... 29  to  30...257
Variables per vector in CP-SCF ... 6840
Number of vectors sought       ... 1
     CP-SCF ITERATION   0: 
     CP-SCF ITERATION   1:      0.000760940643
     CP-SCF ITERATION   2:      0.000020080325
     CP-SCF ITERATION   3:      0.000000753594
     CP-SCF ITERATION   4:      0.000000082835
     CP-SCF ITERATION   5:      0.000000006546
                                                 ... done
Finalizing the relaxed density                   ... done
Transforming P to the AO basis                   ... done
Storing the relaxed density                      ... done

------------------------------------
ENERGY WEIGHTED DENSITY FINALIZATION
------------------------------------

Gathering the parts of the W-matrix              ...                                                      done
Forming the Z-density                            ... done
Transforming Z to the AO basis                   ... done
Calculating G(Z)                                 ... done
Finalizing the W-matrix                          ...                                                      done
Transforming W to the AO basis and storing       ... done

                *********************************************
                * UNRELAXED MP2 DENSITY POPULATION ANALYSIS *
                *********************************************

------------------------------------------------------------------------------
                           ORCA POPULATION ANALYSIS
------------------------------------------------------------------------------
Input electron density              ... 12h2o.su.etal.mol0,1,5,6,7,9-orca.engrad-mp2.def2tzvp.frozencore.pmp2ur
BaseName (.gbw .S,...)              ... 12h2o.su.etal.mol0,1,5,6,7,9-orca.engrad-mp2.def2tzvp.frozencore

                    ********************************
                    * MULLIKEN POPULATION ANALYSIS *
                    ********************************

-----------------------
MULLIKEN ATOMIC CHARGES
-----------------------
   0 O :   -0.749438
   1 H :    0.378343
   2 H :    0.387852
   3 O :   -0.767663
   4 H :    0.339085
   5 H :    0.393133
   6 O :   -0.766825
   7 H :    0.392966
   8 H :    0.367138
   9 O :   -0.728417
  10 H :    0.391188
  11 H :    0.365019
  12 O :   -0.766853
  13 H :    0.377782
  14 H :    0.357175
  15 O :   -0.746731
  16 H :    0.400810
  17 H :    0.375437
Sum of atomic charges:    0.0000000

--------------------------------
MULLIKEN REDUCED ORBITAL CHARGES
--------------------------------
  0 O s       :     3.802474  s :     3.802474
      pz      :     1.724540  p :     4.891913
      px      :     1.382106
      py      :     1.785268
      dz2     :     0.009508  d :     0.051011
      dxz     :     0.009841
      dyz     :     0.010872
      dx2y2   :     0.008021
      dxy     :     0.012769
      f0      :     0.000457  f :     0.004040
      f+1     :     0.000696
      f-1     :     0.000546
      f+2     :     0.000432
      f-2     :     0.000713
      f+3     :     0.000464
      f-3     :     0.000732
  1 H s       :     0.575373  s :     0.575373
      pz      :     0.017438  p :     0.046284
      px      :     0.013618
      py      :     0.015229
  2 H s       :     0.570337  s :     0.570337
      pz      :     0.011103  p :     0.041811
      px      :     0.018065
      py      :     0.012643
  3 O s       :     3.803498  s :     3.803498
      pz      :     1.700575  p :     4.909714
      px      :     1.412105
      py      :     1.797035
      dz2     :     0.009396  d :     0.050443
      dxz     :     0.009854
      dyz     :     0.010820
      dx2y2   :     0.007789
      dxy     :     0.012585
      f0      :     0.000452  f :     0.004008
      f+1     :     0.000678
      f-1     :     0.000543
      f+2     :     0.000439
      f-2     :     0.000716
      f+3     :     0.000462
      f-3     :     0.000718
  4 H s       :     0.613433  s :     0.613433
      pz      :     0.017412  p :     0.047482
      px      :     0.014382
      py      :     0.015688
  5 H s       :     0.548590  s :     0.548590
      pz      :     0.011010  p :     0.058278
      px      :     0.032583
      py      :     0.014684
  6 O s       :     3.796412  s :     3.796412
      pz      :     1.551266  p :     4.915605
      px      :     1.845942
      py      :     1.518397
      dz2     :     0.015905  d :     0.050825
      dxz     :     0.007748
      dyz     :     0.008032
      dx2y2   :     0.008832
      dxy     :     0.010308
      f0      :     0.000578  f :     0.003982
      f+1     :     0.000491
      f-1     :     0.000813
      f+2     :     0.000437
      f-2     :     0.000407
      f+3     :     0.000782
      f-3     :     0.000474
  7 H s       :     0.553012  s :     0.553012
      pz      :     0.009441  p :     0.054022
      px      :     0.015115
      py      :     0.029466
  8 H s       :     0.587305  s :     0.587305
      pz      :     0.019035  p :     0.045557
      px      :     0.014103
      py      :     0.012419
  9 O s       :     3.799016  s :     3.799016
      pz      :     1.584866  p :     4.872877
      px      :     1.460428
      py      :     1.827583
      dz2     :     0.016824  d :     0.052566
      dxz     :     0.008288
      dyz     :     0.007930
      dx2y2   :     0.009102
      dxy     :     0.010422
      f0      :     0.000537  f :     0.003959
      f+1     :     0.000825
      f-1     :     0.000488
      f+2     :     0.000431
      f-2     :     0.000406
      f+3     :     0.000473
      f-3     :     0.000800
 10 H s       :     0.558977  s :     0.558977
      pz      :     0.024864  p :     0.049835
      px      :     0.011469
      py      :     0.013502
 11 H s       :     0.590777  s :     0.590777
      pz      :     0.010752  p :     0.044204
      px      :     0.018828
      py      :     0.014624
 12 O s       :     3.799607  s :     3.799607
      pz      :     1.576501  p :     4.912018
      px      :     1.475714
      py      :     1.859804
      dz2     :     0.016057  d :     0.051253
      dxz     :     0.008202
      dyz     :     0.008017
      dx2y2   :     0.008534
      dxy     :     0.010443
      f0      :     0.000549  f :     0.003975
      f+1     :     0.000810
      f-1     :     0.000489
      f+2     :     0.000440
      f-2     :     0.000406
      f+3     :     0.000482
      f-3     :     0.000799
 13 H s       :     0.571668  s :     0.571668
      pz      :     0.024573  p :     0.050550
      px      :     0.011928
      py      :     0.014049
 14 H s       :     0.586684  s :     0.586684
      pz      :     0.010950  p :     0.056141
      px      :     0.028322
      py      :     0.016870
 15 O s       :     3.787800  s :     3.787800
      pz      :     1.564244  p :     4.903034
      px      :     1.771192
      py      :     1.567598
      dz2     :     0.016982  d :     0.051930
      dxz     :     0.007946
      dyz     :     0.006711
      dx2y2   :     0.008124
      dxy     :     0.012167
      f0      :     0.000615  f :     0.003966
      f+1     :     0.000529
      f-1     :     0.000748
      f+2     :     0.000416
      f-2     :     0.000424
      f+3     :     0.000808
      f-3     :     0.000426
 16 H s       :     0.549953  s :     0.549953
      pz      :     0.024747  p :     0.049237
      px      :     0.012751
      py      :     0.011739
 17 H s       :     0.573339  s :     0.573339
      pz      :     0.010923  p :     0.051224
      px      :     0.016463
      py      :     0.023838


                     *******************************
                     * LOEWDIN POPULATION ANALYSIS *
                     *******************************

----------------------
LOEWDIN ATOMIC CHARGES
----------------------
   0 O :   -0.294749
   1 H :    0.169687
   2 H :    0.195047
   3 O :   -0.348550
   4 H :    0.149303
   5 H :    0.149944
   6 O :   -0.305820
   7 H :    0.153562
   8 H :    0.170846
   9 O :   -0.301349
  10 H :    0.155727
  11 H :    0.177177
  12 O :   -0.375867
  13 H :    0.148439
  14 H :    0.137788
  15 O :   -0.292728
  16 H :    0.160856
  17 H :    0.150686

-------------------------------
LOEWDIN REDUCED ORBITAL CHARGES
-------------------------------
  0 O s       :     3.457229  s :     3.457229
      pz      :     1.676934  p :     4.773485
      px      :     1.360205
      py      :     1.736346
      dz2     :     0.011021  d :     0.059230
      dxz     :     0.012154
      dyz     :     0.010974
      dx2y2   :     0.009748
      dxy     :     0.015333
      f0      :     0.000472  f :     0.004805
      f+1     :     0.000853
      f-1     :     0.000655
      f+2     :     0.000409
      f-2     :     0.001001
      f+3     :     0.000474
      f-3     :     0.000941
  1 H s       :     0.663234  s :     0.663234
      pz      :     0.067892  p :     0.167079
      px      :     0.045532
      py      :     0.053655
  2 H s       :     0.652580  s :     0.652580
      pz      :     0.033982  p :     0.152373
      px      :     0.073959
      py      :     0.044432
  3 O s       :     3.458110  s :     3.458110
      pz      :     1.666837  p :     4.827646
      px      :     1.389551
      py      :     1.771258
      dz2     :     0.010447  d :     0.058025
      dxz     :     0.012640
      dyz     :     0.011442
      dx2y2   :     0.008897
      dxy     :     0.014599
      f0      :     0.000470  f :     0.004769
      f+1     :     0.000845
      f-1     :     0.000646
      f+2     :     0.000411
      f-2     :     0.001033
      f+3     :     0.000472
      f-3     :     0.000892
  4 H s       :     0.682486  s :     0.682486
      pz      :     0.067205  p :     0.168211
      px      :     0.046759
      py      :     0.054247
  5 H s       :     0.650465  s :     0.650465
      pz      :     0.034320  p :     0.199591
      px      :     0.116636
      py      :     0.048635
  6 O s       :     3.452050  s :     3.452050
      pz      :     1.523663  p :     4.790071
      px      :     1.783296
      py      :     1.483112
      dz2     :     0.020461  d :     0.058900
      dxz     :     0.006979
      dyz     :     0.009478
      dx2y2   :     0.010400
      dxy     :     0.011582
      f0      :     0.000800  f :     0.004799
      f+1     :     0.000591
      f-1     :     0.001168
      f+2     :     0.000414
      f-2     :     0.000421
      f+3     :     0.000953
      f-3     :     0.000450
  7 H s       :     0.656098  s :     0.656098
      pz      :     0.029807  p :     0.190340
      px      :     0.053585
      py      :     0.106948
  8 H s       :     0.666232  s :     0.666232
      pz      :     0.081190  p :     0.162923
      px      :     0.043976
      py      :     0.037757
  9 O s       :     3.459161  s :     3.459161
      pz      :     1.562673  p :     4.777569
      px      :     1.447323
      py      :     1.767574
      dz2     :     0.020347  d :     0.059825
      dxz     :     0.009275
      dyz     :     0.006927
      dx2y2   :     0.011076
      dxy     :     0.012201
      f0      :     0.000746  f :     0.004794
      f+1     :     0.001151
      f-1     :     0.000596
      f+2     :     0.000410
      f-2     :     0.000415
      f+3     :     0.000450
      f-3     :     0.001024
 10 H s       :     0.669199  s :     0.669199
      pz      :     0.094776  p :     0.175074
      px      :     0.036833
      py      :     0.043466
 11 H s       :     0.665231  s :     0.665231
      pz      :     0.031094  p :     0.157592
      px      :     0.076502
      py      :     0.049996
 12 O s       :     3.460744  s :     3.460744
      pz      :     1.561714  p :     4.852933
      px      :     1.466419
      py      :     1.824800
      dz2     :     0.019347  d :     0.057460
      dxz     :     0.009259
      dyz     :     0.007049
      dx2y2   :     0.009758
      dxy     :     0.012047
      f0      :     0.000758  f :     0.004730
      f+1     :     0.001142
      f-1     :     0.000575
      f+2     :     0.000414
      f-2     :     0.000415
      f+3     :     0.000445
      f-3     :     0.000980
 13 H s       :     0.675393  s :     0.675393
      pz      :     0.094411  p :     0.176168
      px      :     0.037963
      py      :     0.043794
 14 H s       :     0.675002  s :     0.675002
      pz      :     0.031887  p :     0.187210
      px      :     0.101497
      py      :     0.053825
 15 O s       :     3.443236  s :     3.443236
      pz      :     1.533487  p :     4.785590
      px      :     1.715426
      py      :     1.536676
      dz2     :     0.020818  d :     0.059060
      dxz     :     0.007330
      dyz     :     0.007217
      dx2y2   :     0.009209
      dxy     :     0.014487
      f0      :     0.000839  f :     0.004842
      f+1     :     0.000725
      f-1     :     0.000970
      f+2     :     0.000390
      f-2     :     0.000424
      f+3     :     0.001086
      f-3     :     0.000408
 16 H s       :     0.664074  s :     0.664074
      pz      :     0.095191  p :     0.175070
      px      :     0.042313
      py      :     0.037566
 17 H s       :     0.672627  s :     0.672627
      pz      :     0.032134  p :     0.176687
      px      :     0.058735
      py      :     0.085818


                      *****************************
                      * MAYER POPULATION ANALYSIS *
                      *****************************

  NA   - Mulliken gross atomic population
  ZA   - Total nuclear charge
  QA   - Mulliken gross atomic charge
  VA   - Mayer's total valence
  BVA  - Mayer's bonded valence
  FA   - Mayer's free valence

  ATOM       NA         ZA         QA         VA         BVA        FA
  0 O      8.7494     8.0000    -0.7494     2.0604     1.6678     0.3926
  1 H      0.6217     1.0000     0.3783     0.8765     0.8325     0.0440
  2 H      0.6121     1.0000     0.3879     0.8695     0.8231     0.0464
  3 O      8.7677     8.0000    -0.7677     1.9993     1.6047     0.3945
  4 H      0.6609     1.0000     0.3391     0.9057     0.8580     0.0477
  5 H      0.6069     1.0000     0.3931     0.8900     0.8434     0.0466
  6 O      8.7668     8.0000    -0.7668     2.0121     1.6181     0.3939
  7 H      0.6070     1.0000     0.3930     0.8892     0.8431     0.0461
  8 H      0.6329     1.0000     0.3671     0.8857     0.8397     0.0460
  9 O      8.7284     8.0000    -0.7284     2.0674     1.6767     0.3907
 10 H      0.6088     1.0000     0.3912     0.8749     0.8312     0.0437
 11 H      0.6350     1.0000     0.3650     0.8896     0.8422     0.0474
 12 O      8.7669     8.0000    -0.7669     2.0133     1.6195     0.3937
 13 H      0.6222     1.0000     0.3778     0.8925     0.8474     0.0451
 14 H      0.6428     1.0000     0.3572     0.9150     0.8664     0.0487
 15 O      8.7467     8.0000    -0.7467     2.0470     1.6566     0.3904
 16 H      0.5992     1.0000     0.4008     0.8689     0.8256     0.0433
 17 H      0.6246     1.0000     0.3754     0.8902     0.8447     0.0455

  Mayer bond orders larger than 0.100000
B(  0-O ,  1-H ) :   0.8244 B(  0-O ,  2-H ) :   0.8091 B(  3-O ,  4-H ) :   0.8500 
B(  3-O ,  5-H ) :   0.7561 B(  6-O ,  7-H ) :   0.7635 B(  6-O ,  8-H ) :   0.8320 
B(  9-O , 10-H ) :   0.8035 B(  9-O , 11-H ) :   0.8282 B( 12-O , 13-H ) :   0.8146 
B( 12-O , 14-H ) :   0.8149 B( 15-O , 16-H ) :   0.7972 B( 15-O , 17-H ) :   0.8151 



                *******************************************
                * RELAXED MP2 DENSITY POPULATION ANALYSIS *
                *******************************************

------------------------------------------------------------------------------
                           ORCA POPULATION ANALYSIS
------------------------------------------------------------------------------
Input electron density              ... 12h2o.su.etal.mol0,1,5,6,7,9-orca.engrad-mp2.def2tzvp.frozencore.pmp2re
BaseName (.gbw .S,...)              ... 12h2o.su.etal.mol0,1,5,6,7,9-orca.engrad-mp2.def2tzvp.frozencore

                    ********************************
                    * MULLIKEN POPULATION ANALYSIS *
                    ********************************

-----------------------
MULLIKEN ATOMIC CHARGES
-----------------------
   0 O :   -0.726732
   1 H :    0.371425
   2 H :    0.380307
   3 O :   -0.743307
   4 H :    0.332373
   5 H :    0.367315
   6 O :   -0.736496
   7 H :    0.369305
   8 H :    0.359973
   9 O :   -0.699266
  10 H :    0.377567
  11 H :    0.357281
  12 O :   -0.742083
  13 H :    0.362227
  14 H :    0.335932
  15 O :   -0.713733
  16 H :    0.387522
  17 H :    0.360390
Sum of atomic charges:    0.0000000

--------------------------------
MULLIKEN REDUCED ORBITAL CHARGES
--------------------------------
  0 O s       :     3.805689  s :     3.805689
      pz      :     1.715319  p :     4.868195
      px      :     1.378984
      py      :     1.773892
      dz2     :     0.009280  d :     0.048882
      dxz     :     0.009260
      dyz     :     0.010620
      dx2y2   :     0.007771
      dxy     :     0.011951
      f0      :     0.000455  f :     0.003966
      f+1     :     0.000677
      f-1     :     0.000537
      f+2     :     0.000431
      f-2     :     0.000692
      f+3     :     0.000462
      f-3     :     0.000711
  1 H s       :     0.581652  s :     0.581652
      pz      :     0.017538  p :     0.046924
      px      :     0.013540
      py      :     0.015846
  2 H s       :     0.577395  s :     0.577395
      pz      :     0.011890  p :     0.042298
      px      :     0.017098
      py      :     0.013310
  3 O s       :     3.805084  s :     3.805084
      pz      :     1.690208  p :     4.885696
      px      :     1.404127
      py      :     1.791361
      dz2     :     0.009254  d :     0.048586
      dxz     :     0.009275
      dyz     :     0.010501
      dx2y2   :     0.007670
      dxy     :     0.011886
      f0      :     0.000450  f :     0.003942
      f+1     :     0.000660
      f-1     :     0.000535
      f+2     :     0.000439
      f-2     :     0.000696
      f+3     :     0.000461
      f-3     :     0.000701
  4 H s       :     0.619357  s :     0.619357
      pz      :     0.017577  p :     0.048271
      px      :     0.014416
      py      :     0.016278
  5 H s       :     0.574286  s :     0.574286
      pz      :     0.011738  p :     0.058399
      px      :     0.031463
      py      :     0.015198
  6 O s       :     3.798012  s :     3.798012
      pz      :     1.542507  p :     4.885568
      px      :     1.829356
      py      :     1.513705
      dz2     :     0.014808  d :     0.049002
      dxz     :     0.007787
      dyz     :     0.007758
      dx2y2   :     0.008688
      dxy     :     0.009960
      f0      :     0.000566  f :     0.003914
      f+1     :     0.000485
      f-1     :     0.000785
      f+2     :     0.000436
      f-2     :     0.000405
      f+3     :     0.000764
      f-3     :     0.000472
  7 H s       :     0.576367  s :     0.576367
      pz      :     0.010093  p :     0.054327
      px      :     0.015618
      py      :     0.028616
  8 H s       :     0.593813  s :     0.593813
      pz      :     0.018291  p :     0.046214
      px      :     0.015073
      py      :     0.012850
  9 O s       :     3.799071  s :     3.799071
      pz      :     1.581032  p :     4.845739
      px      :     1.453969
      py      :     1.810739
      dz2     :     0.015764  d :     0.050571
      dxz     :     0.008059
      dyz     :     0.007991
      dx2y2   :     0.008792
      dxy     :     0.009964
      f0      :     0.000524  f :     0.003886
      f+1     :     0.000797
      f-1     :     0.000482
      f+2     :     0.000431
      f-2     :     0.000404
      f+3     :     0.000470
      f-3     :     0.000778
 10 H s       :     0.572059  s :     0.572059
      pz      :     0.024223  p :     0.050374
      px      :     0.011784
      py      :     0.014368
 11 H s       :     0.597880  s :     0.597880
      pz      :     0.011494  p :     0.044839
      px      :     0.017991
      py      :     0.015354
 12 O s       :     3.795656  s :     3.795656
      pz      :     1.571956  p :     4.893126
      px      :     1.469220
      py      :     1.851949
      dz2     :     0.015041  d :     0.049393
      dxz     :     0.007980
      dyz     :     0.008043
      dx2y2   :     0.008318
      dxy     :     0.010009
      f0      :     0.000537  f :     0.003909
      f+1     :     0.000783
      f-1     :     0.000483
      f+2     :     0.000440
      f-2     :     0.000405
      f+3     :     0.000480
      f-3     :     0.000781
 13 H s       :     0.586676  s :     0.586676
      pz      :     0.023921  p :     0.051097
      px      :     0.012277
      py      :     0.014899
 14 H s       :     0.607441  s :     0.607441
      pz      :     0.011712  p :     0.056627
      px      :     0.027372
      py      :     0.017543
 15 O s       :     3.784650  s :     3.784650
      pz      :     1.560776  p :     4.875018
      px      :     1.751615
      py      :     1.562627
      dz2     :     0.015839  d :     0.050169
      dxz     :     0.007938
      dyz     :     0.006697
      dx2y2   :     0.008107
      dxy     :     0.011589
      f0      :     0.000598  f :     0.003896
      f+1     :     0.000521
      f-1     :     0.000728
      f+2     :     0.000416
      f-2     :     0.000422
      f+3     :     0.000785
      f-3     :     0.000426
 16 H s       :     0.562869  s :     0.562869
      pz      :     0.023918  p :     0.049609
      px      :     0.013523
      py      :     0.012168
 17 H s       :     0.587820  s :     0.587820
      pz      :     0.011613  p :     0.051790
      px      :     0.016882
      py      :     0.023294


                     *******************************
                     * LOEWDIN POPULATION ANALYSIS *
                     *******************************

----------------------
LOEWDIN ATOMIC CHARGES
----------------------
   0 O :   -0.288819
   1 H :    0.171411
   2 H :    0.195882
   3 O :   -0.346587
   4 H :    0.151035
   5 H :    0.141989
   6 O :   -0.298767
   7 H :    0.146124
   8 H :    0.172398
   9 O :   -0.294278
  10 H :    0.152013
  11 H :    0.178148
  12 O :   -0.375851
  13 H :    0.144189
  14 H :    0.131428
  15 O :   -0.284613
  16 H :    0.157524
  17 H :    0.146773

-------------------------------
LOEWDIN REDUCED ORBITAL CHARGES
-------------------------------
  0 O s       :     3.458765  s :     3.458765
      pz      :     1.671968  p :     4.767021
      px      :     1.365330
      py      :     1.729723
      dz2     :     0.010968  d :     0.058210
      dxz     :     0.011806
      dyz     :     0.010966
      dx2y2   :     0.009551
      dxy     :     0.014918
      f0      :     0.000476  f :     0.004823
      f+1     :     0.000858
      f-1     :     0.000656
      f+2     :     0.000409
      f-2     :     0.001001
      f+3     :     0.000477
      f-3     :     0.000946
  1 H s       :     0.661882  s :     0.661882
      pz      :     0.067820  p :     0.166707
      px      :     0.044763
      py      :     0.054124
  2 H s       :     0.651950  s :     0.651950
      pz      :     0.034620  p :     0.152168
      px      :     0.072488
      py      :     0.045060
  3 O s       :     3.459848  s :     3.459848
      pz      :     1.661766  p :     4.824496
      px      :     1.392977
      py      :     1.769752
      dz2     :     0.010510  d :     0.057434
      dxz     :     0.012292
      dyz     :     0.011385
      dx2y2   :     0.008902
      dxy     :     0.014346
      f0      :     0.000473  f :     0.004809
      f+1     :     0.000857
      f-1     :     0.000647
      f+2     :     0.000412
      f-2     :     0.001034
      f+3     :     0.000477
      f-3     :     0.000908
  4 H s       :     0.680549  s :     0.680549
      pz      :     0.067300  p :     0.168416
      px      :     0.046329
      py      :     0.054788
  5 H s       :     0.658264  s :     0.658264
      pz      :     0.034935  p :     0.199747
      px      :     0.115646
      py      :     0.049167
  6 O s       :     3.453395  s :     3.453395
      pz      :     1.522869  p :     4.782114
      px      :     1.773577
      py      :     1.485668
      dz2     :     0.020065  d :     0.058423
      dxz     :     0.007052
      dyz     :     0.009266
      dx2y2   :     0.010474
      dxy     :     0.011567
      f0      :     0.000801  f :     0.004834
      f+1     :     0.000594
      f-1     :     0.001180
      f+2     :     0.000416
      f-2     :     0.000421
      f+3     :     0.000968
      f-3     :     0.000454
  7 H s       :     0.662900  s :     0.662900
      pz      :     0.030138  p :     0.190976
      px      :     0.054199
      py      :     0.106639
  8 H s       :     0.664677  s :     0.664677
      pz      :     0.080338  p :     0.162926
      px      :     0.044758
      py      :     0.037830
  9 O s       :     3.460186  s :     3.460186
      pz      :     1.563629  p :     4.770380
      px      :     1.450247
      py      :     1.756504
      dz2     :     0.019883  d :     0.058901
      dxz     :     0.009082
      dyz     :     0.007007
      dx2y2   :     0.010937
      dxy     :     0.011992
      f0      :     0.000747  f :     0.004811
      f+1     :     0.001159
      f-1     :     0.000597
      f+2     :     0.000412
      f-2     :     0.000414
      f+3     :     0.000453
      f-3     :     0.001030
 10 H s       :     0.672671  s :     0.672671
      pz      :     0.094261  p :     0.175316
      px      :     0.036879
      py      :     0.044176
 11 H s       :     0.664248  s :     0.664248
      pz      :     0.031657  p :     0.157604
      px      :     0.075462
      py      :     0.050485
 12 O s       :     3.461486  s :     3.461486
      pz      :     1.562827  p :     4.852909
      px      :     1.468676
      py      :     1.821405
      dz2     :     0.018936  d :     0.056694
      dxz     :     0.009073
      dyz     :     0.007101
      dx2y2   :     0.009677
      dxy     :     0.011907
      f0      :     0.000759  f :     0.004761
      f+1     :     0.001155
      f-1     :     0.000575
      f+2     :     0.000416
      f-2     :     0.000414
      f+3     :     0.000448
      f-3     :     0.000994
 13 H s       :     0.679191  s :     0.679191
      pz      :     0.093878  p :     0.176620
      px      :     0.038156
      py      :     0.044585
 14 H s       :     0.680380  s :     0.680380
      pz      :     0.032533  p :     0.188191
      px      :     0.101040
      py      :     0.054618
 15 O s       :     3.443602  s :     3.443602
      pz      :     1.534999  p :     4.777690
      px      :     1.704944
      py      :     1.537747
      dz2     :     0.020356  d :     0.058454
      dxz     :     0.007374
      dyz     :     0.007122
      dx2y2   :     0.009298
      dxy     :     0.014304
      f0      :     0.000842  f :     0.004867
      f+1     :     0.000727
      f-1     :     0.000977
      f+2     :     0.000391
      f-2     :     0.000425
      f+3     :     0.001096
      f-3     :     0.000409
 16 H s       :     0.667288  s :     0.667288
      pz      :     0.094334  p :     0.175188
      px      :     0.042874
      py      :     0.037980
 17 H s       :     0.675923  s :     0.675923
      pz      :     0.032685  p :     0.177304
      px      :     0.059150
      py      :     0.085468


                      *****************************
                      * MAYER POPULATION ANALYSIS *
                      *****************************

  NA   - Mulliken gross atomic population
  ZA   - Total nuclear charge
  QA   - Mulliken gross atomic charge
  VA   - Mayer's total valence
  BVA  - Mayer's bonded valence
  FA   - Mayer's free valence

  ATOM       NA         ZA         QA         VA         BVA        FA
  0 O      8.7267     8.0000    -0.7267     2.0993     1.7130     0.3863
  1 H      0.6286     1.0000     0.3714     0.8819     0.8380     0.0440
  2 H      0.6197     1.0000     0.3803     0.8778     0.8317     0.0462
  3 O      8.7433     8.0000    -0.7433     2.0209     1.6320     0.3890
  4 H      0.6676     1.0000     0.3324     0.9101     0.8624     0.0477
  5 H      0.6327     1.0000     0.3673     0.9212     0.8757     0.0455
  6 O      8.7365     8.0000    -0.7365     2.0540     1.6663     0.3877
  7 H      0.6307     1.0000     0.3693     0.9198     0.8749     0.0449
  8 H      0.6400     1.0000     0.3600     0.8908     0.8447     0.0460
  9 O      8.6993     8.0000    -0.6993     2.1056     1.7210     0.3846
 10 H      0.6224     1.0000     0.3776     0.8934     0.8499     0.0435
 11 H      0.6427     1.0000     0.3573     0.8982     0.8511     0.0471
 12 O      8.7421     8.0000    -0.7421     2.0295     1.6409     0.3885
 13 H      0.6378     1.0000     0.3622     0.9136     0.8689     0.0447
 14 H      0.6641     1.0000     0.3359     0.9446     0.8969     0.0477
 15 O      8.7137     8.0000    -0.7137     2.0909     1.7066     0.3842
 16 H      0.6125     1.0000     0.3875     0.8869     0.8439     0.0430
 17 H      0.6396     1.0000     0.3604     0.9108     0.8657     0.0451

  Mayer bond orders larger than 0.100000
B(  0-O ,  1-H ) :   0.8279 B(  0-O ,  2-H ) :   0.8122 B(  3-O ,  4-H ) :   0.8527 
B(  3-O ,  5-H ) :   0.7553 B(  5-H , 15-O ) :   0.1066 B(  6-O ,  7-H ) :   0.7613 
B(  6-O ,  8-H ) :   0.8348 B(  9-O , 10-H ) :   0.8077 B(  9-O , 11-H ) :   0.8309 
B( 12-O , 13-H ) :   0.8196 B( 12-O , 14-H ) :   0.8165 B( 15-O , 16-H ) :   0.8014 
B( 15-O , 17-H ) :   0.8178 


----------------------------------
MP2 DERIVATIVE INTEGRAL GENERATION
----------------------------------


Input Wavefunction Amplitudes       ... 12h2o.su.etal.mol0,1,5,6,7,9-orca.engrad-mp2.def2tzvp.frozencore.mp2tsaa.tmp
Input Correlated Electron Density   ... 12h2o.su.etal.mol0,1,5,6,7,9-orca.engrad-mp2.def2tzvp.frozencore.pmp2re
Input Energy Weighted Density       ... 12h2o.su.etal.mol0,1,5,6,7,9-orca.engrad-mp2.def2tzvp.frozencore.wmp2.tmp
Input SCF Electron Density          ... 12h2o.su.etal.mol0,1,5,6,7,9-orca.engrad-mp2.def2tzvp.frozencore.scfp

One-Electron Terms    ...
                        ... One-Electron Terms done
Prescreening matrices              ... done

Batch handling in the gradient evaluation:
Memory available                      ... 8000.0 MB
Memory per occupied orbital in Q2     ...   12.2 MB
Memory per occupied orbital in Q3     ...    0.1 MB
Total memory requirement per |i>      ...   12.3 MB
Max. Number of orbitals possible      ...    651
Number of orbitals treated per batch  ...     24
Number of batches to be done          ...      1
Batch   0: i=    6 ...    29

---------------------------------------
MP2 TOTAL ENERGY:     -457.936491460 Eh
---------------------------------------

The final MP2 gradient
  0:   0.02546720  -0.00869751   0.00024545
  1:  -0.00025015  -0.00234727  -0.00315646
  2:  -0.02391934   0.00887029  -0.00044157
  3:  -0.00533191   0.00137123  -0.00211738
  4:  -0.00125678   0.00058407  -0.00046336
  5:   0.01108147  -0.00246167  -0.00108556
  6:  -0.00817070   0.00209599   0.00906206
  7:   0.00027815  -0.00023484   0.00248991
  8:   0.00035874   0.00019096  -0.00886459
  9:   0.01503752  -0.00513826  -0.00344367
 10:   0.00166145  -0.00029380   0.00173800
 11:  -0.01455628   0.00634233   0.00318294
 12:  -0.00677490   0.00370619   0.00029247
 13:  -0.00392016  -0.00338040   0.00242498
 14:   0.01487936  -0.00454035  -0.00099618
 15:  -0.00523692  -0.00302741   0.00043808
 16:   0.00025410   0.00132422   0.00034043
 17:   0.00039913   0.00563625   0.00035446

-----------------------------------
NORM OF THE MP2 GRADIENT:  0.052295
-----------------------------------

-------------------------   --------------------
FINAL SINGLE POINT ENERGY      -457.936491459763
-------------------------   --------------------


                            ***************************************
                            *     ORCA property calculations      *
                            ***************************************

                                    ---------------------
                                    Active property flags
                                    ---------------------
   (+) Dipole Moment


------------------------------------------------------------------------------
                       ORCA ELECTRIC PROPERTIES CALCULATION
------------------------------------------------------------------------------

Dipole Moment Calculation                       ... on
Quadrupole Moment Calculation                   ... off
Polarizability Calculation                      ... off
GBWName                                         ... 12h2o.su.etal.mol0,1,5,6,7,9-orca.engrad-mp2.def2tzvp.frozencore.gbw
Electron density file                           ... 12h2o.su.etal.mol0,1,5,6,7,9-orca.engrad-mp2.def2tzvp.frozencore.scfp
The origin for moment calculation is the CENTER OF MASS  = ( 0.534033, -1.079928  2.668050)

-------------
DIPOLE MOMENT
-------------
                                X             Y             Z
Electronic contribution:      0.51170       0.13076      -0.01476
Nuclear contribution   :      1.01960       0.90936       1.35336
                        -----------------------------------------
Total Dipole Moment    :      1.53130       1.04013       1.33860
                        -----------------------------------------
Magnitude (a.u.)       :      2.28442
Magnitude (Debye)      :      5.80654



--------------------
Rotational spectrum 
--------------------
 
Rotational constants in cm-1:     0.054338     0.044625     0.033302 
Rotational constants in MHz :  1629.019439  1337.834653   998.365435 

 Dipole components along the rotational axes: 
x,y,z [a.u.] :     1.779645     1.424281     0.151232 
x,y,z [Debye]:     4.523498     3.620234     0.384402 

 

                         *** MP2 UNRELAXED DENSITY ***

------------------------------------------------------------------------------
                       ORCA ELECTRIC PROPERTIES CALCULATION
------------------------------------------------------------------------------

Dipole Moment Calculation                       ... on
Quadrupole Moment Calculation                   ... off
Polarizability Calculation                      ... off
GBWName                                         ... 12h2o.su.etal.mol0,1,5,6,7,9-orca.engrad-mp2.def2tzvp.frozencore.gbw
Electron density file                           ... 12h2o.su.etal.mol0,1,5,6,7,9-orca.engrad-mp2.def2tzvp.frozencore.pmp2ur
The origin for moment calculation is the CENTER OF MASS  = ( 0.534033, -1.079928  2.668050)

-------------
DIPOLE MOMENT
-------------
                                X             Y             Z
Electronic contribution:      0.50895       0.12459      -0.02659
Nuclear contribution   :      1.01960       0.90936       1.35336
                        -----------------------------------------
Total Dipole Moment    :      1.52855       1.03396       1.32677
                        -----------------------------------------
Magnitude (a.u.)       :      2.27285
Magnitude (Debye)      :      5.77712



--------------------
Rotational spectrum 
--------------------
 
Rotational constants in cm-1:     0.054338     0.044625     0.033302 
Rotational constants in MHz :  1629.019439  1337.834653   998.365435 

 Dipole components along the rotational axes: 
x,y,z [a.u.] :     1.774798     1.412176     0.147286 
x,y,z [Debye]:     4.511177     3.589466     0.374370 

 

                           *** MP2 RELAXED DENSITY ***

------------------------------------------------------------------------------
                       ORCA ELECTRIC PROPERTIES CALCULATION
------------------------------------------------------------------------------

Dipole Moment Calculation                       ... on
Quadrupole Moment Calculation                   ... off
Polarizability Calculation                      ... off
GBWName                                         ... 12h2o.su.etal.mol0,1,5,6,7,9-orca.engrad-mp2.def2tzvp.frozencore.gbw
Electron density file                           ... 12h2o.su.etal.mol0,1,5,6,7,9-orca.engrad-mp2.def2tzvp.frozencore.pmp2re
The origin for moment calculation is the CENTER OF MASS  = ( 0.534033, -1.079928  2.668050)

-------------
DIPOLE MOMENT
-------------
                                X             Y             Z
Electronic contribution:      0.52340       0.13441      -0.03442
Nuclear contribution   :      1.01960       0.90936       1.35336
                        -----------------------------------------
Total Dipole Moment    :      1.54300       1.04377       1.31894
                        -----------------------------------------
Magnitude (a.u.)       :      2.28252
Magnitude (Debye)      :      5.80171



--------------------
Rotational spectrum 
--------------------
 
Rotational constants in cm-1:     0.054338     0.044625     0.033302 
Rotational constants in MHz :  1629.019439  1337.834653   998.365435 

 Dipole components along the rotational axes: 
x,y,z [a.u.] :     1.792542     1.405181     0.148896 
x,y,z [Debye]:     4.556280     3.571686     0.378462 

 

Timings for individual modules:

Sum of individual times         ...       77.864 sec (=   1.298 min)
GTO integral calculation        ...        0.943 sec (=   0.016 min)   1.2 %
SCF iterations                  ...       15.565 sec (=   0.259 min)  20.0 %
MP2 module                      ...       61.355 sec (=   1.023 min)  78.8 %
                             ****ORCA TERMINATED NORMALLY****
TOTAL RUN TIME: 0 days 0 hours 1 minutes 18 seconds 838 msec
