19
Energy:   -423.47155114
O    1.36555205   1.03118663  -0.03442289
H    1.92160206   0.96092832  -0.81037650
H    1.51846793   1.91833410   0.29087382
O    0.56189562  -1.42174368   2.53898053
H    0.00520779  -1.61360496   3.29364585
H    1.44553961  -1.36088918   2.90188805
O    2.91848025   0.59069957  -2.26034581
H    3.79678570   0.21278092  -2.21574911
H    2.88457106   1.01878679  -3.11581255
O   -3.33086767   2.10153295   0.77552385
H   -3.69504879   2.42426952   1.59980843
H   -3.68906974   2.68780440   0.10903386
O   -2.32249736  -0.40426782   0.46338043
H   -2.64452275   0.49005587   0.57614848
H   -3.11131925  -0.92700689   0.31938135
O    0.71843294  -2.12081736  -1.30678767
H    0.54998784  -3.03773367  -1.52386504
H    1.20462665  -1.78167646  -2.05834004
Na  -0.05552321  -0.72942186   0.40692903
