19
Energy:   -423.34696011
O    0.69999697  -0.72289725   3.93488252
H   -0.02223624  -0.71933203   4.56305313
H    1.47126995  -0.94323159   4.45720677
O   -0.58367986   0.15494683  -4.32795249
H   -0.90525504  -0.64856751  -4.73683628
H   -0.63624909   0.81407078  -5.02006805
O    0.55122592   1.70229786   1.67327013
H    0.39228891   1.46572783   2.58705648
H    1.01034406   2.54096586   1.71885936
O    0.60324125  -1.67082411   1.28161789
H    0.68573321  -1.44531750   2.20821041
H    0.83640544  -2.59819640   1.23864178
O    1.03245419   0.51813931  -2.12314980
H    1.91675448   0.60189702  -2.47984224
H    0.47395483   0.39998381  -2.89149191
O   -2.18343495   0.15320606  -0.55307717
H   -2.77763797  -0.55496970  -0.30479967
H   -2.71522874   0.73243085  -1.09890301
Na   0.09546660   0.16471603  -0.07242238
