19
Energy:   -426.94370467
O    0.33229047  -1.74802774  -0.57073260
H    1.26453470  -1.95960462  -0.61959735
H   -0.08658462  -2.37070257  -1.16491404
O    2.03486797   0.11438196   1.30969250
H    2.64775097  -0.43670368   0.82295758
H    2.59122603   0.65307510   1.87228228
O   -2.90899398   1.91324265  -1.96428003
H   -3.10970370   1.55419545  -2.82859049
H   -3.71930726   2.34153002  -1.68824713
O    3.02707319  -2.04157341  -0.63559083
H    3.42829496  -1.88891136  -1.49112998
H    3.36012071  -2.89671779  -0.36348922
O   -0.78756993   2.08296805  -0.26668323
H   -1.49245876   2.07909541  -0.91425453
H   -0.33305277   2.91280424  -0.41165872
O   -1.75496387  -0.15243712   2.41517766
H   -2.05742952  -0.92611409   2.89075133
H   -2.25243493   0.57208119   2.79442378
Na  -0.17187796   0.11886682   0.74092886
