19
Energy:   -434.68567759
O    0.04375882  -0.23771489  -4.20214619
H    0.56226894   0.33437614  -4.76791200
H   -0.37150568  -0.85673842  -4.80264359
O   -0.07227599   0.64520763   4.00674423
H   -0.71471097   1.09101117   4.55880252
H    0.50166357   0.19211074   4.62442411
O   -1.19824098   0.71657825  -1.94422654
H   -0.80790577   0.38857980  -2.75434214
H   -1.89737621   1.30230800  -2.23467866
O    0.94758450   1.40641349   1.46797941
H    1.57945956   2.12525811   1.45287390
H    0.69785342   1.32571174   2.38849745
O    1.19559531  -1.50431261  -1.27582324
H    1.42876312  -1.41828821  -2.20019568
H    1.70915319  -2.25081659  -0.96724267
O   -1.01467642  -1.00303211   1.87706858
H   -0.80260854  -0.54463104   2.69016607
H   -1.60464948  -1.70737688   2.14551238
Na  -0.14494644  -0.01949214  -0.02753834
