19
Energy:   -433.04895403
O   -1.52560695  -0.81651140  -1.25649153
H   -0.93834162  -0.50791611  -1.94650618
H   -2.20080866  -1.31209991  -1.71987746
O    1.21752510   0.48785030   2.27849161
H    2.11648417   0.21886140   2.08941649
H    1.24593177   0.80138930   3.18243752
O    0.62566350   0.40346641  -2.54232397
H    0.49503458   1.19472309  -2.01975265
H    0.89708688   0.72561536  -3.40184783
O   -1.89109602  -1.16007639   2.17825592
H   -1.80433473  -1.40940797   3.09833097
H   -2.78579725  -1.40836194   1.94567081
O   -0.11197073   1.91589898  -0.20343651
H   -0.82551107   2.54013104  -0.33544554
H    0.53597763   2.39733507   0.31097000
O    1.60295505  -1.09686701  -0.42200933
H    2.17543576  -1.84850692  -0.57542092
H    1.49787351  -0.69524564  -1.28449991
Na  -0.31746143  -0.32136475   0.68391265
