19
Energy:   -428.05091115
O   -2.33602159   1.92181172   0.16581459
H   -3.25640325   1.72024807  -0.00300942
H   -2.35441032   2.76266095   0.62283349
O    2.16196036  -2.62813975   1.26152186
H    3.03239714  -2.51039281   1.64192601
H    2.13041262  -3.55278955   1.01604409
O    0.83729782   0.64163711  -2.27546322
H    0.73466821   0.10158841  -3.05907435
H    1.63666835   1.14398478  -2.43321435
O    0.06615762  -0.88581324   1.38005086
H   -0.32229633  -1.06391887   2.23656342
H    0.80575024  -1.49063363   1.32151114
O    0.95207629   2.20152841   0.66741553
H    1.20918788   3.11020763   0.51112235
H    1.42951094   1.94959441   1.45786936
O   -1.85901834  -1.04714661  -1.28303154
H   -2.45301964  -1.12209186  -2.02987657
H   -1.90323247  -1.90192419  -0.85450820
Na  -0.46782443   0.60716301  -0.33704342
