19
Energy:   -422.90022407
O   -2.66104526   2.16498306  -1.66473648
H   -2.98607160   2.12677728  -2.56425304
H   -3.09321769   2.93035684  -1.28570902
O    2.25616206   1.79801190   0.10863338
H    2.97696117   1.87691641   0.73349703
H    2.12456514   2.68752489  -0.21951405
O    1.24852722  -1.63030578   1.32746563
H    0.47992865  -1.71055460   1.89230916
H    1.86728091  -2.27469273   1.67118233
O   -1.27499791   0.24407400  -0.27806615
H   -1.75817615   0.90881863  -0.76886673
H   -1.93645511  -0.17686281   0.27104078
O    1.74295979  -0.93720977  -2.40488740
H    2.59384861  -0.88268016  -2.83991222
H    1.18908890  -1.41744851  -3.02037878
O   -1.05801516  -1.74094825   2.83050650
H   -1.11643368  -1.32298579   3.68964939
H   -1.62666136  -2.50800011   2.89762415
Na   1.00762537  -0.09069971  -0.37371867
