19
Energy:   -430.24408218
O    1.95850295  -1.98495106   0.20240364
H    2.02934528  -2.81198687   0.67908485
H    2.86067025  -1.76229107  -0.02726687
O    0.00920761   1.33845180  -1.63137835
H    0.13748087   1.56285352  -2.55301911
H   -0.06019140   2.18296546  -1.18616796
O   -0.17952660  -2.06592711  -2.27689933
H   -0.75787504  -2.03045843  -3.03879624
H    0.34189063  -2.85785628  -2.40806375
O   -1.74220819  -1.49746581   0.91308904
H   -1.81798503  -1.04270693   1.75194784
H   -2.50109021  -2.08024336   0.88662670
O    0.36948663   0.67432236   1.50636193
H    0.14252846   1.60420954   1.50073373
H    0.97463873   0.57943797   2.24190237
O   -0.46679457   3.30620451   1.15239276
H   -1.35877174   3.52996451   1.41798652
H    0.03236121   4.11213609   1.28486781
Na   0.06357551  -0.71223956  -0.38647591
