19
Energy:   -428.76088013
O   -0.58296423  -1.16233169  -0.98158143
H   -0.99630064  -1.74704066  -1.61679815
H    0.29168915  -1.00259622  -1.33612043
O   -2.30165062   0.38029454   1.62205150
H   -3.06927608   0.48315285   2.18454876
H   -1.82414588  -0.35803935   2.00031612
O   -0.28361252  -1.55409384   1.87187312
H   -0.38593655  -1.88759616   0.98050459
H   -0.11780833  -2.33353038   2.40217443
O   -0.06193596   1.97638339  -2.04042767
H    0.72507745   1.45389718  -2.19486182
H   -0.05522277   2.63222377  -2.73760783
O    0.98011969   0.76633479   1.05187938
H    0.74988200  -0.03592978   1.52048797
H    1.44996060   1.29470725   1.69709556
O    1.86078454  -0.01846941  -1.59269897
H    2.71876079  -0.25982305  -1.94177920
H    2.03461841   0.24373218  -0.68867245
Na  -1.03718418   1.03414843  -0.18359258
