19
Energy:   -431.04993228
O    1.73363062   1.93005525  -0.87077102
H    1.42706195   2.81233604  -0.66141935
H    2.58010244   2.06491387  -1.29683492
O   -0.52704210  -0.90491025   1.55589637
H   -0.33748002  -1.43534447   2.32980696
H   -1.40894351  -0.56523685   1.70789547
O   -1.41607838   1.18634674  -0.62661441
H   -1.99022438   1.10466794   0.13490827
H   -1.98094618   1.53373794  -1.31688651
O    2.64976952  -1.13585556   0.46215295
H    3.32874044  -1.00621117   1.12428789
H    2.86535812  -1.97671909   0.05878968
O   -3.15676132   0.34184928   1.73535829
H   -3.43868529   0.91151837   2.45105925
H   -3.92063990  -0.20356282   1.54761644
O    0.97840307  -1.39865752  -2.30641545
H    1.30695300  -0.99089935  -3.10767700
H    0.57233402  -2.21383786  -2.60106911
Na   0.66713199  -0.07272488  -0.33001797
