19
Energy:   -423.94936736
O    3.56343731  -1.51331676  -2.16795132
H    4.28796222  -0.99290267  -2.51503154
H    3.85815768  -2.42024544  -2.25072890
O   -0.36150396   2.17931378   0.26040387
H   -0.94425017   2.55399926   0.92089572
H   -0.21455508   2.89166569  -0.36184419
O   -3.55568749   1.57176441   1.26931361
H   -4.15117833   1.94448654   0.61915923
H   -3.97587825   1.75127720   2.11041214
O   -2.02406356  -0.64343878   0.75074655
H   -2.62161620  -1.38974726   0.79750497
H   -2.57243939   0.11581667   0.94834961
O    0.92862055  -0.77573665  -1.92677544
H    1.84022554  -1.04374481  -2.04244662
H    0.52722849  -0.91361807  -2.78474104
O    1.53789225  -0.91535870   1.79516499
H    2.46962890  -0.77768586   1.96588365
H    1.24329747  -1.47811735   2.51122956
Na   0.13117544  -0.10328904   0.12507817
