19
Energy:   -435.36957605
O    0.46264441   1.41112975  -1.54746093
H    0.95534216   2.22456301  -1.65612145
H    0.32608010   1.09227012  -2.43959913
O   -0.50613912   0.50891318   4.10176342
H   -0.80352250   0.03375422   4.87766221
H   -0.09609067   1.30142655   4.44819478
O    0.13929512   0.05661734  -3.97201322
H   -0.62345402   0.12455175  -4.54632195
H    0.88444630  -0.00812198  -4.56933255
O    1.59624215  -0.53570309   1.64847555
H    1.41108770  -0.44707370   2.58340577
H    2.48169005  -0.89752395   1.61242669
O   -0.17003083  -1.67671389  -1.78173214
H   -0.03768128  -1.23025961  -2.61802995
H   -0.29689749  -2.59565627  -2.01770162
O   -1.65964292   0.21539709   1.61380879
H   -1.33575412   0.35238519   2.50406839
H   -2.61180161   0.27283798   1.69334634
Na  -0.04586312  -0.21621295   0.03479432
