19
Energy:   -439.28327814
O    0.42412993   1.00091167   1.73143308
H    0.51232489   1.63501509   2.44302731
H    0.74359923   1.46355903   0.95675338
O   -1.71678785  -0.69527326  -0.40236835
H   -2.58241720  -1.05388580  -0.59810986
H   -1.62208699   0.04432114  -1.00258807
O    1.73803148  -0.96297218  -0.48115602
H    2.50429395  -1.34237591  -0.91141928
H    1.75024839  -0.04107500  -0.73842669
O    1.18900473   1.74030535  -0.83862207
H    0.37129989   1.75363122  -1.33602840
H    1.69496515   2.47346776  -1.18892020
O   -1.28251863   1.49471485  -2.08830131
H   -1.90127578   2.21848836  -1.99071370
H   -1.28679986   1.30003050  -3.02548407
O   -0.19000083  -2.96081876   2.51519652
H   -0.53296103  -2.94931384   3.40877236
H    0.08147103  -3.86778961   2.37399185
Na   0.01928298  -1.17508046   1.05444473
