19
Energy:   -426.44603191
O   -0.07393046  -0.27637640  -2.62130631
H   -0.66463955   0.03798104  -3.30575793
H    0.48298622  -0.91862286  -3.06130079
O   -0.71117293   0.71072645   2.01599731
H   -1.12647546   1.16045702   2.75186284
H    0.22780718   0.81169602   2.17205294
O   -0.62385193   2.42245867  -0.83407390
H   -1.16065889   3.00254172  -0.29409817
H   -0.31587036   2.97800999  -1.55013390
O    1.91573552   0.58679647   0.99732705
H    2.73301248   1.07607410   1.09165422
H    2.18879281  -0.32930366   0.94801055
O    1.11630993  -1.95675441  -0.00977685
H    0.25744114  -2.30411295   0.23088535
H    1.63712618  -2.73100486  -0.22312752
O   -1.62702096  -1.47476013   0.43236249
H   -1.73734754  -1.05919025   1.28755929
H   -2.45689878  -1.92527519   0.27561161
Na  -0.06677619   0.20536248  -0.33063878
