19
Energy:   -423.30008277
O    1.21915343   0.07716849  -1.43777818
H    2.12418884  -0.21992771  -1.53199386
H    1.06280401   0.61929695  -2.21100741
O    1.09636582  -2.01197934   3.52939846
H    0.68983207  -2.68775235   4.07188624
H    2.03235067  -2.08543587   3.71586116
O   -0.08888556   0.16032645   2.37762186
H    0.32230186  -0.59014858   2.80650878
H   -0.22528555   0.79413441   3.08183373
O   -1.70683162  -1.90734611   0.12327481
H   -1.72895904  -2.68082634  -0.44017045
H   -2.25433096  -2.14078361   0.87293023
O   -1.31399437   2.11960049  -0.85009179
H   -1.97191491   2.76294291  -0.58649562
H   -1.01345931   2.42114480  -1.70740244
O    0.60774844   1.67099209  -3.63773110
H    0.47730313   1.16884170  -4.44213202
H    1.21200509   2.37035419  -3.88672589
Na  -0.49472608   0.11280872   0.10721088
