19
Energy:   -425.13204445
O    0.34657388   0.94129981  -2.90264398
H    0.39659802   0.36317387  -3.66389283
H    0.32671169   1.82393471  -3.27249934
O    1.02319055  -1.33884659   2.66971526
H    1.88992658  -1.16240517   3.03559628
H    0.60385963  -1.91191187   3.31157943
O   -2.43479365  -0.20139792  -1.53363890
H   -3.27552779  -0.21959073  -1.07640050
H   -2.62265240  -0.57147939  -2.39618203
O    1.50686401   1.75485582   0.02767637
H    1.46320802   2.62242601   0.42973104
H    2.44282250   1.59025435  -0.08686585
O    0.56049486  -1.67189847  -0.01296267
H    0.74439326  -1.61809860   0.92486397
H    0.84275517  -2.55175730  -0.26278143
O   -1.13627015   0.63494308   1.48108527
H   -0.42898366   0.49156068   2.10990891
H   -1.93529145   0.60281092   2.00716923
Na  -0.27155686   0.40289168  -0.72373472
