
                                 *****************
                                 * O   R   C   A *
                                 *****************

           --- An Ab Initio, DFT and Semiempirical electronic structure package ---

                  #######################################################
                  #                        -***-                        #
                  #          Department of theory and spectroscopy      #
                  #               Directorship: Frank Neese             #
                  #        Max Planck Institute fuer Kohlenforschung    #
                  #                Kaiser Wilhelm Platz 1               #
                  #                 D-45470 Muelheim/Ruhr               #
                  #                      Germany                        #
                  #                                                     #
                  #                  All rights reserved                #
                  #                        -***-                        #
                  #######################################################


                         Program Version 4.2.0 -  RELEASE  -


 With contributions from (in alphabetic order):
   Daniel Aravena         : Magnetic Suceptibility
   Michael Atanasov       : Ab Initio Ligand Field Theory (pilot matlab implementation)
   Alexander A. Auer      : GIAO ZORA, VPT2
   Ute Becker             : Parallelization
   Giovanni Bistoni       : ED, misc. LED, open-shell LED, HFLED
   Martin Brehm           : Molecular dynamics
   Dmytro Bykov           : SCF Hessian
   Vijay G. Chilkuri      : MRCI spin determinant printing, contributions to CSF-ICE
   Dipayan Datta          : RHF DLPNO-CCSD density
   Achintya Kumar Dutta   : EOM-CC, STEOM-CC
   Dmitry Ganyushin       : Spin-Orbit,Spin-Spin,Magnetic field MRCI
   Miquel Garcia          : C-PCM Hessian, Gaussian charge scheme
   Yang Guo               : DLPNO-NEVPT2, CIM, IAO-localization
   Andreas Hansen         : Spin unrestricted coupled pair/coupled cluster methods
   Benjamin Helmich-Paris : CASSCF linear response (MC-RPA)
   Lee Huntington         : MR-EOM, pCC
   Robert Izsak           : Overlap fitted RIJCOSX, COSX-SCS-MP3, EOM
   Christian Kollmar      : KDIIS, OOCD, Brueckner-CCSD(T), CCSD density
   Simone Kossmann        : Meta GGA functionals, TD-DFT gradient, OOMP2, MP2 Hessian
   Martin Krupicka        : AUTO-CI
   Lucas Lang             : DCDCAS
   Dagmar Lenk            : GEPOL surface, SMD
   Dimitrios Liakos       : Extrapolation schemes; Compound Job, initial MDCI parallelization
   Dimitrios Manganas     : Further ROCIS development; embedding schemes
   Dimitrios Pantazis     : SARC Basis sets
   Taras Petrenko         : DFT Hessian,TD-DFT gradient, ASA, ECA, R-Raman, ABS, FL, XAS/XES, NRVS
   Peter Pinski           : DLPNO-MP2, DLPNO-MP2 Gradient
   Christoph Reimann      : Effective Core Potentials
   Marius Retegan         : Local ZFS, SOC
   Christoph Riplinger    : Optimizer, TS searches, QM/MM, DLPNO-CCSD(T), (RO)-DLPNO pert. Triples
   Tobias Risthaus        : Range-separated hybrids, TD-DFT gradient, RPA, STAB
   Michael Roemelt        : Original ROCIS implementation
   Masaaki Saitow         : Open-shell DLPNO-CCSD energy and density
   Barbara Sandhoefer     : DKH picture change effects
   Avijit Sen             : IP-ROCIS
   Kantharuban Sivalingam : CASSCF convergence, NEVPT2, FIC-MRCI
   Bernardo de Souza      : ESD, SOC TD-DFT
   Georgi Stoychev        : AutoAux, RI-MP2 NMR
   Willem Van den Heuvel  : Paramagnetic NMR
   Boris Wezisla          : Elementary symmetry handling
   Frank Wennmohs         : Technical directorship


 We gratefully acknowledge several colleagues who have allowed us to
 interface, adapt or use parts of their codes:
   Stefan Grimme, W. Hujo, H. Kruse,             : VdW corrections, initial TS optimization,
                  C. Bannwarth                     DFT functionals, gCP, sTDA/sTD-DF
   Ed Valeev, F. Pavosevic, A. Kumar             : LibInt (2-el integral package), F12 methods
   Garnet Chan, S. Sharma, J. Yang, R. Olivares  : DMRG
   Ulf Ekstrom                                   : XCFun DFT Library
   Mihaly Kallay                                 : mrcc  (arbitrary order and MRCC methods)
   Andreas Klamt, Michael Diedenhofen            : otool_cosmo (COSMO solvation model)
   Jiri Pittner, Ondrej Demel                    : Mk-CCSD
   Frank Weinhold                                : gennbo (NPA and NBO analysis)
   Christopher J. Cramer and Donald G. Truhlar   : smd solvation model
   Lars Goerigk                                  : TD-DFT with DH, B97 family of functionals
   V. Asgeirsson, H. Jonsson                     : NEB implementation
   FAccTs GmbH                                   : IRC, NEB, NEB-TS, Multilevel, MM, QM/MM, CI optimization
   S Lehtola, MJT Oliveira, MAL Marques          : LibXC Library


 Your calculation uses the libint2 library for the computation of 2-el integrals
 For citations please refer to: http://libint.valeyev.net

 Your ORCA version has been built with support for libXC version: 4.2.3
 For citations please refer to: https://tddft.org/programs/libxc/

 This ORCA versions uses:
   CBLAS   interface :  Fast vector & matrix operations
   LAPACKE interface :  Fast linear algebra routines
   SCALAPACK package :  Parallel linear algebra routines


----- Orbital basis set information -----
Your calculation utilizes the basis: def2-TZVP
   F. Weigend and R. Ahlrichs, Phys. Chem. Chem. Phys. 7, 3297 (2005).

================================================================================
                                        WARNINGS
                       Please study these warnings very carefully!
================================================================================


WARNING: The frozen-core approximation for MP2-gradient calculations is turned on by default.

INFO   : the flag for use of LIBINT has been found!

================================================================================
                                       INPUT FILE
================================================================================
NAME = 12h2o.su.etal.mol2,3,4,5,6,11-orca.engrad-mp2.def2tzvp.frozencore.inp
|  1> # 12h2o.su.etal.mol2,3,4,5,6,11
|  2> ! MP2 def2-TZVP EnGrad TightSCF
|  3> 
|  4> %pal
|  5>     nprocs 6
|  6> end
|  7> 
|  8> %maxcore 8000
|  9> 
| 10> %scf
| 11>     ConvForced true
| 12> end
| 13> 
| 14> *xyz 0 1
| 15> O   0.923410000  -1.794470000  -2.768350000
| 16> H   1.359750000  -2.338250000  -3.430940000
| 17> H   1.303000000  -0.879480000  -2.865760000
| 18> O  -1.752130000  -0.741530000  -2.896280000
| 19> H  -2.036450000  -0.920500000  -1.984040000
| 20> H  -0.921210000  -1.242140000  -2.984230000
| 21> O  -0.885520000   1.737840000   0.052730000
| 22> H  -1.032320000   2.090180000  -0.841890000
| 23> H  -1.284090000   0.839590000   0.017130000
| 24> O   0.885520000  -1.737840000   0.052730000
| 25> H   1.284090000  -0.839590000   0.017130000
| 26> H   1.032320000  -2.090180000  -0.841890000
| 27> O   1.737840000   0.885520000  -0.052730000
| 28> H   2.090180000   1.032320000   0.841890000
| 29> H   0.839590000   1.284090000  -0.017130000
| 30> O  -0.741530000   1.752130000   2.896280000
| 31> H  -0.920500000   2.036450000   1.984040000
| 32> H  -1.242140000   0.921210000   2.984230000
| 33> *
| 34> 
| 35>                          ****END OF INPUT****
================================================================================

                     *******************************
                     * Energy+Gradient Calculation *
                     *******************************

---------------------------------
CARTESIAN COORDINATES (ANGSTROEM)
---------------------------------
  O      0.923410   -1.794470   -2.768350
  H      1.359750   -2.338250   -3.430940
  H      1.303000   -0.879480   -2.865760
  O     -1.752130   -0.741530   -2.896280
  H     -2.036450   -0.920500   -1.984040
  H     -0.921210   -1.242140   -2.984230
  O     -0.885520    1.737840    0.052730
  H     -1.032320    2.090180   -0.841890
  H     -1.284090    0.839590    0.017130
  O      0.885520   -1.737840    0.052730
  H      1.284090   -0.839590    0.017130
  H      1.032320   -2.090180   -0.841890
  O      1.737840    0.885520   -0.052730
  H      2.090180    1.032320    0.841890
  H      0.839590    1.284090   -0.017130
  O     -0.741530    1.752130    2.896280
  H     -0.920500    2.036450    1.984040
  H     -1.242140    0.921210    2.984230

----------------------------
CARTESIAN COORDINATES (A.U.)
----------------------------
  NO LB      ZA    FRAG     MASS         X           Y           Z
   0 O     8.0000    0    15.999    1.744992   -3.391057   -5.231423
   1 H     1.0000    0     1.008    2.569555   -4.418652   -6.483537
   2 H     1.0000    0     1.008    2.462313   -1.661976   -5.415502
   3 O     8.0000    0    15.999   -3.311046   -1.401289   -5.473176
   4 H     1.0000    0     1.008   -3.848333   -1.739493   -3.749292
   5 H     1.0000    0     1.008   -1.740835   -2.347304   -5.639377
   6 O     8.0000    0    15.999   -1.673390    3.284042    0.099645
   7 H     1.0000    0     1.008   -1.950802    3.949868   -1.590942
   8 H     1.0000    0     1.008   -2.426578    1.586595    0.032371
   9 O     8.0000    0    15.999    1.673390   -3.284042    0.099645
  10 H     1.0000    0     1.008    2.426578   -1.586595    0.032371
  11 H     1.0000    0     1.008    1.950802   -3.949868   -1.590942
  12 O     8.0000    0    15.999    3.284042    1.673390   -0.099645
  13 H     1.0000    0     1.008    3.949868    1.950802    1.590942
  14 H     1.0000    0     1.008    1.586595    2.426578   -0.032371
  15 O     8.0000    0    15.999   -1.401289    3.311046    5.473176
  16 H     1.0000    0     1.008   -1.739493    3.848333    3.749292
  17 H     1.0000    0     1.008   -2.347304    1.740835    5.639377

--------------------------------
INTERNAL COORDINATES (ANGSTROEM)
--------------------------------
 O      0   0   0     0.000000000000     0.00000000     0.00000000
 H      1   0   0     0.961828878803     0.00000000     0.00000000
 H      1   2   0     0.995381322057   106.21731035     0.00000000
 O      1   2   3     2.878117964938   126.72240291   103.59081140
 H      4   1   2     0.972136791249    99.37069922   136.92500856
 H      4   1   2     0.974050112161    12.30570018    24.40947955
 O      5   4   1     3.541164138161   107.84672602    83.70571148
 H      7   5   4     0.972645187106    72.17296994    29.09453504
 H      7   5   4     0.983350632989    33.04029707   190.88793319
 O      1   2   3     2.821902722526   134.92023192   245.52250503
 H     10   1   2     0.983350632989    88.66470709   117.24500673
 H     10   1   2     0.972645187106    21.75017499   343.08822912
 O     11  10   1     1.785153773264   170.81379649    89.95043540
 H     13  11  10     0.972645187106   101.65007623   109.44492584
 H     13  11  10     0.983350632989    99.09581498     3.33484705
 O      7   5   4     2.847229166523   126.48630953   195.00328214
 H     16   7   5     0.972136791249    19.08819947   226.21746260
 H     16   7   5     0.974050112161    93.43428486   350.31374249

---------------------------
INTERNAL COORDINATES (A.U.)
---------------------------
 O      0   0   0     0.000000000000     0.00000000     0.00000000
 H      1   0   0     1.817593168635     0.00000000     0.00000000
 H      1   2   0     1.880998097508   106.21731035     0.00000000
 O      1   2   3     5.438854734852   126.72240291   103.59081140
 H      4   1   2     1.837072300170    99.37069922   136.92500856
 H      4   1   2     1.840687952699    12.30570018    24.40947955
 O      5   4   1     6.691830416388   107.84672602    83.70571148
 H      7   5   4     1.838033029106    72.17296994    29.09453504
 H      7   5   4     1.858263389967    33.04029707   190.88793319
 O      1   2   3     5.332623322141   134.92023192   245.52250503
 H     10   1   2     1.858263389967    88.66470709   117.24500673
 H     10   1   2     1.838033029106    21.75017499   343.08822912
 O     11  10   1     3.373451738406   170.81379649    89.95043540
 H     13  11  10     1.838033029106   101.65007623   109.44492584
 H     13  11  10     1.858263389967    99.09581498     3.33484705
 O      7   5   4     5.380483365242   126.48630953   195.00328214
 H     16   7   5     1.837072300170    19.08819947   226.21746260
 H     16   7   5     1.840687952699    93.43428486   350.31374249

---------------------
BASIS SET INFORMATION
---------------------
There are 2 groups of distinct atoms

 Group   1 Type O   : 11s6p2d1f contracted to 5s3p2d1f pattern {62111/411/11/1}
 Group   2 Type H   : 5s1p contracted to 3s1p pattern {311/1}

Atom   0O    basis set group =>   1
Atom   1H    basis set group =>   2
Atom   2H    basis set group =>   2
Atom   3O    basis set group =>   1
Atom   4H    basis set group =>   2
Atom   5H    basis set group =>   2
Atom   6O    basis set group =>   1
Atom   7H    basis set group =>   2
Atom   8H    basis set group =>   2
Atom   9O    basis set group =>   1
Atom  10H    basis set group =>   2
Atom  11H    basis set group =>   2
Atom  12O    basis set group =>   1
Atom  13H    basis set group =>   2
Atom  14H    basis set group =>   2
Atom  15O    basis set group =>   1
Atom  16H    basis set group =>   2
Atom  17H    basis set group =>   2


           ************************************************************
           *        Program running with 6 parallel MPI-processes     *
           *              working on a common directory               *
           ************************************************************
------------------------------------------------------------------------------
                           ORCA GTO INTEGRAL CALCULATION
------------------------------------------------------------------------------

                         BASIS SET STATISTICS AND STARTUP INFO

 # of primitive gaussian shells          ...  192
 # of primitive gaussian functions       ...  372
 # of contracted shells                  ...  114
 # of contracted basis functions         ...  258
 Highest angular momentum                ...    3
 Maximum contraction depth               ...    6
 Integral package used                   ... LIBINT
 Integral threshhold            Thresh   ...  2.500e-11
 Primitive cut-off              TCut     ...  2.500e-12


------------------------------ INTEGRAL EVALUATION ----------------------------


 * One electron integrals 
 Pre-screening matrix                    ... done
 Shell pair data                         ... done (   0.001 sec)



           ************************************************************
           *        Program running with 6 parallel MPI-processes     *
           *              working on a common directory               *
           ************************************************************
-------------------------------------------------------------------------------
                                 ORCA SCF
-------------------------------------------------------------------------------

------------
SCF SETTINGS
------------
Hamiltonian:
 Ab initio Hamiltonian  Method          .... Hartree-Fock(GTOs)


General Settings:
 Integral files         IntName         .... 12h2o.su.etal.mol2,3,4,5,6,11-orca.engrad-mp2.def2tzvp.frozencore
 Hartree-Fock type      HFTyp           .... RHF
 Total Charge           Charge          ....    0
 Multiplicity           Mult            ....    1
 Number of Electrons    NEL             ....   60
 Basis Dimension        Dim             ....  258
 Nuclear Repulsion      ENuc            ....    266.6249095048 Eh

Convergence Acceleration:
 DIIS                   CNVDIIS         .... on
   Start iteration      DIISMaxIt       ....    12
   Startup error        DIISStart       ....  0.200000
   # of expansion vecs  DIISMaxEq       ....     5
   Bias factor          DIISBfac        ....   1.050
   Max. coefficient     DIISMaxC        ....  10.000
 Newton-Raphson         CNVNR           .... off
 SOSCF                  CNVSOSCF        .... on
   Start iteration      SOSCFMaxIt      ....   150
   Startup grad/error   SOSCFStart      ....  0.003300
 Level Shifting         CNVShift        .... on
   Level shift para.    LevelShift      ....    0.2500
   Turn off err/grad.   ShiftErr        ....    0.0010
 Zerner damping         CNVZerner       .... off
 Static damping         CNVDamp         .... on
   Fraction old density DampFac         ....    0.7000
   Max. Damping (<1)    DampMax         ....    0.9800
   Min. Damping (>=0)   DampMin         ....    0.0000
   Turn off err/grad.   DampErr         ....    0.1000
 Fernandez-Rico         CNVRico         .... off

SCF Procedure:
 Maximum # iterations   MaxIter         ....   125
 SCF integral mode      SCFMode         .... Direct
   Integral package                     .... LIBINT
 Reset frequency        DirectResetFreq ....    20
 Integral Threshold     Thresh          ....  2.500e-11 Eh
 Primitive CutOff       TCut            ....  2.500e-12 Eh

Convergence Tolerance:
 Convergence Check Mode ConvCheckMode   .... Total+1el-Energy
 Convergence forced     ConvForced      .... 1
 Energy Change          TolE            ....  1.000e-08 Eh
 1-El. energy change                    ....  1.000e-05 Eh
 Orbital Gradient       TolG            ....  1.000e-05
 Orbital Rotation angle TolX            ....  1.000e-05
 DIIS Error             TolErr          ....  5.000e-07


Diagonalization of the overlap matrix:
Smallest eigenvalue                        ... 3.891e-03
Time for diagonalization                   ...    0.010 sec
Threshold for overlap eigenvalues          ... 1.000e-08
Number of eigenvalues below threshold      ... 0
Time for construction of square roots      ...    0.005 sec
Total time needed                          ...    0.015 sec

-------------------
DFT GRID GENERATION
-------------------

General Integration Accuracy     IntAcc      ...  4.340
Radial Grid Type                 RadialGrid  ... Gauss-Chebyshev
Angular Grid (max. acc.)         AngularGrid ... Lebedev-110
Angular grid pruning method      GridPruning ... 3 (G Style)
Weight generation scheme         WeightScheme... Becke
Basis function cutoff            BFCut       ...    1.0000e-11
Integration weight cutoff        WCut        ...    1.0000e-14
Grids for H and He will be reduced by one unit

# of grid points (after initial pruning)     ...  19824 (   0.0 sec)
# of grid points (after weights+screening)   ...  18721 (   0.0 sec)
nearest neighbour list constructed           ...    0.0 sec
Grid point re-assignment to atoms done       ...    0.0 sec
Grid point division into batches done        ...    0.0 sec
Reduced shell lists constructed in    0.0 sec

Total number of grid points                  ...    18721
Total number of batches                      ...      303
Average number of points per batch           ...       61
Average number of grid points per atom       ...     1040
Average number of shells per batch           ...    54.48 (47.79%)
Average number of basis functions per batch  ...   109.94 (42.61%)
Average number of large shells per batch     ...    38.67 (70.98%)
Average number of large basis fcns per batch ...    76.33 (69.42%)
Maximum spatial batch extension              ...  16.16, 16.27, 14.85 au
Average spatial batch extension              ...   0.69,  0.65,  0.64 au

Time for grid setup =    0.055 sec

------------------------------
INITIAL GUESS: MODEL POTENTIAL
------------------------------
Loading Hartree-Fock densities                     ... done
Calculating cut-offs                               ... done
Setting up the integral package                    ... done
Initializing the effective Hamiltonian             ... done
Starting the Coulomb interaction                   ... done (   0.0 sec)
Reading the grid                                   ... done
Mapping shells                                     ... done
Starting the XC term evaluation                    ... done (   0.0 sec)
Transforming the Hamiltonian                       ... done (   0.0 sec)
Diagonalizing the Hamiltonian                      ... done (   0.0 sec)
Back transforming the eigenvectors                 ... done (   0.0 sec)
Now organizing SCF variables                       ... done
                      ------------------
                      INITIAL GUESS DONE (   0.2 sec)
                      ------------------
--------------
SCF ITERATIONS
--------------
ITER       Energy         Delta-E        Max-DP      RMS-DP      [F,P]     Damp
               ***  Starting incremental Fock matrix formation  ***
  0   -455.8278466974   0.000000000000 0.04469039  0.00097091  0.3481848 0.7000
  1   -456.0399492416  -0.212102544210 0.02960764  0.00067216  0.2169466 0.7000
                               ***Turning on DIIS***
  2   -456.1520999971  -0.112150755475 0.01654770  0.00037496  0.1636736 0.7000
  3   -457.1408306519  -0.988730654753 0.00764784  0.00017183  0.1218473 0.7000
  4   -456.9393911212   0.201439530658 0.01736012  0.00039994  0.0862082 0.0000
  5   -456.4094445440   0.529946577225 0.00235744  0.00006532  0.0056218 0.0000
                      *** Initiating the SOSCF procedure ***
                           *** Shutting down DIIS ***
                      *** Re-Reading the Fockian *** 
                      *** Removing any level shift *** 
ITER      Energy       Delta-E        Grad      Rot      Max-DP    RMS-DP
  6   -456.37741885   0.0320256893  0.000853  0.000853  0.001542  0.000040
               *** Restarting incremental Fock matrix formation ***
  7   -456.36861269   0.0088061619  0.000289  0.000390  0.000748  0.000017
  8   -456.36862170  -0.0000090039  0.000117  0.000313  0.000564  0.000014
  9   -456.36862383  -0.0000021320  0.000061  0.000042  0.000101  0.000003
 10   -456.36862400  -0.0000001753  0.000010  0.000007  0.000021  0.000000
                  ***Gradient check signals convergence***
              ***Rediagonalizing the Fockian in SOSCF/NRSCF***

               *****************************************************
               *                     SUCCESS                       *
               *           SCF CONVERGED AFTER  11 CYCLES          *
               *****************************************************


----------------
TOTAL SCF ENERGY
----------------

Total Energy       :         -456.36862401 Eh          -12418.42160 eV

Components:
Nuclear Repulsion  :          266.62490950 Eh            7255.23264 eV
Electronic Energy  :         -722.99353351 Eh          -19673.65424 eV
One Electron Energy:        -1161.01571697 Eh          -31592.84381 eV
Two Electron Energy:          438.02218346 Eh           11919.18957 eV

Virial components:
Potential Energy   :         -912.10948610 Eh          -24819.76093 eV
Kinetic Energy     :          455.74086209 Eh           12401.33933 eV
Virial Ratio       :            2.00137745


---------------
SCF CONVERGENCE
---------------

  Last Energy change         ...   -4.3731e-09  Tolerance :   1.0000e-08
  Last MAX-Density change    ...    4.9634e-06  Tolerance :   1.0000e-07
  Last RMS-Density change    ...    1.3665e-07  Tolerance :   5.0000e-09
  Last Orbital Gradient      ...    2.3653e-06  Tolerance :   1.0000e-05
  Last Orbital Rotation      ...    2.6574e-06  Tolerance :   1.0000e-05

             **** THE GBW FILE WAS UPDATED (12h2o.su.etal.mol2,3,4,5,6,11-orca.engrad-mp2.def2tzvp.frozencore.gbw) ****
             **** DENSITY FILE WAS UPDATED (12h2o.su.etal.mol2,3,4,5,6,11-orca.engrad-mp2.def2tzvp.frozencore.scfp) ****
             **** ENERGY FILE WAS UPDATED (12h2o.su.etal.mol2,3,4,5,6,11-orca.engrad-mp2.def2tzvp.frozencore.en.tmp) ****
             **** THE GBW FILE WAS UPDATED (12h2o.su.etal.mol2,3,4,5,6,11-orca.engrad-mp2.def2tzvp.frozencore.gbw) ****
             **** DENSITY FILE WAS UPDATED (12h2o.su.etal.mol2,3,4,5,6,11-orca.engrad-mp2.def2tzvp.frozencore.scfp) ****
----------------
ORBITAL ENERGIES
----------------

  NO   OCC          E(Eh)            E(eV) 
   0   2.0000     -20.623332      -561.1894 
   1   2.0000     -20.612100      -560.8838 
   2   2.0000     -20.565583      -559.6180 
   3   2.0000     -20.554240      -559.3093 
   4   2.0000     -20.546499      -559.0987 
   5   2.0000     -20.512322      -558.1687 
   6   2.0000      -1.406479       -38.2722 
   7   2.0000      -1.392352       -37.8878 
   8   2.0000      -1.351268       -36.7699 
   9   2.0000      -1.336230       -36.3607 
  10   2.0000      -1.328380       -36.1471 
  11   2.0000      -1.296472       -35.2788 
  12   2.0000      -0.764298       -20.7976 
  13   2.0000      -0.758100       -20.6290 
  14   2.0000      -0.722640       -19.6640 
  15   2.0000      -0.705935       -19.2095 
  16   2.0000      -0.700782       -19.0693 
  17   2.0000      -0.680947       -18.5295 
  18   2.0000      -0.643978       -17.5235 
  19   2.0000      -0.629905       -17.1406 
  20   2.0000      -0.604831       -16.4583 
  21   2.0000      -0.584361       -15.9013 
  22   2.0000      -0.566027       -15.4024 
  23   2.0000      -0.558838       -15.2068 
  24   2.0000      -0.549967       -14.9654 
  25   2.0000      -0.532701       -14.4955 
  26   2.0000      -0.501426       -13.6445 
  27   2.0000      -0.499964       -13.6047 
  28   2.0000      -0.492589       -13.4040 
  29   2.0000      -0.463229       -12.6051 
  30   0.0000       0.080985         2.2037 
  31   0.0000       0.110823         3.0156 
  32   0.0000       0.147252         4.0069 
  33   0.0000       0.150777         4.1029 
  34   0.0000       0.169921         4.6238 
  35   0.0000       0.185603         5.0505 
  36   0.0000       0.229437         6.2433 
  37   0.0000       0.245740         6.6869 
  38   0.0000       0.260698         7.0939 
  39   0.0000       0.289517         7.8782 
  40   0.0000       0.308676         8.3995 
  41   0.0000       0.338527         9.2118 
  42   0.0000       0.440142        11.9769 
  43   0.0000       0.450870        12.2688 
  44   0.0000       0.490529        13.3480 
  45   0.0000       0.497757        13.5446 
  46   0.0000       0.510663        13.8958 
  47   0.0000       0.521263        14.1843 
  48   0.0000       0.537408        14.6236 
  49   0.0000       0.543844        14.7987 
  50   0.0000       0.557712        15.1761 
  51   0.0000       0.567881        15.4528 
  52   0.0000       0.598485        16.2856 
  53   0.0000       0.601700        16.3731 
  54   0.0000       0.610678        16.6174 
  55   0.0000       0.616685        16.7809 
  56   0.0000       0.617629        16.8065 
  57   0.0000       0.626012        17.0346 
  58   0.0000       0.644663        17.5422 
  59   0.0000       0.670184        18.2366 
  60   0.0000       0.686608        18.6836 
  61   0.0000       0.715740        19.4763 
  62   0.0000       0.726503        19.7691 
  63   0.0000       0.734773        19.9942 
  64   0.0000       0.739349        20.1187 
  65   0.0000       0.749388        20.3919 
  66   0.0000       0.770225        20.9589 
  67   0.0000       0.797529        21.7019 
  68   0.0000       0.802964        21.8498 
  69   0.0000       0.836642        22.7662 
  70   0.0000       0.854415        23.2498 
  71   0.0000       0.884437        24.0667 
  72   0.0000       0.915242        24.9050 
  73   0.0000       0.939758        25.5721 
  74   0.0000       0.979385        26.6504 
  75   0.0000       1.001395        27.2493 
  76   0.0000       1.035088        28.1662 
  77   0.0000       1.079783        29.3824 
  78   0.0000       1.339327        36.4449 
  79   0.0000       1.356600        36.9150 
  80   0.0000       1.370150        37.2837 
  81   0.0000       1.391753        37.8715 
  82   0.0000       1.405433        38.2438 
  83   0.0000       1.418200        38.5912 
  84   0.0000       1.425454        38.7886 
  85   0.0000       1.449561        39.4446 
  86   0.0000       1.459221        39.7074 
  87   0.0000       1.480914        40.2977 
  88   0.0000       1.491693        40.5910 
  89   0.0000       1.522239        41.4222 
  90   0.0000       1.550268        42.1849 
  91   0.0000       1.566859        42.6364 
  92   0.0000       1.587226        43.1906 
  93   0.0000       1.592312        43.3290 
  94   0.0000       1.596626        43.4464 
  95   0.0000       1.653981        45.0071 
  96   0.0000       1.792104        48.7656 
  97   0.0000       1.806327        49.1526 
  98   0.0000       1.813088        49.3366 
  99   0.0000       1.826778        49.7091 
 100   0.0000       1.840211        50.0747 
 101   0.0000       1.855264        50.4843 
 102   0.0000       1.876105        51.0514 
 103   0.0000       1.950796        53.0839 
 104   0.0000       1.956662        53.2435 
 105   0.0000       1.971198        53.6390 
 106   0.0000       1.995059        54.2883 
 107   0.0000       2.013551        54.7915 
 108   0.0000       2.029790        55.2334 
 109   0.0000       2.056667        55.9648 
 110   0.0000       2.087734        56.8101 
 111   0.0000       2.112809        57.4925 
 112   0.0000       2.142567        58.3022 
 113   0.0000       2.186172        59.4888 
 114   0.0000       2.253127        61.3107 
 115   0.0000       2.265332        61.6428 
 116   0.0000       2.289651        62.3046 
 117   0.0000       2.294269        62.4302 
 118   0.0000       2.316996        63.0487 
 119   0.0000       2.320228        63.1366 
 120   0.0000       2.326950        63.3195 
 121   0.0000       2.358380        64.1748 
 122   0.0000       2.366407        64.3932 
 123   0.0000       2.376639        64.6716 
 124   0.0000       2.382880        64.8415 
 125   0.0000       2.402640        65.3792 
 126   0.0000       2.439414        66.3798 
 127   0.0000       2.455479        66.8170 
 128   0.0000       2.458723        66.9053 
 129   0.0000       2.483300        67.5740 
 130   0.0000       2.520597        68.5889 
 131   0.0000       2.571673        69.9788 
 132   0.0000       2.581119        70.2358 
 133   0.0000       2.593924        70.5843 
 134   0.0000       2.611712        71.0683 
 135   0.0000       2.613860        71.1267 
 136   0.0000       2.625494        71.4433 
 137   0.0000       2.655752        72.2667 
 138   0.0000       2.679818        72.9216 
 139   0.0000       2.693162        73.2847 
 140   0.0000       2.702240        73.5317 
 141   0.0000       2.712381        73.8076 
 142   0.0000       2.735689        74.4419 
 143   0.0000       2.768772        75.3421 
 144   0.0000       2.887282        78.5669 
 145   0.0000       2.898322        78.8674 
 146   0.0000       2.914947        79.3197 
 147   0.0000       2.939107        79.9772 
 148   0.0000       2.952939        80.3536 
 149   0.0000       2.967722        80.7558 
 150   0.0000       2.973357        80.9091 
 151   0.0000       2.986006        81.2533 
 152   0.0000       3.001943        81.6870 
 153   0.0000       3.020286        82.1862 
 154   0.0000       3.044952        82.8574 
 155   0.0000       3.060098        83.2695 
 156   0.0000       3.115466        84.7761 
 157   0.0000       3.131534        85.2134 
 158   0.0000       3.147545        85.6491 
 159   0.0000       3.169771        86.2538 
 160   0.0000       3.217927        87.5643 
 161   0.0000       3.240699        88.1839 
 162   0.0000       3.252033        88.4923 
 163   0.0000       3.269964        88.9803 
 164   0.0000       3.307927        90.0133 
 165   0.0000       3.333408        90.7067 
 166   0.0000       3.405596        92.6710 
 167   0.0000       3.469493        94.4097 
 168   0.0000       3.974345       108.1474 
 169   0.0000       3.998330       108.8001 
 170   0.0000       4.043368       110.0256 
 171   0.0000       4.055125       110.3456 
 172   0.0000       4.105955       111.7287 
 173   0.0000       4.131833       112.4329 
 174   0.0000       4.248112       115.5970 
 175   0.0000       4.269933       116.1908 
 176   0.0000       4.323778       117.6560 
 177   0.0000       4.326757       117.7371 
 178   0.0000       4.332793       117.9013 
 179   0.0000       4.383341       119.2768 
 180   0.0000       5.485220       149.2604 
 181   0.0000       5.502266       149.7243 
 182   0.0000       5.535247       150.6217 
 183   0.0000       5.552558       151.0928 
 184   0.0000       5.561679       151.3410 
 185   0.0000       5.590250       152.1184 
 186   0.0000       5.596912       152.2997 
 187   0.0000       5.612486       152.7235 
 188   0.0000       5.658797       153.9837 
 189   0.0000       5.665613       154.1692 
 190   0.0000       5.666953       154.2056 
 191   0.0000       5.698501       155.0641 
 192   0.0000       5.761113       156.7679 
 193   0.0000       5.764758       156.8670 
 194   0.0000       5.788490       157.5128 
 195   0.0000       5.805430       157.9738 
 196   0.0000       5.818373       158.3260 
 197   0.0000       5.826629       158.5506 
 198   0.0000       5.831819       158.6919 
 199   0.0000       5.839169       158.8919 
 200   0.0000       5.846956       159.1038 
 201   0.0000       5.865653       159.6125 
 202   0.0000       5.872403       159.7962 
 203   0.0000       5.880194       160.0082 
 204   0.0000       5.882204       160.0629 
 205   0.0000       5.888976       160.2472 
 206   0.0000       5.902250       160.6084 
 207   0.0000       5.913399       160.9118 
 208   0.0000       5.914257       160.9351 
 209   0.0000       5.943853       161.7405 
 210   0.0000       6.382848       173.6861 
 211   0.0000       6.411456       174.4646 
 212   0.0000       6.459023       175.7589 
 213   0.0000       6.489586       176.5906 
 214   0.0000       6.502941       176.9540 
 215   0.0000       6.515457       177.2946 
 216   0.0000       6.640466       180.6963 
 217   0.0000       6.660558       181.2430 
 218   0.0000       6.679404       181.7558 
 219   0.0000       6.707176       182.5115 
 220   0.0000       6.743147       183.4904 
 221   0.0000       6.756822       183.8625 
 222   0.0000       6.827476       185.7851 
 223   0.0000       6.830243       185.8604 
 224   0.0000       6.837758       186.0649 
 225   0.0000       6.848500       186.3571 
 226   0.0000       6.851789       186.4467 
 227   0.0000       6.862321       186.7332 
 228   0.0000       6.875338       187.0874 
 229   0.0000       6.885094       187.3529 
 230   0.0000       6.892849       187.5640 
 231   0.0000       6.903343       187.8495 
 232   0.0000       6.904979       187.8940 
 233   0.0000       6.945702       189.0022 
 234   0.0000       6.959273       189.3715 
 235   0.0000       6.965483       189.5404 
 236   0.0000       6.984304       190.0526 
 237   0.0000       6.992376       190.2722 
 238   0.0000       7.024513       191.1467 
 239   0.0000       7.044292       191.6849 
 240   0.0000       7.328787       199.4264 
 241   0.0000       7.343472       199.8260 
 242   0.0000       7.382532       200.8889 
 243   0.0000       7.403571       201.4614 
 244   0.0000       7.425274       202.0520 
 245   0.0000       7.462930       203.0767 
 246   0.0000       7.490671       203.8315 
 247   0.0000       7.506032       204.2495 
 248   0.0000       7.545743       205.3301 
 249   0.0000       7.552164       205.5048 
 250   0.0000       7.574101       206.1018 
 251   0.0000       7.631455       207.6625 
 252   0.0000      44.888319      1221.4733 
 253   0.0000      44.907948      1222.0074 
 254   0.0000      44.925701      1222.4905 
 255   0.0000      44.945943      1223.0413 
 256   0.0000      45.028667      1225.2923 
 257   0.0000      45.049083      1225.8479 

                    ********************************
                    * MULLIKEN POPULATION ANALYSIS *
                    ********************************

-----------------------
MULLIKEN ATOMIC CHARGES
-----------------------
   0 O :   -0.742474
   1 H :    0.372733
   2 H :    0.383955
   3 O :   -0.726509
   4 H :    0.334062
   5 H :    0.382625
   6 O :   -0.745189
   7 H :    0.386511
   8 H :    0.376353
   9 O :   -0.769608
  10 H :    0.368561
  11 H :    0.370734
  12 O :   -0.753240
  13 H :    0.369313
  14 H :    0.390106
  15 O :   -0.714779
  16 H :    0.380327
  17 H :    0.336518
Sum of atomic charges:    0.0000000

--------------------------------
MULLIKEN REDUCED ORBITAL CHARGES
--------------------------------
  0 O s       :     3.807909  s :     3.807909
      pz      :     1.734587  p :     4.908993
      px      :     1.791235
      py      :     1.383171
      dz2     :     0.004163  d :     0.024094
      dxz     :     0.005450
      dyz     :     0.004625
      dx2y2   :     0.002559
      dxy     :     0.007297
      f0      :     0.000086  f :     0.001478
      f+1     :     0.000180
      f-1     :     0.000336
      f+2     :     0.000062
      f-2     :     0.000349
      f+3     :     0.000372
      f-3     :     0.000093
  1 H s       :     0.582289  s :     0.582289
      pz      :     0.017021  p :     0.044978
      px      :     0.014645
      py      :     0.013311
  2 H s       :     0.575480  s :     0.575480
      pz      :     0.010451  p :     0.040564
      px      :     0.012137
      py      :     0.017976
  3 O s       :     3.809489  s :     3.809489
      pz      :     1.491081  p :     4.890134
      px      :     1.576465
      py      :     1.822588
      dz2     :     0.012052  d :     0.025400
      dxz     :     0.001282
      dyz     :     0.002940
      dx2y2   :     0.002040
      dxy     :     0.007087
      f0      :     0.000272  f :     0.001486
      f+1     :     0.000380
      f-1     :     0.000169
      f+2     :     0.000056
      f-2     :     0.000056
      f+3     :     0.000064
      f-3     :     0.000489
  4 H s       :     0.620908  s :     0.620908
      pz      :     0.018616  p :     0.045030
      px      :     0.012408
      py      :     0.014006
  5 H s       :     0.567346  s :     0.567346
      pz      :     0.009843  p :     0.050029
      px      :     0.023855
      py      :     0.016330
  6 O s       :     3.805463  s :     3.805463
      pz      :     1.577337  p :     4.913621
      px      :     1.853579
      py      :     1.482705
      dz2     :     0.011215  d :     0.024675
      dxz     :     0.002160
      dyz     :     0.002662
      dx2y2   :     0.003519
      dxy     :     0.005119
      f0      :     0.000185  f :     0.001430
      f+1     :     0.000117
      f-1     :     0.000456
      f+2     :     0.000069
      f-2     :     0.000038
      f+3     :     0.000456
      f-3     :     0.000109
  7 H s       :     0.570007  s :     0.570007
      pz      :     0.019301  p :     0.043482
      px      :     0.012898
      py      :     0.011283
  8 H s       :     0.582070  s :     0.582070
      pz      :     0.009061  p :     0.041577
      px      :     0.013656
      py      :     0.018860
  9 O s       :     3.806603  s :     3.806603
      pz      :     1.572466  p :     4.937346
      px      :     1.872068
      py      :     1.492813
      dz2     :     0.011043  d :     0.024266
      dxz     :     0.002497
      dyz     :     0.002862
      dx2y2   :     0.002975
      dxy     :     0.004888
      f0      :     0.000169  f :     0.001393
      f+1     :     0.000118
      f-1     :     0.000440
      f+2     :     0.000076
      f-2     :     0.000040
      f+3     :     0.000438
      f-3     :     0.000113
 10 H s       :     0.576937  s :     0.576937
      pz      :     0.009899  p :     0.054502
      px      :     0.015829
      py      :     0.028774
 11 H s       :     0.580346  s :     0.580346
      pz      :     0.023703  p :     0.048921
      px      :     0.013660
      py      :     0.011557
 12 O s       :     3.801342  s :     3.801342
      pz      :     1.560016  p :     4.925903
      px      :     1.519384
      py      :     1.846502
      dz2     :     0.011632  d :     0.024615
      dxz     :     0.002830
      dyz     :     0.002154
      dx2y2   :     0.003324
      dxy     :     0.004676
      f0      :     0.000172  f :     0.001380
      f+1     :     0.000464
      f-1     :     0.000115
      f+2     :     0.000069
      f-2     :     0.000042
      f+3     :     0.000100
      f-3     :     0.000419
 13 H s       :     0.586964  s :     0.586964
      pz      :     0.018926  p :     0.043723
      px      :     0.011543
      py      :     0.013254
 14 H s       :     0.556930  s :     0.556930
      pz      :     0.009394  p :     0.052964
      px      :     0.028763
      py      :     0.014807
 15 O s       :     3.811826  s :     3.811826
      pz      :     1.544600  p :     4.875619
      px      :     1.814492
      py      :     1.516526
      dz2     :     0.011817  d :     0.025836
      dxz     :     0.003067
      dyz     :     0.001255
      dx2y2   :     0.002126
      dxy     :     0.007571
      f0      :     0.000253  f :     0.001499
      f+1     :     0.000168
      f-1     :     0.000375
      f+2     :     0.000056
      f-2     :     0.000056
      f+3     :     0.000521
      f-3     :     0.000070
 16 H s       :     0.570920  s :     0.570920
      pz      :     0.023783  p :     0.048753
      px      :     0.013224
      py      :     0.011745
 17 H s       :     0.618497  s :     0.618497
      pz      :     0.010979  p :     0.044984
      px      :     0.015873
      py      :     0.018132


                     *******************************
                     * LOEWDIN POPULATION ANALYSIS *
                     *******************************

----------------------
LOEWDIN ATOMIC CHARGES
----------------------
   0 O :   -0.296908
   1 H :    0.167099
   2 H :    0.193587
   3 O :   -0.346051
   4 H :    0.156420
   5 H :    0.155303
   6 O :   -0.286349
   7 H :    0.180646
   8 H :    0.182364
   9 O :   -0.375703
  10 H :    0.143647
  11 H :    0.146344
  12 O :   -0.322491
  13 H :    0.172129
  14 H :    0.152489
  15 O :   -0.338425
  16 H :    0.154256
  17 H :    0.161642

-------------------------------
LOEWDIN REDUCED ORBITAL CHARGES
-------------------------------
  0 O s       :     3.462764  s :     3.462764
      pz      :     1.688850  p :     4.800457
      px      :     1.746799
      py      :     1.364808
      dz2     :     0.005577  d :     0.031617
      dxz     :     0.005350
      dyz     :     0.006800
      dx2y2   :     0.004252
      dxy     :     0.009639
      f0      :     0.000094  f :     0.002069
      f+1     :     0.000270
      f-1     :     0.000449
      f+2     :     0.000033
      f-2     :     0.000600
      f+3     :     0.000531
      f-3     :     0.000091
  1 H s       :     0.668721  s :     0.668721
      pz      :     0.066875  p :     0.164179
      px      :     0.052709
      py      :     0.044595
  2 H s       :     0.657325  s :     0.657325
      pz      :     0.033354  p :     0.149088
      px      :     0.043432
      py      :     0.072303
  3 O s       :     3.466585  s :     3.466585
      pz      :     1.502843  p :     4.845561
      px      :     1.548731
      py      :     1.793987
      dz2     :     0.016453  d :     0.031776
      dxz     :     0.002219
      dyz     :     0.002409
      dx2y2   :     0.002059
      dxy     :     0.008637
      f0      :     0.000508  f :     0.002130
      f+1     :     0.000583
      f-1     :     0.000314
      f+2     :     0.000025
      f-2     :     0.000050
      f+3     :     0.000002
      f-3     :     0.000647
  4 H s       :     0.685257  s :     0.685257
      pz      :     0.079220  p :     0.158323
      px      :     0.036408
      py      :     0.042695
  5 H s       :     0.671945  s :     0.671945
      pz      :     0.029487  p :     0.172751
      px      :     0.085520
      py      :     0.057745
  6 O s       :     3.461309  s :     3.461309
      pz      :     1.541936  p :     4.790669
      px      :     1.788824
      py      :     1.459910
      dz2     :     0.015424  d :     0.032297
      dxz     :     0.001361
      dyz     :     0.003877
      dx2y2   :     0.005185
      dxy     :     0.006449
      f0      :     0.000364  f :     0.002074
      f+1     :     0.000204
      f-1     :     0.000738
      f+2     :     0.000040
      f-2     :     0.000044
      f+3     :     0.000611
      f-3     :     0.000072
  7 H s       :     0.660203  s :     0.660203
      pz      :     0.081318  p :     0.159151
      px      :     0.042403
      py      :     0.035430
  8 H s       :     0.663105  s :     0.663105
      pz      :     0.029252  p :     0.154530
      px      :     0.049207
      py      :     0.076071
  9 O s       :     3.465354  s :     3.465354
      pz      :     1.562555  p :     4.878911
      px      :     1.836212
      py      :     1.480144
      dz2     :     0.013914  d :     0.029476
      dxz     :     0.001596
      dyz     :     0.004034
      dx2y2   :     0.003919
      dxy     :     0.006013
      f0      :     0.000359  f :     0.001962
      f+1     :     0.000187
      f-1     :     0.000709
      f+2     :     0.000043
      f-2     :     0.000043
      f+3     :     0.000553
      f-3     :     0.000066
 10 H s       :     0.670553  s :     0.670553
      pz      :     0.030473  p :     0.185800
      px      :     0.052814
      py      :     0.102513
 11 H s       :     0.682097  s :     0.682097
      pz      :     0.090538  p :     0.171560
      px      :     0.043534
      py      :     0.037488
 12 O s       :     3.461759  s :     3.461759
      pz      :     1.551647  p :     4.828311
      px      :     1.487131
      py      :     1.789533
      dz2     :     0.014511  d :     0.030413
      dxz     :     0.003978
      dyz     :     0.001334
      dx2y2   :     0.004809
      dxy     :     0.005781
      f0      :     0.000364  f :     0.002008
      f+1     :     0.000741
      f-1     :     0.000202
      f+2     :     0.000041
      f-2     :     0.000046
      f+3     :     0.000067
      f-3     :     0.000547
 13 H s       :     0.668051  s :     0.668051
      pz      :     0.079928  p :     0.159820
      px      :     0.036848
      py      :     0.043045
 14 H s       :     0.662860  s :     0.662860
      pz      :     0.029365  p :     0.184651
      px      :     0.102584
      py      :     0.052702
 15 O s       :     3.468245  s :     3.468245
      pz      :     1.530204  p :     4.835451
      px      :     1.785946
      py      :     1.519301
      dz2     :     0.015735  d :     0.032575
      dxz     :     0.002397
      dyz     :     0.001926
      dx2y2   :     0.002392
      dxy     :     0.010126
      f0      :     0.000450  f :     0.002154
      f+1     :     0.000320
      f-1     :     0.000569
      f+2     :     0.000024
      f-2     :     0.000045
      f+3     :     0.000742
      f-3     :     0.000003
 16 H s       :     0.676386  s :     0.676386
      pz      :     0.091286  p :     0.169358
      px      :     0.042201
      py      :     0.035871
 17 H s       :     0.681241  s :     0.681241
      pz      :     0.031133  p :     0.157116
      px      :     0.054731
      py      :     0.071252


                      *****************************
                      * MAYER POPULATION ANALYSIS *
                      *****************************

  NA   - Mulliken gross atomic population
  ZA   - Total nuclear charge
  QA   - Mulliken gross atomic charge
  VA   - Mayer's total valence
  BVA  - Mayer's bonded valence
  FA   - Mayer's free valence

  ATOM       NA         ZA         QA         VA         BVA        FA
  0 O      8.7425     8.0000    -0.7425     1.7573     1.7573     0.0000
  1 H      0.6273     1.0000     0.3727     0.8768     0.8768     0.0000
  2 H      0.6160     1.0000     0.3840     0.8677     0.8677    -0.0000
  3 O      8.7265     8.0000    -0.7265     1.7507     1.7507     0.0000
  4 H      0.6659     1.0000     0.3341     0.9041     0.9041     0.0000
  5 H      0.6174     1.0000     0.3826     0.8839     0.8839    -0.0000
  6 O      8.7452     8.0000    -0.7452     1.7556     1.7556     0.0000
  7 H      0.6135     1.0000     0.3865     0.8675     0.8675     0.0000
  8 H      0.6236     1.0000     0.3764     0.8822     0.8822     0.0000
  9 O      8.7696     8.0000    -0.7696     1.6989     1.6989     0.0000
 10 H      0.6314     1.0000     0.3686     0.9061     0.9061    -0.0000
 11 H      0.6293     1.0000     0.3707     0.8867     0.8867     0.0000
 12 O      8.7532     8.0000    -0.7532     1.7274     1.7274     0.0000
 13 H      0.6307     1.0000     0.3693     0.8792     0.8792    -0.0000
 14 H      0.6099     1.0000     0.3901     0.8820     0.8820     0.0000
 15 O      8.7148     8.0000    -0.7148     1.7663     1.7663     0.0000
 16 H      0.6197     1.0000     0.3803     0.8762     0.8762     0.0000
 17 H      0.6635     1.0000     0.3365     0.9013     0.9013    -0.0000

  Mayer bond orders larger than 0.100000
B(  0-O ,  1-H ) :   0.8673 B(  0-O ,  2-H ) :   0.8549 B(  3-O ,  4-H ) :   0.8972 
B(  3-O ,  5-H ) :   0.8492 B(  6-O ,  7-H ) :   0.8574 B(  6-O ,  8-H ) :   0.8569 
B(  9-O , 10-H ) :   0.8378 B(  9-O , 11-H ) :   0.8684 B( 12-O , 13-H ) :   0.8722 
B( 12-O , 14-H ) :   0.8270 B( 15-O , 16-H ) :   0.8604 B( 15-O , 17-H ) :   0.8963 


-------
TIMINGS
-------

Total SCF time: 0 days 0 hours 0 min 11 sec 

Total time                  ....      11.341 sec
Sum of individual times     ....      11.097 sec  ( 97.9%)

Fock matrix formation       ....      10.759 sec  ( 94.9%)
Diagonalization             ....       0.072 sec  (  0.6%)
Density matrix formation    ....       0.009 sec  (  0.1%)
Population analysis         ....       0.008 sec  (  0.1%)
Initial guess               ....       0.140 sec  (  1.2%)
Orbital Transformation      ....       0.000 sec  (  0.0%)
Orbital Orthonormalization  ....       0.000 sec  (  0.0%)
DIIS solution               ....       0.026 sec  (  0.2%)
SOSCF solution              ....       0.029 sec  (  0.3%)


           ************************************************************
           *        Program running with 6 parallel MPI-processes     *
           *              working on a common directory               *
           ************************************************************

------------------------------------------------------------------------------
                                ORCA  MP2 
------------------------------------------------------------------------------

Freezing NCore=12 chemical core electrons
MP2 will be done in the AO integral direct mode
The Q1-step will be done using symmetric double matrices
Dimension of the basis                    ...  258
Memory devoted for MP2                    ... 8000 MB   
Memory needed for all in one shot         ...  264 MB
Number of MOs that can be treated together...  120      
MP2 density construction                  ... relaxed
The MP2 gradient is requested => amplitudes will be stored on disk
Total number of MOs              ...   24
Number of MOs treated per batch  ...    4 
Number of batches necessary      ...    1 
OPERATORS   0/  0 PASS   0
-----------------------------------------------
 MP2 CORRELATION ENERGY   :     -1.548895127 Eh
-----------------------------------------------


---------------------
MP2 DENSITY FORMATION
---------------------

Completing the external part of the density      ... done
Storing the unrelaxed density                    ... done

Calculating G(D)                                 ... done
Completing the Lagrangian                        ... done
Solving the Z-vector equations                   ... 

------------------------------------------------------------------------------
                           ORCA CP-SCF CALCULATION
------------------------------------------------------------------------------

Input orbitals are from        ... 12h2o.su.etal.mol2,3,4,5,6,11-orca.engrad-mp2.def2tzvp.frozencore.gbw
Input Perturbation             ... 12h2o.su.etal.mol2,3,4,5,6,11-orca.engrad-mp2.def2tzvp.frozencore.pin.tmp
Wavefunction output            ... 12h2o.su.etal.mol2,3,4,5,6,11-orca.engrad-mp2.def2tzvp.frozencore.pout.tmp
Perturbation mode              ... Real perturbation (singlet)
Solver                         ... POPLE
Max. number of iterations      ... 128
Convergence tolerance          ... 1.000e-08
Integral handling              ... Direct
Number of perturbations        ... 1
Number of operators            ... 1
Orbital ranges used for CP-SCF:
 Operator 0:  Orbitals   0... 29  to  30...257
Variables per vector in CP-SCF ... 6840
Number of vectors sought       ... 1
     CP-SCF ITERATION   0: 
     CP-SCF ITERATION   1:      0.000772122143
     CP-SCF ITERATION   2:      0.000018680611
     CP-SCF ITERATION   3:      0.000000712347
     CP-SCF ITERATION   4:      0.000000074506
     CP-SCF ITERATION   5:      0.000000007416
                                                 ... done
Finalizing the relaxed density                   ... done
Transforming P to the AO basis                   ... done
Storing the relaxed density                      ... done

------------------------------------
ENERGY WEIGHTED DENSITY FINALIZATION
------------------------------------

Gathering the parts of the W-matrix              ...                                                      done
Forming the Z-density                            ... done
Transforming Z to the AO basis                   ... done
Calculating G(Z)                                 ... done
Finalizing the W-matrix                          ...                                                      done
Transforming W to the AO basis and storing       ... done

                *********************************************
                * UNRELAXED MP2 DENSITY POPULATION ANALYSIS *
                *********************************************

------------------------------------------------------------------------------
                           ORCA POPULATION ANALYSIS
------------------------------------------------------------------------------
Input electron density              ... 12h2o.su.etal.mol2,3,4,5,6,11-orca.engrad-mp2.def2tzvp.frozencore.pmp2ur
BaseName (.gbw .S,...)              ... 12h2o.su.etal.mol2,3,4,5,6,11-orca.engrad-mp2.def2tzvp.frozencore

                    ********************************
                    * MULLIKEN POPULATION ANALYSIS *
                    ********************************

-----------------------
MULLIKEN ATOMIC CHARGES
-----------------------
   0 O :   -0.736812
   1 H :    0.370467
   2 H :    0.381089
   3 O :   -0.721121
   4 H :    0.331563
   5 H :    0.379415
   6 O :   -0.739003
   7 H :    0.384140
   8 H :    0.373242
   9 O :   -0.763357
  10 H :    0.364112
  11 H :    0.367817
  12 O :   -0.746472
  13 H :    0.366830
  14 H :    0.385912
  15 O :   -0.709478
  16 H :    0.377542
  17 H :    0.334115
Sum of atomic charges:    0.0000000

--------------------------------
MULLIKEN REDUCED ORBITAL CHARGES
--------------------------------
  0 O s       :     3.803054  s :     3.803054
      pz      :     1.723603  p :     4.878368
      px      :     1.779405
      py      :     1.375360
      dz2     :     0.009717  d :     0.051344
      dxz     :     0.010942
      dyz     :     0.010025
      dx2y2   :     0.008036
      dxy     :     0.012623
      f0      :     0.000459  f :     0.004046
      f+1     :     0.000548
      f-1     :     0.000699
      f+2     :     0.000431
      f-2     :     0.000714
      f+3     :     0.000732
      f-3     :     0.000464
  1 H s       :     0.583036  s :     0.583036
      pz      :     0.017488  p :     0.046497
      px      :     0.015323
      py      :     0.013686
  2 H s       :     0.576857  s :     0.576857
      pz      :     0.011271  p :     0.042055
      px      :     0.012869
      py      :     0.017914
  3 O s       :     3.804653  s :     3.804653
      pz      :     1.482237  p :     4.860364
      px      :     1.567106
      py      :     1.811021
      dz2     :     0.017052  d :     0.052058
      dxz     :     0.006670
      dyz     :     0.008382
      dx2y2   :     0.007583
      dxy     :     0.012371
      f0      :     0.000646  f :     0.004046
      f+1     :     0.000745
      f-1     :     0.000539
      f+2     :     0.000414
      f-2     :     0.000421
      f+3     :     0.000435
      f-3     :     0.000846
  4 H s       :     0.621692  s :     0.621692
      pz      :     0.018718  p :     0.046745
      px      :     0.013141
      py      :     0.014886
  5 H s       :     0.568985  s :     0.568985
      pz      :     0.010614  p :     0.051600
      px      :     0.024054
      py      :     0.016932
  6 O s       :     3.800376  s :     3.800376
      pz      :     1.567743  p :     4.882546
      px      :     1.840917
      py      :     1.473886
      dz2     :     0.016513  d :     0.052068
      dxz     :     0.007822
      dyz     :     0.008046
      dx2y2   :     0.009077
      dxy     :     0.010610
      f0      :     0.000569  f :     0.004012
      f+1     :     0.000493
      f-1     :     0.000821
      f+2     :     0.000434
      f-2     :     0.000404
      f+3     :     0.000812
      f-3     :     0.000478
  7 H s       :     0.570894  s :     0.570894
      pz      :     0.019417  p :     0.044967
      px      :     0.013705
      py      :     0.011845
  8 H s       :     0.583686  s :     0.583686
      pz      :     0.009840  p :     0.043072
      px      :     0.014370
      py      :     0.018863
  9 O s       :     3.801622  s :     3.801622
      pz      :     1.562786  p :     4.906324
      px      :     1.859993
      py      :     1.483545
      dz2     :     0.016267  d :     0.051439
      dxz     :     0.008065
      dyz     :     0.008276
      dx2y2   :     0.008500
      dxy     :     0.010331
      f0      :     0.000553  f :     0.003972
      f+1     :     0.000490
      f-1     :     0.000810
      f+2     :     0.000439
      f-2     :     0.000406
      f+3     :     0.000795
      f-3     :     0.000480
 10 H s       :     0.579659  s :     0.579659
      pz      :     0.010749  p :     0.056229
      px      :     0.016561
      py      :     0.028919
 11 H s       :     0.581616  s :     0.581616
      pz      :     0.023836  p :     0.050567
      px      :     0.014535
      py      :     0.012196
 12 O s       :     3.796095  s :     3.796095
      pz      :     1.550571  p :     4.894348
      px      :     1.510126
      py      :     1.833651
      dz2     :     0.016812  d :     0.052057
      dxz     :     0.008236
      dyz     :     0.007783
      dx2y2   :     0.008993
      dxy     :     0.010232
      f0      :     0.000555  f :     0.003972
      f+1     :     0.000830
      f-1     :     0.000488
      f+2     :     0.000435
      f-2     :     0.000409
      f+3     :     0.000473
      f-3     :     0.000781
 13 H s       :     0.587855  s :     0.587855
      pz      :     0.019050  p :     0.045314
      px      :     0.012169
      py      :     0.014096
 14 H s       :     0.559460  s :     0.559460
      pz      :     0.010204  p :     0.054628
      px      :     0.028926
      py      :     0.015498
 15 O s       :     3.807053  s :     3.807053
      pz      :     1.535263  p :     4.845957
      px      :     1.803192
      py      :     1.507502
      dz2     :     0.016913  d :     0.052411
      dxz     :     0.008521
      dyz     :     0.006627
      dx2y2   :     0.007590
      dxy     :     0.012760
      f0      :     0.000632  f :     0.004057
      f+1     :     0.000541
      f-1     :     0.000741
      f+2     :     0.000414
      f-2     :     0.000420
      f+3     :     0.000872
      f-3     :     0.000437
 16 H s       :     0.572116  s :     0.572116
      pz      :     0.023859  p :     0.050342
      px      :     0.014075
      py      :     0.012408
 17 H s       :     0.619210  s :     0.619210
      pz      :     0.011795  p :     0.046675
      px      :     0.016566
      py      :     0.018314


                     *******************************
                     * LOEWDIN POPULATION ANALYSIS *
                     *******************************

----------------------
LOEWDIN ATOMIC CHARGES
----------------------
   0 O :   -0.292575
   1 H :    0.165921
   2 H :    0.191776
   3 O :   -0.343172
   4 H :    0.154838
   5 H :    0.153232
   6 O :   -0.281651
   7 H :    0.179273
   8 H :    0.180454
   9 O :   -0.372805
  10 H :    0.141033
  11 H :    0.144312
  12 O :   -0.318504
  13 H :    0.170696
  14 H :    0.149929
  15 O :   -0.335394
  16 H :    0.152436
  17 H :    0.160202

-------------------------------
LOEWDIN REDUCED ORBITAL CHARGES
-------------------------------
  0 O s       :     3.458999  s :     3.458999
      pz      :     1.677428  p :     4.768783
      px      :     1.734727
      py      :     1.356628
      dz2     :     0.011267  d :     0.059961
      dxz     :     0.011133
      dyz     :     0.012409
      dx2y2   :     0.009830
      dxy     :     0.015322
      f0      :     0.000478  f :     0.004833
      f+1     :     0.000657
      f-1     :     0.000860
      f+2     :     0.000409
      f-2     :     0.001008
      f+3     :     0.000944
      f-3     :     0.000476
  1 H s       :     0.666969  s :     0.666969
      pz      :     0.068057  p :     0.167110
      px      :     0.053664
      py      :     0.045389
  2 H s       :     0.656171  s :     0.656171
      pz      :     0.034189  p :     0.152053
      px      :     0.044386
      py      :     0.073478
  3 O s       :     3.462880  s :     3.462880
      pz      :     1.493589  p :     4.815865
      px      :     1.539381
      py      :     1.782895
      dz2     :     0.022187  d :     0.059543
      dxz     :     0.007544
      dyz     :     0.007791
      dx2y2   :     0.007569
      dxy     :     0.014452
      f0      :     0.000924  f :     0.004884
      f+1     :     0.001003
      f-1     :     0.000707
      f+2     :     0.000389
      f-2     :     0.000422
      f+3     :     0.000377
      f-3     :     0.001062
  4 H s       :     0.683477  s :     0.683477
      pz      :     0.080949  p :     0.161686
      px      :     0.037207
      py      :     0.043529
  5 H s       :     0.671159  s :     0.671159
      pz      :     0.030232  p :     0.175609
      px      :     0.086705
      py      :     0.058672
  6 O s       :     3.457448  s :     3.457448
      pz      :     1.531700  p :     4.758619
      px      :     1.776110
      py      :     1.450809
      dz2     :     0.021343  d :     0.060732
      dxz     :     0.006944
      dyz     :     0.009294
      dx2y2   :     0.010920
      dxy     :     0.012230
      f0      :     0.000780  f :     0.004852
      f+1     :     0.000596
      f-1     :     0.001173
      f+2     :     0.000412
      f-2     :     0.000416
      f+3     :     0.001023
      f-3     :     0.000452
  7 H s       :     0.658714  s :     0.658714
      pz      :     0.082707  p :     0.162013
      px      :     0.043160
      py      :     0.036146
  8 H s       :     0.662035  s :     0.662035
      pz      :     0.030051  p :     0.157511
      px      :     0.050125
      py      :     0.077334
  9 O s       :     3.461709  s :     3.461709
      pz      :     1.552744  p :     4.848535
      px      :     1.824731
      py      :     1.471060
      dz2     :     0.019766  d :     0.057823
      dxz     :     0.007098
      dyz     :     0.009493
      dx2y2   :     0.009654
      dxy     :     0.011811
      f0      :     0.000774  f :     0.004738
      f+1     :     0.000575
      f-1     :     0.001149
      f+2     :     0.000415
      f-2     :     0.000416
      f+3     :     0.000965
      f-3     :     0.000444
 10 H s       :     0.670304  s :     0.670304
      pz      :     0.031315  p :     0.188663
      px      :     0.053687
      py      :     0.103661
 11 H s       :     0.681037  s :     0.681037
      pz      :     0.092004  p :     0.174652
      px      :     0.044333
      py      :     0.038314
 12 O s       :     3.457977  s :     3.457977
      pz      :     1.541964  p :     4.796816
      px      :     1.478034
      py      :     1.776817
      dz2     :     0.020336  d :     0.058914
      dxz     :     0.009401
      dyz     :     0.006883
      dx2y2   :     0.010635
      dxy     :     0.011659
      f0      :     0.000778  f :     0.004798
      f+1     :     0.001177
      f-1     :     0.000592
      f+2     :     0.000414
      f-2     :     0.000419
      f+3     :     0.000452
      f-3     :     0.000966
 13 H s       :     0.666415  s :     0.666415
      pz      :     0.081429  p :     0.162889
      px      :     0.037639
      py      :     0.043821
 14 H s       :     0.662651  s :     0.662651
      pz      :     0.030178  p :     0.187420
      px      :     0.103676
      py      :     0.053566
 15 O s       :     3.464508  s :     3.464508
      pz      :     1.520701  p :     4.805709
      px      :     1.774950
      py      :     1.510059
      dz2     :     0.021514  d :     0.060270
      dxz     :     0.007797
      dyz     :     0.007254
      dx2y2   :     0.007848
      dxy     :     0.015857
      f0      :     0.000870  f :     0.004907
      f+1     :     0.000717
      f-1     :     0.000989
      f+2     :     0.000388
      f-2     :     0.000417
      f+3     :     0.001152
      f-3     :     0.000375
 16 H s       :     0.675235  s :     0.675235
      pz      :     0.092681  p :     0.172329
      px      :     0.043030
      py      :     0.036618
 17 H s       :     0.679367  s :     0.679367
      pz      :     0.031907  p :     0.160430
      px      :     0.055821
      py      :     0.072703


                      *****************************
                      * MAYER POPULATION ANALYSIS *
                      *****************************

  NA   - Mulliken gross atomic population
  ZA   - Total nuclear charge
  QA   - Mulliken gross atomic charge
  VA   - Mayer's total valence
  BVA  - Mayer's bonded valence
  FA   - Mayer's free valence

  ATOM       NA         ZA         QA         VA         BVA        FA
  0 O      8.7368     8.0000    -0.7368     2.0696     1.6775     0.3921
  1 H      0.6295     1.0000     0.3705     0.8823     0.8375     0.0448
  2 H      0.6189     1.0000     0.3811     0.8738     0.8270     0.0468
  3 O      8.7211     8.0000    -0.7211     2.0587     1.6703     0.3884
  4 H      0.6684     1.0000     0.3316     0.9104     0.8615     0.0489
  5 H      0.6206     1.0000     0.3794     0.8904     0.8456     0.0448
  6 O      8.7390     8.0000    -0.7390     2.0679     1.6763     0.3916
  7 H      0.6159     1.0000     0.3841     0.8729     0.8286     0.0444
  8 H      0.6268     1.0000     0.3732     0.8888     0.8416     0.0473
  9 O      8.7634     8.0000    -0.7634     2.0140     1.6201     0.3939
 10 H      0.6359     1.0000     0.3641     0.9140     0.8660     0.0480
 11 H      0.6322     1.0000     0.3678     0.8929     0.8470     0.0458
 12 O      8.7465     8.0000    -0.7465     2.0398     1.6485     0.3913
 13 H      0.6332     1.0000     0.3668     0.8850     0.8389     0.0460
 14 H      0.6141     1.0000     0.3859     0.8894     0.8433     0.0461
 15 O      8.7095     8.0000    -0.7095     2.0724     1.6851     0.3873
 16 H      0.6225     1.0000     0.3775     0.8823     0.8376     0.0447
 17 H      0.6659     1.0000     0.3341     0.9075     0.8589     0.0485

  Mayer bond orders larger than 0.100000
B(  0-O ,  1-H ) :   0.8287 B(  0-O ,  2-H ) :   0.8148 B(  3-O ,  4-H ) :   0.8551 
B(  3-O ,  5-H ) :   0.8117 B(  6-O ,  7-H ) :   0.8191 B(  6-O ,  8-H ) :   0.8174 
B(  9-O , 10-H ) :   0.7996 B(  9-O , 11-H ) :   0.8292 B( 12-O , 13-H ) :   0.8325 
B( 12-O , 14-H ) :   0.7898 B( 15-O , 16-H ) :   0.8221 B( 15-O , 17-H ) :   0.8543 



                *******************************************
                * RELAXED MP2 DENSITY POPULATION ANALYSIS *
                *******************************************

------------------------------------------------------------------------------
                           ORCA POPULATION ANALYSIS
------------------------------------------------------------------------------
Input electron density              ... 12h2o.su.etal.mol2,3,4,5,6,11-orca.engrad-mp2.def2tzvp.frozencore.pmp2re
BaseName (.gbw .S,...)              ... 12h2o.su.etal.mol2,3,4,5,6,11-orca.engrad-mp2.def2tzvp.frozencore

                    ********************************
                    * MULLIKEN POPULATION ANALYSIS *
                    ********************************

-----------------------
MULLIKEN ATOMIC CHARGES
-----------------------
   0 O :   -0.714861
   1 H :    0.363078
   2 H :    0.373358
   3 O :   -0.703164
   4 H :    0.325405
   5 H :    0.363271
   6 O :   -0.713966
   7 H :    0.376108
   8 H :    0.363004
   9 O :   -0.738330
  10 H :    0.341318
  11 H :    0.354832
  12 O :   -0.718686
  13 H :    0.360290
  14 H :    0.365943
  15 O :   -0.691991
  16 H :    0.365804
  17 H :    0.328586
Sum of atomic charges:    0.0000000

--------------------------------
MULLIKEN REDUCED ORBITAL CHARGES
--------------------------------
  0 O s       :     3.806916  s :     3.806916
      pz      :     1.714976  p :     4.854757
      px      :     1.767627
      py      :     1.372154
      dz2     :     0.009508  d :     0.049215
      dxz     :     0.010684
      dyz     :     0.009436
      dx2y2   :     0.007779
      dxy     :     0.011807
      f0      :     0.000457  f :     0.003973
      f+1     :     0.000539
      f-1     :     0.000680
      f+2     :     0.000431
      f-2     :     0.000692
      f+3     :     0.000711
      f-3     :     0.000462
  1 H s       :     0.589741  s :     0.589741
      pz      :     0.017632  p :     0.047181
      px      :     0.015946
      py      :     0.013603
  2 H s       :     0.584061  s :     0.584061
      pz      :     0.012098  p :     0.042580
      px      :     0.013529
      py      :     0.016954
  3 O s       :     3.805929  s :     3.805929
      pz      :     1.475444  p :     4.843341
      px      :     1.564394
      py      :     1.803503
      dz2     :     0.015674  d :     0.049922
      dxz     :     0.006614
      dyz     :     0.008352
      dx2y2   :     0.007535
      dxy     :     0.011747
      f0      :     0.000628  f :     0.003973
      f+1     :     0.000723
      f-1     :     0.000529
      f+2     :     0.000415
      f-2     :     0.000420
      f+3     :     0.000435
      f-3     :     0.000823
  4 H s       :     0.627020  s :     0.627020
      pz      :     0.017944  p :     0.047574
      px      :     0.013757
      py      :     0.015873
  5 H s       :     0.584603  s :     0.584603
      pz      :     0.011254  p :     0.052125
      px      :     0.023547
      py      :     0.017325
  6 O s       :     3.803541  s :     3.803541
      pz      :     1.559900  p :     4.856548
      px      :     1.826774
      py      :     1.469874
      dz2     :     0.015343  d :     0.049940
      dxz     :     0.007875
      dyz     :     0.007773
      dx2y2   :     0.008801
      dxy     :     0.010148
      f0      :     0.000556  f :     0.003937
      f+1     :     0.000487
      f-1     :     0.000792
      f+2     :     0.000434
      f-2     :     0.000403
      f+3     :     0.000791
      f-3     :     0.000476
  7 H s       :     0.578371  s :     0.578371
      pz      :     0.018693  p :     0.045521
      px      :     0.014600
      py      :     0.012228
  8 H s       :     0.593315  s :     0.593315
      pz      :     0.010548  p :     0.043681
      px      :     0.015061
      py      :     0.018072
  9 O s       :     3.798283  s :     3.798283
      pz      :     1.558065  p :     4.886569
      px      :     1.851849
      py      :     1.476655
      dz2     :     0.015225  d :     0.049572
      dxz     :     0.008103
      dyz     :     0.008047
      dx2y2   :     0.008282
      dxy     :     0.009916
      f0      :     0.000541  f :     0.003906
      f+1     :     0.000484
      f-1     :     0.000782
      f+2     :     0.000439
      f-2     :     0.000405
      f+3     :     0.000776
      f-3     :     0.000478
 10 H s       :     0.601983  s :     0.601983
      pz      :     0.011476  p :     0.056699
      px      :     0.017180
      py      :     0.028043
 11 H s       :     0.593994  s :     0.593994
      pz      :     0.023144  p :     0.051174
      px      :     0.015467
      py      :     0.012563
 12 O s       :     3.795936  s :     3.795936
      pz      :     1.544904  p :     4.868621
      px      :     1.508183
      py      :     1.815534
      dz2     :     0.015676  d :     0.050225
      dxz     :     0.008009
      dyz     :     0.007835
      dx2y2   :     0.008824
      dxy     :     0.009881
      f0      :     0.000541  f :     0.003903
      f+1     :     0.000804
      f-1     :     0.000483
      f+2     :     0.000435
      f-2     :     0.000408
      f+3     :     0.000471
      f-3     :     0.000762
 13 H s       :     0.593742  s :     0.593742
      pz      :     0.018364  p :     0.045968
      px      :     0.012552
      py      :     0.015051
 14 H s       :     0.579075  s :     0.579075
      pz      :     0.010871  p :     0.054982
      px      :     0.028090
      py      :     0.016021
 15 O s       :     3.809289  s :     3.809289
      pz      :     1.531455  p :     4.828489
      px      :     1.797334
      py      :     1.499700
      dz2     :     0.015665  d :     0.050229
      dxz     :     0.008499
      dyz     :     0.006584
      dx2y2   :     0.007502
      dxy     :     0.011979
      f0      :     0.000616  f :     0.003985
      f+1     :     0.000531
      f-1     :     0.000719
      f+2     :     0.000415
      f-2     :     0.000419
      f+3     :     0.000848
      f-3     :     0.000437
 16 H s       :     0.583327  s :     0.583327
      pz      :     0.022967  p :     0.050869
      px      :     0.014998
      py      :     0.012904
 17 H s       :     0.623926  s :     0.623926
      pz      :     0.012546  p :     0.047488
      px      :     0.017158
      py      :     0.017785


                     *******************************
                     * LOEWDIN POPULATION ANALYSIS *
                     *******************************

----------------------
LOEWDIN ATOMIC CHARGES
----------------------
   0 O :   -0.287192
   1 H :    0.167368
   2 H :    0.192492
   3 O :   -0.344382
   4 H :    0.156214
   5 H :    0.148739
   6 O :   -0.274739
   7 H :    0.180213
   8 H :    0.180047
   9 O :   -0.372265
  10 H :    0.134335
  11 H :    0.140857
  12 O :   -0.313177
  13 H :    0.172076
  14 H :    0.143331
  15 O :   -0.336086
  16 H :    0.149697
  17 H :    0.162472

-------------------------------
LOEWDIN REDUCED ORBITAL CHARGES
-------------------------------
  0 O s       :     3.460931  s :     3.460931
      pz      :     1.672731  p :     4.762437
      px      :     1.728029
      py      :     1.361677
      dz2     :     0.011237  d :     0.058972
      dxz     :     0.011139
      dyz     :     0.012060
      dx2y2   :     0.009625
      dxy     :     0.014911
      f0      :     0.000481  f :     0.004853
      f+1     :     0.000658
      f-1     :     0.000866
      f+2     :     0.000410
      f-2     :     0.001009
      f+3     :     0.000950
      f-3     :     0.000479
  1 H s       :     0.665767  s :     0.665767
      pz      :     0.068133  p :     0.166866
      px      :     0.054132
      py      :     0.044601
  2 H s       :     0.655585  s :     0.655585
      pz      :     0.034902  p :     0.151923
      px      :     0.044988
      py      :     0.072033
  3 O s       :     3.464357  s :     3.464357
      pz      :     1.495404  p :     4.816748
      px      :     1.541057
      py      :     1.780287
      dz2     :     0.021415  d :     0.058373
      dxz     :     0.007397
      dyz     :     0.007814
      dx2y2   :     0.007536
      dxy     :     0.014211
      f0      :     0.000924  f :     0.004903
      f+1     :     0.001012
      f-1     :     0.000705
      f+2     :     0.000391
      f-2     :     0.000422
      f+3     :     0.000377
      f-3     :     0.001073
  4 H s       :     0.681626  s :     0.681626
      pz      :     0.080268  p :     0.162160
      px      :     0.037463
      py      :     0.044429
  5 H s       :     0.675236  s :     0.675236
      pz      :     0.030588  p :     0.176025
      px      :     0.086272
      py      :     0.059165
  6 O s       :     3.458991  s :     3.458991
      pz      :     1.530811  p :     4.751075
      px      :     1.766331
      py      :     1.453933
      dz2     :     0.020872  d :     0.059802
      dxz     :     0.007028
      dyz     :     0.009084
      dx2y2   :     0.010796
      dxy     :     0.012022
      f0      :     0.000780  f :     0.004871
      f+1     :     0.000597
      f-1     :     0.001181
      f+2     :     0.000414
      f-2     :     0.000415
      f+3     :     0.001030
      f-3     :     0.000454
  7 H s       :     0.658081  s :     0.658081
      pz      :     0.081833  p :     0.161707
      px      :     0.043882
      py      :     0.035992
  8 H s       :     0.662539  s :     0.662539
      pz      :     0.030452  p :     0.157414
      px      :     0.050725
      py      :     0.076237
  9 O s       :     3.462640  s :     3.462640
      pz      :     1.553440  p :     4.847785
      px      :     1.820960
      py      :     1.473384
      dz2     :     0.019330  d :     0.057070
      dxz     :     0.007161
      dyz     :     0.009304
      dx2y2   :     0.009580
      dxy     :     0.011696
      f0      :     0.000775  f :     0.004770
      f+1     :     0.000575
      f-1     :     0.001162
      f+2     :     0.000417
      f-2     :     0.000415
      f+3     :     0.000979
      f-3     :     0.000447
 10 H s       :     0.676094  s :     0.676094
      pz      :     0.031856  p :     0.189571
      px      :     0.054376
      py      :     0.103340
 11 H s       :     0.683938  s :     0.683938
      pz      :     0.091430  p :     0.175205
      px      :     0.045208
      py      :     0.038568
 12 O s       :     3.459184  s :     3.459184
      pz      :     1.543619  p :     4.790949
      px      :     1.481152
      py      :     1.766178
      dz2     :     0.019803  d :     0.058217
      dxz     :     0.009190
      dyz     :     0.006948
      dx2y2   :     0.010662
      dxy     :     0.011613
      f0      :     0.000775  f :     0.004827
      f+1     :     0.001189
      f-1     :     0.000594
      f+2     :     0.000415
      f-2     :     0.000419
      f+3     :     0.000455
      f-3     :     0.000980
 13 H s       :     0.665082  s :     0.665082
      pz      :     0.080587  p :     0.162842
      px      :     0.037730
      py      :     0.044525
 14 H s       :     0.668593  s :     0.668593
      pz      :     0.030613  p :     0.188076
      px      :     0.103280
      py      :     0.054183
 15 O s       :     3.466047  s :     3.466047
      pz      :     1.521538  p :     4.806059
      px      :     1.772912
      py      :     1.511609
      dz2     :     0.020877  d :     0.059055
      dxz     :     0.007835
      dyz     :     0.007129
      dx2y2   :     0.007769
      dxy     :     0.015445
      f0      :     0.000874  f :     0.004925
      f+1     :     0.000715
      f-1     :     0.000996
      f+2     :     0.000390
      f-2     :     0.000416
      f+3     :     0.001159
      f-3     :     0.000375
 16 H s       :     0.677659  s :     0.677659
      pz      :     0.091754  p :     0.172643
      px      :     0.043954
      py      :     0.036936
 17 H s       :     0.676785  s :     0.676785
      pz      :     0.032318  p :     0.160743
      px      :     0.056365
      py      :     0.072060


                      *****************************
                      * MAYER POPULATION ANALYSIS *
                      *****************************

  NA   - Mulliken gross atomic population
  ZA   - Total nuclear charge
  QA   - Mulliken gross atomic charge
  VA   - Mayer's total valence
  BVA  - Mayer's bonded valence
  FA   - Mayer's free valence

  ATOM       NA         ZA         QA         VA         BVA        FA
  0 O      8.7149     8.0000    -0.7149     2.1079     1.7222     0.3858
  1 H      0.6369     1.0000     0.3631     0.8881     0.8434     0.0447
  2 H      0.6266     1.0000     0.3734     0.8819     0.8352     0.0467
  3 O      8.7032     8.0000    -0.7032     2.0703     1.6871     0.3831
  4 H      0.6746     1.0000     0.3254     0.9153     0.8665     0.0489
  5 H      0.6367     1.0000     0.3633     0.9131     0.8688     0.0443
  6 O      8.7140     8.0000    -0.7140     2.1099     1.7246     0.3853
  7 H      0.6239     1.0000     0.3761     0.8800     0.8358     0.0443
  8 H      0.6370     1.0000     0.3630     0.9024     0.8558     0.0466
  9 O      8.7383     8.0000    -0.7383     2.0307     1.6423     0.3884
 10 H      0.6587     1.0000     0.3413     0.9449     0.8979     0.0470
 11 H      0.6452     1.0000     0.3548     0.9096     0.8640     0.0456
 12 O      8.7187     8.0000    -0.7187     2.0726     1.6871     0.3855
 13 H      0.6397     1.0000     0.3603     0.8901     0.8440     0.0460
 14 H      0.6341     1.0000     0.3659     0.9171     0.8720     0.0451
 15 O      8.6920     8.0000    -0.6920     2.0867     1.7047     0.3820
 16 H      0.6342     1.0000     0.3658     0.8979     0.8534     0.0445
 17 H      0.6714     1.0000     0.3286     0.9113     0.8627     0.0486

  Mayer bond orders larger than 0.100000
B(  0-O ,  1-H ) :   0.8322 B(  0-O ,  2-H ) :   0.8183 B(  3-O ,  4-H ) :   0.8580 
B(  3-O ,  5-H ) :   0.8160 B(  6-O ,  7-H ) :   0.8229 B(  6-O ,  8-H ) :   0.8203 
B(  9-O , 10-H ) :   0.8004 B(  9-O , 11-H ) :   0.8346 B( 12-O , 13-H ) :   0.8359 
B( 12-O , 14-H ) :   0.7904 B( 15-O , 16-H ) :   0.8276 B( 15-O , 17-H ) :   0.8576 



----------------------------------
MP2 DERIVATIVE INTEGRAL GENERATION
----------------------------------


Input Wavefunction Amplitudes       ... 12h2o.su.etal.mol2,3,4,5,6,11-orca.engrad-mp2.def2tzvp.frozencore.mp2tsaa.tmp
Input Correlated Electron Density   ... 12h2o.su.etal.mol2,3,4,5,6,11-orca.engrad-mp2.def2tzvp.frozencore.pmp2re
Input Energy Weighted Density       ... 12h2o.su.etal.mol2,3,4,5,6,11-orca.engrad-mp2.def2tzvp.frozencore.wmp2.tmp
Input SCF Electron Density          ... 12h2o.su.etal.mol2,3,4,5,6,11-orca.engrad-mp2.def2tzvp.frozencore.scfp

One-Electron Terms    ...
                        ... One-Electron Terms done
Prescreening matrices              ... done

Batch handling in the gradient evaluation:
Memory available                      ... 8000.0 MB
Memory per occupied orbital in Q2     ...   12.2 MB
Memory per occupied orbital in Q3     ...    0.1 MB
Total memory requirement per |i>      ...   12.3 MB
Max. Number of orbitals possible      ...    651
Number of orbitals treated per batch  ...     24
Number of batches to be done          ...      1
Batch   0: i=    6 ...    29

---------------------------------------
MP2 TOTAL ENERGY:     -457.917519135 Eh
---------------------------------------

The final MP2 gradient
  0:  -0.00726109  -0.02578817   0.00410192
  1:  -0.00258917  -0.00021358   0.00283795
  2:   0.00725707   0.02589261  -0.00198953
  3:  -0.00081047  -0.00051739  -0.01000258
  4:  -0.00271162   0.00191816   0.01012125
  5:   0.00430955  -0.00090930  -0.00239946
  6:   0.00918268   0.01444401   0.01196385
  7:   0.00172894   0.00015576  -0.00572819
  8:  -0.00674505  -0.01314772  -0.00018847
  9:  -0.00092667  -0.00394651   0.00443253
 10:   0.00246676   0.00988339   0.00003695
 11:   0.00223040  -0.00339572  -0.00801192
 12:   0.00219826  -0.00556842  -0.00786392
 13:   0.00158151   0.00006503   0.00753449
 14:  -0.00886408   0.00187351  -0.00210601
 15:   0.00661909   0.00834996   0.00404518
 16:  -0.00138192   0.00059040  -0.00639902
 17:  -0.00628419  -0.00968602  -0.00038502

-----------------------------------
NORM OF THE MP2 GRADIENT:  0.056364
-----------------------------------

-------------------------   --------------------
FINAL SINGLE POINT ENERGY      -457.917519134888
-------------------------   --------------------


                            ***************************************
                            *     ORCA property calculations      *
                            ***************************************

                                    ---------------------
                                    Active property flags
                                    ---------------------
   (+) Dipole Moment


------------------------------------------------------------------------------
                       ORCA ELECTRIC PROPERTIES CALCULATION
------------------------------------------------------------------------------

Dipole Moment Calculation                       ... on
Quadrupole Moment Calculation                   ... off
Polarizability Calculation                      ... off
GBWName                                         ... 12h2o.su.etal.mol2,3,4,5,6,11-orca.engrad-mp2.def2tzvp.frozencore.gbw
Electron density file                           ... 12h2o.su.etal.mol2,3,4,5,6,11-orca.engrad-mp2.def2tzvp.frozencore.scfp
The origin for moment calculation is the CENTER OF MASS  = ( 0.055198,  0.026559 -0.885083)

-------------
DIPOLE MOMENT
-------------
                                X             Y             Z
Electronic contribution:      0.03391       0.25150      -0.08861
Nuclear contribution   :      0.11407      -0.25770      -1.40687
                        -----------------------------------------
Total Dipole Moment    :      0.14798      -0.00620      -1.49548
                        -----------------------------------------
Magnitude (a.u.)       :      1.50279
Magnitude (Debye)      :      3.81980



--------------------
Rotational spectrum 
--------------------
 
Rotational constants in cm-1:     0.064999     0.026410     0.022265 
Rotational constants in MHz :  1948.633717   791.763593   667.473403 

 Dipole components along the rotational axes: 
x,y,z [a.u.] :    -1.238674     0.351662    -0.774861 
x,y,z [Debye]:    -3.148460     0.893855    -1.969539 

 

                         *** MP2 UNRELAXED DENSITY ***

------------------------------------------------------------------------------
                       ORCA ELECTRIC PROPERTIES CALCULATION
------------------------------------------------------------------------------

Dipole Moment Calculation                       ... on
Quadrupole Moment Calculation                   ... off
Polarizability Calculation                      ... off
GBWName                                         ... 12h2o.su.etal.mol2,3,4,5,6,11-orca.engrad-mp2.def2tzvp.frozencore.gbw
Electron density file                           ... 12h2o.su.etal.mol2,3,4,5,6,11-orca.engrad-mp2.def2tzvp.frozencore.pmp2ur
The origin for moment calculation is the CENTER OF MASS  = ( 0.055198,  0.026559 -0.885083)

-------------
DIPOLE MOMENT
-------------
                                X             Y             Z
Electronic contribution:      0.03333       0.25593      -0.07576
Nuclear contribution   :      0.11407      -0.25770      -1.40687
                        -----------------------------------------
Total Dipole Moment    :      0.14740      -0.00177      -1.48263
                        -----------------------------------------
Magnitude (a.u.)       :      1.48994
Magnitude (Debye)      :      3.78713



--------------------
Rotational spectrum 
--------------------
 
Rotational constants in cm-1:     0.064999     0.026410     0.022265 
Rotational constants in MHz :  1948.633717   791.763593   667.473403 

 Dipole components along the rotational axes: 
x,y,z [a.u.] :    -1.225594     0.349510    -0.771807 
x,y,z [Debye]:    -3.115212     0.888385    -1.961777 

 

                           *** MP2 RELAXED DENSITY ***

------------------------------------------------------------------------------
                       ORCA ELECTRIC PROPERTIES CALCULATION
------------------------------------------------------------------------------

Dipole Moment Calculation                       ... on
Quadrupole Moment Calculation                   ... off
Polarizability Calculation                      ... off
GBWName                                         ... 12h2o.su.etal.mol2,3,4,5,6,11-orca.engrad-mp2.def2tzvp.frozencore.gbw
Electron density file                           ... 12h2o.su.etal.mol2,3,4,5,6,11-orca.engrad-mp2.def2tzvp.frozencore.pmp2re
The origin for moment calculation is the CENTER OF MASS  = ( 0.055198,  0.026559 -0.885083)

-------------
DIPOLE MOMENT
-------------
                                X             Y             Z
Electronic contribution:      0.03208       0.26691      -0.05356
Nuclear contribution   :      0.11407      -0.25770      -1.40687
                        -----------------------------------------
Total Dipole Moment    :      0.14614       0.00921      -1.46043
                        -----------------------------------------
Magnitude (a.u.)       :      1.46775
Magnitude (Debye)      :      3.73073



--------------------
Rotational spectrum 
--------------------
 
Rotational constants in cm-1:     0.064999     0.026410     0.022265 
Rotational constants in MHz :  1948.633717   791.763593   667.473403 

 Dipole components along the rotational axes: 
x,y,z [a.u.] :    -1.201085     0.347125    -0.768894 
x,y,z [Debye]:    -3.052914     0.882321    -1.954374 

 

Timings for individual modules:

Sum of individual times         ...       62.115 sec (=   1.035 min)
GTO integral calculation        ...        0.928 sec (=   0.015 min)   1.5 %
SCF iterations                  ...       12.039 sec (=   0.201 min)  19.4 %
MP2 module                      ...       49.149 sec (=   0.819 min)  79.1 %
                             ****ORCA TERMINATED NORMALLY****
TOTAL RUN TIME: 0 days 0 hours 1 minutes 3 seconds 144 msec
