25
Energy:  -1305.32895403
O   -0.06278382  -0.31776570  -2.26367779
H   -0.19751268  -0.31547849  -3.21134585
H    0.64242097  -0.94954461  -2.12305967
O    0.84838071  -0.64896676   0.34038929
H    1.34562896  -1.26440613  -0.19832253
H    1.12562847  -0.83664922   1.23712828
O    0.70328715   2.05659779  -0.96048781
H    0.98316801   1.74362844  -1.82069055
H    1.14359917   2.90020295  -0.85710741
O    2.07591686  -2.05606630  -1.64769918
H    2.98843324  -1.88677978  -1.88198060
H    1.96055925  -2.99482987  -1.79482981
O   -2.10213921  -0.74888006  -0.35473567
H   -1.88926205  -1.38065216  -1.04159750
H   -2.64052998  -1.24076465   0.26527786
O   -2.08142971   2.22075594  -0.25071808
H   -1.94897555   3.16864583  -0.23684317
H   -3.02821604   2.11202113  -0.34018436
O   -0.84606761   0.82753675   1.93461133
H   -1.27509129   1.42722442   2.54497616
H   -0.32373694   0.25078039   2.49206503
O    0.98617568  -0.86655150   3.10234694
H    1.54007998  -0.37006872   3.70478095
H    0.85503764  -1.70956338   3.53635804
Ca  -0.61047281   0.70472396  -0.13543320
