25
Energy:  -1304.97899952
O    1.75957111   0.09368295   1.06688309
H    2.29508439  -0.52527772   1.56321469
H    2.12855286   0.95178065   1.27605443
O   -1.02586910   0.37736983   1.78805175
H   -0.75953236   0.46641148   2.70312998
H   -1.89504461   0.77662373   1.75114496
O    2.08992638   2.86546364   1.44692677
H    2.90839435   3.23450425   1.11503664
H    1.79664855   3.49005589   2.11033049
O    0.13356113   1.93169047  -0.52303184
H    0.46703427   2.13402199  -1.39715396
H    0.53704953   2.58757841   0.04551013
O    0.08197910  -2.12021672  -0.27950744
H   -0.68478095  -2.57809929  -0.62396996
H    0.81827682  -2.69573153  -0.48658284
O   -2.52315655  -2.92923933  -0.50978022
H   -3.24589905  -3.14236424  -1.10007922
H   -2.44810041  -3.69244872   0.06302852
O    1.25612704  -0.05332053  -2.02625571
H    0.99825970  -0.35057838  -2.89882322
H    2.17821190   0.18688374  -2.11732308
O   -1.89709207  -0.22018972  -0.85542301
H   -2.37600372  -1.04495864  -0.77398766
H   -2.47389845   0.34222032  -1.37235742
Ca  -0.05760517  -0.06312413  -0.02699996
