25
Energy:  -1309.93161152
O    0.43977728  -1.50803476   1.58363396
H    0.85551440  -2.31700561   1.88189669
H   -0.44530155  -1.54523303   1.94624062
O    0.08564821  -1.26984576  -1.81607132
H    0.08989655  -1.00687852  -2.73643105
H   -0.37567749  -2.10850479  -1.80823087
O   -2.24942670  -1.27261308   2.28816179
H   -2.74172878  -2.07041472   2.09481483
H   -2.71413313  -0.87657435   3.02534095
O    1.47300169   1.23384139   1.73370112
H    1.69774209   0.99211067   2.63219422
H    1.63897265   2.17552300   1.68986911
O    0.99786921   1.53428295  -1.10575659
H    0.27233754   1.91431345  -1.60114781
H    1.77393599   1.99415328  -1.42586825
O   -1.50186403   2.06646558  -2.10095976
H   -1.69702155   1.89349789  -3.02195247
H   -1.91567160   2.91093519  -1.92244862
O   -1.22886413   0.25175490   0.20712813
H   -1.89443804  -0.00288872   0.84618981
H   -1.65183962   0.92645189  -0.32400985
O    2.49126003  -1.03859180  -0.55705627
H    3.44511959  -1.11830323  -0.56252135
H    2.19197699  -1.69495690  -1.18621949
Ca   0.77363807  -0.06992360   0.12677696
