6
Energy:    -22.84032847
O   -1.10985723  -0.39514535  -0.26336369
H   -1.70291462   0.15582722  -0.77419047
H   -1.62657656  -1.17283658  -0.05258102
O    1.43233216   0.72725366   0.54080878
H    0.66074342   0.23798589   0.25532725
H    2.17018173   0.26556364   0.14249711
