6
Energy:    -20.74785822
O    1.06840891  -0.05150057  -0.64607065
H    0.50116063  -0.55606915  -1.22905588
H    1.94556513  -0.15659128  -1.01456047
O   -1.40087166   0.26770989   0.69719809
H   -1.46949375  -0.02184461   1.60696787
H   -0.46322422   0.40023216   0.55760232
