6
Energy:    -20.27832221
O    1.27897095   0.21174578   0.36243467
H    1.48756037  -0.46700360  -0.27945439
H    1.83287997   0.95273479   0.11676836
O   -1.64772048  -0.16743449  -0.39803236
H   -1.93373863  -0.74783498   0.30734750
H   -0.81659231   0.19359581  -0.08962527
