
                                 *****************
                                 * O   R   C   A *
                                 *****************

           --- An Ab Initio, DFT and Semiempirical electronic structure package ---

                  #######################################################
                  #                        -***-                        #
                  #          Department of theory and spectroscopy      #
                  #               Directorship: Frank Neese             #
                  #        Max Planck Institute fuer Kohlenforschung    #
                  #                Kaiser Wilhelm Platz 1               #
                  #                 D-45470 Muelheim/Ruhr               #
                  #                      Germany                        #
                  #                                                     #
                  #                  All rights reserved                #
                  #                        -***-                        #
                  #######################################################


                         Program Version 4.2.0 -  RELEASE  -


 With contributions from (in alphabetic order):
   Daniel Aravena         : Magnetic Suceptibility
   Michael Atanasov       : Ab Initio Ligand Field Theory (pilot matlab implementation)
   Alexander A. Auer      : GIAO ZORA, VPT2
   Ute Becker             : Parallelization
   Giovanni Bistoni       : ED, misc. LED, open-shell LED, HFLED
   Martin Brehm           : Molecular dynamics
   Dmytro Bykov           : SCF Hessian
   Vijay G. Chilkuri      : MRCI spin determinant printing, contributions to CSF-ICE
   Dipayan Datta          : RHF DLPNO-CCSD density
   Achintya Kumar Dutta   : EOM-CC, STEOM-CC
   Dmitry Ganyushin       : Spin-Orbit,Spin-Spin,Magnetic field MRCI
   Miquel Garcia          : C-PCM Hessian, Gaussian charge scheme
   Yang Guo               : DLPNO-NEVPT2, CIM, IAO-localization
   Andreas Hansen         : Spin unrestricted coupled pair/coupled cluster methods
   Benjamin Helmich-Paris : CASSCF linear response (MC-RPA)
   Lee Huntington         : MR-EOM, pCC
   Robert Izsak           : Overlap fitted RIJCOSX, COSX-SCS-MP3, EOM
   Christian Kollmar      : KDIIS, OOCD, Brueckner-CCSD(T), CCSD density
   Simone Kossmann        : Meta GGA functionals, TD-DFT gradient, OOMP2, MP2 Hessian
   Martin Krupicka        : AUTO-CI
   Lucas Lang             : DCDCAS
   Dagmar Lenk            : GEPOL surface, SMD
   Dimitrios Liakos       : Extrapolation schemes; Compound Job, initial MDCI parallelization
   Dimitrios Manganas     : Further ROCIS development; embedding schemes
   Dimitrios Pantazis     : SARC Basis sets
   Taras Petrenko         : DFT Hessian,TD-DFT gradient, ASA, ECA, R-Raman, ABS, FL, XAS/XES, NRVS
   Peter Pinski           : DLPNO-MP2, DLPNO-MP2 Gradient
   Christoph Reimann      : Effective Core Potentials
   Marius Retegan         : Local ZFS, SOC
   Christoph Riplinger    : Optimizer, TS searches, QM/MM, DLPNO-CCSD(T), (RO)-DLPNO pert. Triples
   Tobias Risthaus        : Range-separated hybrids, TD-DFT gradient, RPA, STAB
   Michael Roemelt        : Original ROCIS implementation
   Masaaki Saitow         : Open-shell DLPNO-CCSD energy and density
   Barbara Sandhoefer     : DKH picture change effects
   Avijit Sen             : IP-ROCIS
   Kantharuban Sivalingam : CASSCF convergence, NEVPT2, FIC-MRCI
   Bernardo de Souza      : ESD, SOC TD-DFT
   Georgi Stoychev        : AutoAux, RI-MP2 NMR
   Willem Van den Heuvel  : Paramagnetic NMR
   Boris Wezisla          : Elementary symmetry handling
   Frank Wennmohs         : Technical directorship


 We gratefully acknowledge several colleagues who have allowed us to
 interface, adapt or use parts of their codes:
   Stefan Grimme, W. Hujo, H. Kruse,             : VdW corrections, initial TS optimization,
                  C. Bannwarth                     DFT functionals, gCP, sTDA/sTD-DF
   Ed Valeev, F. Pavosevic, A. Kumar             : LibInt (2-el integral package), F12 methods
   Garnet Chan, S. Sharma, J. Yang, R. Olivares  : DMRG
   Ulf Ekstrom                                   : XCFun DFT Library
   Mihaly Kallay                                 : mrcc  (arbitrary order and MRCC methods)
   Andreas Klamt, Michael Diedenhofen            : otool_cosmo (COSMO solvation model)
   Jiri Pittner, Ondrej Demel                    : Mk-CCSD
   Frank Weinhold                                : gennbo (NPA and NBO analysis)
   Christopher J. Cramer and Donald G. Truhlar   : smd solvation model
   Lars Goerigk                                  : TD-DFT with DH, B97 family of functionals
   V. Asgeirsson, H. Jonsson                     : NEB implementation
   FAccTs GmbH                                   : IRC, NEB, NEB-TS, Multilevel, MM, QM/MM, CI optimization
   S Lehtola, MJT Oliveira, MAL Marques          : LibXC Library


 Your calculation uses the libint2 library for the computation of 2-el integrals
 For citations please refer to: http://libint.valeyev.net

 Your ORCA version has been built with support for libXC version: 4.2.3
 For citations please refer to: https://tddft.org/programs/libxc/

 This ORCA versions uses:
   CBLAS   interface :  Fast vector & matrix operations
   LAPACKE interface :  Fast linear algebra routines
   SCALAPACK package :  Parallel linear algebra routines


----- Orbital basis set information -----
Your calculation utilizes the basis: def2-TZVP
   F. Weigend and R. Ahlrichs, Phys. Chem. Chem. Phys. 7, 3297 (2005).

================================================================================
                                        WARNINGS
                       Please study these warnings very carefully!
================================================================================


WARNING: The frozen-core approximation for MP2-gradient calculations is turned on by default.

INFO   : the flag for use of LIBINT has been found!

================================================================================
                                       INPUT FILE
================================================================================
NAME = 12h2o.su.etal.mol2,3,4,5,6,7,8,11-orca.engrad-mp2.def2tzvp.frozencore.inp
|  1> # 12h2o.su.etal.mol2,3,4,5,6,7,8,11
|  2> ! MP2 def2-TZVP EnGrad TightSCF
|  3> 
|  4> %pal
|  5>     nprocs 6
|  6> end
|  7> 
|  8> %maxcore 8000
|  9> 
| 10> %scf
| 11>     ConvForced true
| 12> end
| 13> 
| 14> *xyz 0 1
| 15> O   0.923410000  -1.794470000  -2.768350000
| 16> H   1.359750000  -2.338250000  -3.430940000
| 17> H   1.303000000  -0.879480000  -2.865760000
| 18> O  -1.752130000  -0.741530000  -2.896280000
| 19> H  -2.036450000  -0.920500000  -1.984040000
| 20> H  -0.921210000  -1.242140000  -2.984230000
| 21> O  -0.885520000   1.737840000   0.052730000
| 22> H  -1.032320000   2.090180000  -0.841890000
| 23> H  -1.284090000   0.839590000   0.017130000
| 24> O   0.885520000  -1.737840000   0.052730000
| 25> H   1.284090000  -0.839590000   0.017130000
| 26> H   1.032320000  -2.090180000  -0.841890000
| 27> O   1.737840000   0.885520000  -0.052730000
| 28> H   2.090180000   1.032320000   0.841890000
| 29> H   0.839590000   1.284090000  -0.017130000
| 30> O  -1.737840000  -0.885520000  -0.052730000
| 31> H  -2.090180000  -1.032320000   0.841890000
| 32> H  -0.839590000  -1.284090000  -0.017130000
| 33> O   1.752130000   0.741530000  -2.896280000
| 34> H   2.036450000   0.920500000  -1.984040000
| 35> H   0.921210000   1.242140000  -2.984230000
| 36> O  -0.741530000   1.752130000   2.896280000
| 37> H  -0.920500000   2.036450000   1.984040000
| 38> H  -1.242140000   0.921210000   2.984230000
| 39> *
| 40> 
| 41>                          ****END OF INPUT****
================================================================================

                     *******************************
                     * Energy+Gradient Calculation *
                     *******************************

---------------------------------
CARTESIAN COORDINATES (ANGSTROEM)
---------------------------------
  O      0.923410   -1.794470   -2.768350
  H      1.359750   -2.338250   -3.430940
  H      1.303000   -0.879480   -2.865760
  O     -1.752130   -0.741530   -2.896280
  H     -2.036450   -0.920500   -1.984040
  H     -0.921210   -1.242140   -2.984230
  O     -0.885520    1.737840    0.052730
  H     -1.032320    2.090180   -0.841890
  H     -1.284090    0.839590    0.017130
  O      0.885520   -1.737840    0.052730
  H      1.284090   -0.839590    0.017130
  H      1.032320   -2.090180   -0.841890
  O      1.737840    0.885520   -0.052730
  H      2.090180    1.032320    0.841890
  H      0.839590    1.284090   -0.017130
  O     -1.737840   -0.885520   -0.052730
  H     -2.090180   -1.032320    0.841890
  H     -0.839590   -1.284090   -0.017130
  O      1.752130    0.741530   -2.896280
  H      2.036450    0.920500   -1.984040
  H      0.921210    1.242140   -2.984230
  O     -0.741530    1.752130    2.896280
  H     -0.920500    2.036450    1.984040
  H     -1.242140    0.921210    2.984230

----------------------------
CARTESIAN COORDINATES (A.U.)
----------------------------
  NO LB      ZA    FRAG     MASS         X           Y           Z
   0 O     8.0000    0    15.999    1.744992   -3.391057   -5.231423
   1 H     1.0000    0     1.008    2.569555   -4.418652   -6.483537
   2 H     1.0000    0     1.008    2.462313   -1.661976   -5.415502
   3 O     8.0000    0    15.999   -3.311046   -1.401289   -5.473176
   4 H     1.0000    0     1.008   -3.848333   -1.739493   -3.749292
   5 H     1.0000    0     1.008   -1.740835   -2.347304   -5.639377
   6 O     8.0000    0    15.999   -1.673390    3.284042    0.099645
   7 H     1.0000    0     1.008   -1.950802    3.949868   -1.590942
   8 H     1.0000    0     1.008   -2.426578    1.586595    0.032371
   9 O     8.0000    0    15.999    1.673390   -3.284042    0.099645
  10 H     1.0000    0     1.008    2.426578   -1.586595    0.032371
  11 H     1.0000    0     1.008    1.950802   -3.949868   -1.590942
  12 O     8.0000    0    15.999    3.284042    1.673390   -0.099645
  13 H     1.0000    0     1.008    3.949868    1.950802    1.590942
  14 H     1.0000    0     1.008    1.586595    2.426578   -0.032371
  15 O     8.0000    0    15.999   -3.284042   -1.673390   -0.099645
  16 H     1.0000    0     1.008   -3.949868   -1.950802    1.590942
  17 H     1.0000    0     1.008   -1.586595   -2.426578   -0.032371
  18 O     8.0000    0    15.999    3.311046    1.401289   -5.473176
  19 H     1.0000    0     1.008    3.848333    1.739493   -3.749292
  20 H     1.0000    0     1.008    1.740835    2.347304   -5.639377
  21 O     8.0000    0    15.999   -1.401289    3.311046    5.473176
  22 H     1.0000    0     1.008   -1.739493    3.848333    3.749292
  23 H     1.0000    0     1.008   -2.347304    1.740835    5.639377

--------------------------------
INTERNAL COORDINATES (ANGSTROEM)
--------------------------------
 O      0   0   0     0.000000000000     0.00000000     0.00000000
 H      1   0   0     0.961828878803     0.00000000     0.00000000
 H      1   2   0     0.995381322057   106.21731035     0.00000000
 O      1   2   3     2.878117964938   126.72240291   103.59081140
 H      4   1   2     0.972136791249    99.37069922   136.92500856
 H      4   1   2     0.974050112161    12.30570018    24.40947955
 O      5   4   1     3.541164138161   107.84672602    83.70571148
 H      7   5   4     0.972645187106    72.17296994    29.09453504
 H      7   5   4     0.983350632989    33.04029707   190.88793319
 O      1   2   3     2.821902722526   134.92023192   245.52250503
 H     10   1   2     0.983350632989    88.66470709   117.24500673
 H     10   1   2     0.972645187106    21.75017499   343.08822912
 O     11  10   1     1.785153773264   170.81379649    89.95043540
 H     13  11  10     0.972645187106   101.65007623   109.44492584
 H     13  11  10     0.983350632989    99.09581498     3.33484705
 O      9   7   5     1.785153773264   170.81379649    88.00403199
 H     16   9   7     0.972645187106   101.65007623   109.44492584
 H     16   9   7     0.983350632989    99.09581498     3.33484705
 O      3   1   2     1.682356278379   171.61043709   164.26103839
 H     19   3   1     0.972136791249   103.79460456    70.64587838
 H     19   3   1     0.974050112161   105.61118924   321.69395179
 O      7   5   4     2.847229166523   126.48630953   195.00328214
 H     22   7   5     0.972136791249    19.08819947   226.21746260
 H     22   7   5     0.974050112161    93.43428486   350.31374249

---------------------------
INTERNAL COORDINATES (A.U.)
---------------------------
 O      0   0   0     0.000000000000     0.00000000     0.00000000
 H      1   0   0     1.817593168635     0.00000000     0.00000000
 H      1   2   0     1.880998097508   106.21731035     0.00000000
 O      1   2   3     5.438854734852   126.72240291   103.59081140
 H      4   1   2     1.837072300170    99.37069922   136.92500856
 H      4   1   2     1.840687952699    12.30570018    24.40947955
 O      5   4   1     6.691830416388   107.84672602    83.70571148
 H      7   5   4     1.838033029106    72.17296994    29.09453504
 H      7   5   4     1.858263389967    33.04029707   190.88793319
 O      1   2   3     5.332623322141   134.92023192   245.52250503
 H     10   1   2     1.858263389967    88.66470709   117.24500673
 H     10   1   2     1.838033029106    21.75017499   343.08822912
 O     11  10   1     3.373451738406   170.81379649    89.95043540
 H     13  11  10     1.838033029106   101.65007623   109.44492584
 H     13  11  10     1.858263389967    99.09581498     3.33484705
 O      9   7   5     3.373451738406   170.81379649    88.00403199
 H     16   9   7     1.838033029106   101.65007623   109.44492584
 H     16   9   7     1.858263389967    99.09581498     3.33484705
 O      3   1   2     3.179192625819   171.61043709   164.26103839
 H     19   3   1     1.837072300170   103.79460456    70.64587838
 H     19   3   1     1.840687952699   105.61118924   321.69395179
 O      7   5   4     5.380483365242   126.48630953   195.00328214
 H     22   7   5     1.837072300170    19.08819947   226.21746260
 H     22   7   5     1.840687952699    93.43428486   350.31374249

---------------------
BASIS SET INFORMATION
---------------------
There are 2 groups of distinct atoms

 Group   1 Type O   : 11s6p2d1f contracted to 5s3p2d1f pattern {62111/411/11/1}
 Group   2 Type H   : 5s1p contracted to 3s1p pattern {311/1}

Atom   0O    basis set group =>   1
Atom   1H    basis set group =>   2
Atom   2H    basis set group =>   2
Atom   3O    basis set group =>   1
Atom   4H    basis set group =>   2
Atom   5H    basis set group =>   2
Atom   6O    basis set group =>   1
Atom   7H    basis set group =>   2
Atom   8H    basis set group =>   2
Atom   9O    basis set group =>   1
Atom  10H    basis set group =>   2
Atom  11H    basis set group =>   2
Atom  12O    basis set group =>   1
Atom  13H    basis set group =>   2
Atom  14H    basis set group =>   2
Atom  15O    basis set group =>   1
Atom  16H    basis set group =>   2
Atom  17H    basis set group =>   2
Atom  18O    basis set group =>   1
Atom  19H    basis set group =>   2
Atom  20H    basis set group =>   2
Atom  21O    basis set group =>   1
Atom  22H    basis set group =>   2
Atom  23H    basis set group =>   2


           ************************************************************
           *        Program running with 6 parallel MPI-processes     *
           *              working on a common directory               *
           ************************************************************
------------------------------------------------------------------------------
                           ORCA GTO INTEGRAL CALCULATION
------------------------------------------------------------------------------

                         BASIS SET STATISTICS AND STARTUP INFO

 # of primitive gaussian shells          ...  256
 # of primitive gaussian functions       ...  496
 # of contracted shells                  ...  152
 # of contracted basis functions         ...  344
 Highest angular momentum                ...    3
 Maximum contraction depth               ...    6
 Integral package used                   ... LIBINT
 Integral threshhold            Thresh   ...  2.500e-11
 Primitive cut-off              TCut     ...  2.500e-12


------------------------------ INTEGRAL EVALUATION ----------------------------


 * One electron integrals 
 Pre-screening matrix                    ... done
 Shell pair data                         ... done (   0.003 sec)



           ************************************************************
           *        Program running with 6 parallel MPI-processes     *
           *              working on a common directory               *
           ************************************************************
-------------------------------------------------------------------------------
                                 ORCA SCF
-------------------------------------------------------------------------------

------------
SCF SETTINGS
------------
Hamiltonian:
 Ab initio Hamiltonian  Method          .... Hartree-Fock(GTOs)


General Settings:
 Integral files         IntName         .... 12h2o.su.etal.mol2,3,4,5,6,7,8,11-orca.engrad-mp2.def2tzvp.frozencore
 Hartree-Fock type      HFTyp           .... RHF
 Total Charge           Charge          ....    0
 Multiplicity           Mult            ....    1
 Number of Electrons    NEL             ....   80
 Basis Dimension        Dim             ....  344
 Nuclear Repulsion      ENuc            ....    482.3007084935 Eh

Convergence Acceleration:
 DIIS                   CNVDIIS         .... on
   Start iteration      DIISMaxIt       ....    12
   Startup error        DIISStart       ....  0.200000
   # of expansion vecs  DIISMaxEq       ....     5
   Bias factor          DIISBfac        ....   1.050
   Max. coefficient     DIISMaxC        ....  10.000
 Newton-Raphson         CNVNR           .... off
 SOSCF                  CNVSOSCF        .... on
   Start iteration      SOSCFMaxIt      ....   150
   Startup grad/error   SOSCFStart      ....  0.003300
 Level Shifting         CNVShift        .... on
   Level shift para.    LevelShift      ....    0.2500
   Turn off err/grad.   ShiftErr        ....    0.0010
 Zerner damping         CNVZerner       .... off
 Static damping         CNVDamp         .... on
   Fraction old density DampFac         ....    0.7000
   Max. Damping (<1)    DampMax         ....    0.9800
   Min. Damping (>=0)   DampMin         ....    0.0000
   Turn off err/grad.   DampErr         ....    0.1000
 Fernandez-Rico         CNVRico         .... off

SCF Procedure:
 Maximum # iterations   MaxIter         ....   125
 SCF integral mode      SCFMode         .... Direct
   Integral package                     .... LIBINT
 Reset frequency        DirectResetFreq ....    20
 Integral Threshold     Thresh          ....  2.500e-11 Eh
 Primitive CutOff       TCut            ....  2.500e-12 Eh

Convergence Tolerance:
 Convergence Check Mode ConvCheckMode   .... Total+1el-Energy
 Convergence forced     ConvForced      .... 1
 Energy Change          TolE            ....  1.000e-08 Eh
 1-El. energy change                    ....  1.000e-05 Eh
 Orbital Gradient       TolG            ....  1.000e-05
 Orbital Rotation angle TolX            ....  1.000e-05
 DIIS Error             TolErr          ....  5.000e-07


Diagonalization of the overlap matrix:
Smallest eigenvalue                        ... 2.785e-03
Time for diagonalization                   ...    0.016 sec
Threshold for overlap eigenvalues          ... 1.000e-08
Number of eigenvalues below threshold      ... 0
Time for construction of square roots      ...    0.009 sec
Total time needed                          ...    0.025 sec

-------------------
DFT GRID GENERATION
-------------------

General Integration Accuracy     IntAcc      ...  4.340
Radial Grid Type                 RadialGrid  ... Gauss-Chebyshev
Angular Grid (max. acc.)         AngularGrid ... Lebedev-110
Angular grid pruning method      GridPruning ... 3 (G Style)
Weight generation scheme         WeightScheme... Becke
Basis function cutoff            BFCut       ...    1.0000e-11
Integration weight cutoff        WCut        ...    1.0000e-14
Grids for H and He will be reduced by one unit

# of grid points (after initial pruning)     ...  26432 (   0.0 sec)
# of grid points (after weights+screening)   ...  24440 (   0.0 sec)
nearest neighbour list constructed           ...    0.0 sec
Grid point re-assignment to atoms done       ...    0.0 sec
Grid point division into batches done        ...    0.0 sec
Reduced shell lists constructed in    0.1 sec

Total number of grid points                  ...    24440
Total number of batches                      ...      394
Average number of points per batch           ...       62
Average number of grid points per atom       ...     1018
Average number of shells per batch           ...    75.52 (49.69%)
Average number of basis functions per batch  ...   152.90 (44.45%)
Average number of large shells per batch     ...    51.82 (68.62%)
Average number of large basis fcns per batch ...   100.96 (66.03%)
Maximum spatial batch extension              ...  16.16, 16.27, 15.23 au
Average spatial batch extension              ...   0.62,  0.54,  0.53 au

Time for grid setup =    0.092 sec

------------------------------
INITIAL GUESS: MODEL POTENTIAL
------------------------------
Loading Hartree-Fock densities                     ... done
Calculating cut-offs                               ... done
Setting up the integral package                    ... done
Initializing the effective Hamiltonian             ... done
Starting the Coulomb interaction                   ... done (   0.0 sec)
Reading the grid                                   ... done
Mapping shells                                     ... done
Starting the XC term evaluation                    ... done (   0.0 sec)
Transforming the Hamiltonian                       ... done (   0.0 sec)
Diagonalizing the Hamiltonian                      ... done (   0.0 sec)
Back transforming the eigenvectors                 ... done (   0.0 sec)
Now organizing SCF variables                       ... done
                      ------------------
                      INITIAL GUESS DONE (   0.3 sec)
                      ------------------
--------------
SCF ITERATIONS
--------------
ITER       Energy         Delta-E        Max-DP      RMS-DP      [F,P]     Damp
               ***  Starting incremental Fock matrix formation  ***
  0   -607.8505465685   0.000000000000 0.04385635  0.00082628  0.3444340 0.7000
  1   -608.1120719006  -0.261525332085 0.02910115  0.00057450  0.2163194 0.7000
                               ***Turning on DIIS***
  2   -608.2515266326  -0.139454732077 0.01639332  0.00032374  0.1636740 0.7000
  3   -609.5279285412  -1.276401908530 0.00735687  0.00015065  0.1218421 0.7000
  4   -609.2694886974   0.258439843757 0.01613644  0.00034838  0.0861356 0.0000
  5   -608.5683650502   0.701123647240 0.00214225  0.00005553  0.0053683 0.0000
                      *** Initiating the SOSCF procedure ***
                           *** Shutting down DIIS ***
                      *** Re-Reading the Fockian *** 
                      *** Removing any level shift *** 
ITER      Energy       Delta-E        Grad      Rot      Max-DP    RMS-DP
  6   -608.53094269   0.0374223649  0.000765  0.000765  0.001348  0.000034
               *** Restarting incremental Fock matrix formation ***
  7   -608.52179920   0.0091434841  0.000257  0.000343  0.000630  0.000015
  8   -608.52181042  -0.0000112238  0.000130  0.000285  0.000552  0.000013
  9   -608.52181321  -0.0000027819  0.000087  0.000037  0.000108  0.000002
 10   -608.52181343  -0.0000002270  0.000014  0.000008  0.000020  0.000000
                  ***Gradient check signals convergence***
              ***Rediagonalizing the Fockian in SOSCF/NRSCF***

               *****************************************************
               *                     SUCCESS                       *
               *           SCF CONVERGED AFTER  11 CYCLES          *
               *****************************************************


----------------
TOTAL SCF ENERGY
----------------

Total Energy       :         -608.52181344 Eh          -16558.72037 eV

Components:
Nuclear Repulsion  :          482.30070849 Eh           13124.06949 eV
Electronic Energy  :        -1090.82252193 Eh          -29682.78987 eV
One Electron Energy:        -1801.17097938 Eh          -49012.35409 eV
Two Electron Energy:          710.34845745 Eh           19329.56422 eV

Virial components:
Potential Energy   :        -1216.32266967 Eh          -33097.82250 eV
Kinetic Energy     :          607.80085623 Eh           16539.10213 eV
Virial Ratio       :            2.00118617


---------------
SCF CONVERGENCE
---------------

  Last Energy change         ...   -6.5213e-09  Tolerance :   1.0000e-08
  Last MAX-Density change    ...    5.6048e-06  Tolerance :   1.0000e-07
  Last RMS-Density change    ...    1.3362e-07  Tolerance :   5.0000e-09
  Last Orbital Gradient      ...    2.4602e-06  Tolerance :   1.0000e-05
  Last Orbital Rotation      ...    2.9952e-06  Tolerance :   1.0000e-05

             **** THE GBW FILE WAS UPDATED (12h2o.su.etal.mol2,3,4,5,6,7,8,11-orca.engrad-mp2.def2tzvp.frozencore.gbw) ****
             **** DENSITY FILE WAS UPDATED (12h2o.su.etal.mol2,3,4,5,6,7,8,11-orca.engrad-mp2.def2tzvp.frozencore.scfp) ****
             **** ENERGY FILE WAS UPDATED (12h2o.su.etal.mol2,3,4,5,6,7,8,11-orca.engrad-mp2.def2tzvp.frozencore.en.tmp) ****
             **** THE GBW FILE WAS UPDATED (12h2o.su.etal.mol2,3,4,5,6,7,8,11-orca.engrad-mp2.def2tzvp.frozencore.gbw) ****
             **** DENSITY FILE WAS UPDATED (12h2o.su.etal.mol2,3,4,5,6,7,8,11-orca.engrad-mp2.def2tzvp.frozencore.scfp) ****
----------------
ORBITAL ENERGIES
----------------

  NO   OCC          E(Eh)            E(eV) 
   0   2.0000     -20.600645      -560.5720 
   1   2.0000     -20.596684      -560.4643 
   2   2.0000     -20.591252      -560.3165 
   3   2.0000     -20.590142      -560.2862 
   4   2.0000     -20.569647      -559.7286 
   5   2.0000     -20.553636      -559.2929 
   6   2.0000     -20.551959      -559.2472 
   7   2.0000     -20.521619      -558.4216 
   8   2.0000      -1.398764       -38.0623 
   9   2.0000      -1.385726       -37.7075 
  10   2.0000      -1.378339       -37.5065 
  11   2.0000      -1.373815       -37.3834 
  12   2.0000      -1.355171       -36.8761 
  13   2.0000      -1.335984       -36.3540 
  14   2.0000      -1.335209       -36.3329 
  15   2.0000      -1.306483       -35.5512 
  16   2.0000      -0.755390       -20.5552 
  17   2.0000      -0.754237       -20.5238 
  18   2.0000      -0.742654       -20.2086 
  19   2.0000      -0.738485       -20.0952 
  20   2.0000      -0.736432       -20.0393 
  21   2.0000      -0.714867       -19.4525 
  22   2.0000      -0.706225       -19.2173 
  23   2.0000      -0.685545       -18.6546 
  24   2.0000      -0.656980       -17.8773 
  25   2.0000      -0.633391       -17.2354 
  26   2.0000      -0.625892       -17.0314 
  27   2.0000      -0.611169       -16.6307 
  28   2.0000      -0.601829       -16.3766 
  29   2.0000      -0.580907       -15.8073 
  30   2.0000      -0.571338       -15.5469 
  31   2.0000      -0.549501       -14.9527 
  32   2.0000      -0.544810       -14.8250 
  33   2.0000      -0.535165       -14.5626 
  34   2.0000      -0.533403       -14.5146 
  35   2.0000      -0.528475       -14.3805 
  36   2.0000      -0.512830       -13.9548 
  37   2.0000      -0.501331       -13.6419 
  38   2.0000      -0.499771       -13.5995 
  39   2.0000      -0.471503       -12.8303 
  40   0.0000       0.083547         2.2734 
  41   0.0000       0.113364         3.0848 
  42   0.0000       0.138961         3.7813 
  43   0.0000       0.143026         3.8919 
  44   0.0000       0.186606         5.0778 
  45   0.0000       0.191573         5.2130 
  46   0.0000       0.232470         6.3258 
  47   0.0000       0.237239         6.4556 
  48   0.0000       0.249350         6.7852 
  49   0.0000       0.265910         7.2358 
  50   0.0000       0.299989         8.1631 
  51   0.0000       0.306865         8.3502 
  52   0.0000       0.316175         8.6036 
  53   0.0000       0.326082         8.8731 
  54   0.0000       0.339309         9.2331 
  55   0.0000       0.341998         9.3063 
  56   0.0000       0.400163        10.8890 
  57   0.0000       0.452927        12.3248 
  58   0.0000       0.464550        12.6410 
  59   0.0000       0.490361        13.3434 
  60   0.0000       0.492694        13.4069 
  61   0.0000       0.512391        13.9429 
  62   0.0000       0.522399        14.2152 
  63   0.0000       0.523815        14.2537 
  64   0.0000       0.525780        14.3072 
  65   0.0000       0.534682        14.5494 
  66   0.0000       0.545587        14.8462 
  67   0.0000       0.557994        15.1838 
  68   0.0000       0.578504        15.7419 
  69   0.0000       0.585927        15.9439 
  70   0.0000       0.589908        16.0522 
  71   0.0000       0.606886        16.5142 
  72   0.0000       0.615958        16.7611 
  73   0.0000       0.620915        16.8959 
  74   0.0000       0.630295        17.1512 
  75   0.0000       0.646622        17.5955 
  76   0.0000       0.665242        18.1022 
  77   0.0000       0.701399        19.0860 
  78   0.0000       0.707718        19.2580 
  79   0.0000       0.719013        19.5653 
  80   0.0000       0.723993        19.7009 
  81   0.0000       0.735006        20.0005 
  82   0.0000       0.747070        20.3288 
  83   0.0000       0.754521        20.5316 
  84   0.0000       0.762572        20.7506 
  85   0.0000       0.786881        21.4121 
  86   0.0000       0.801012        21.7966 
  87   0.0000       0.820501        22.3270 
  88   0.0000       0.823543        22.4097 
  89   0.0000       0.830147        22.5894 
  90   0.0000       0.844158        22.9707 
  91   0.0000       0.852709        23.2034 
  92   0.0000       0.889094        24.1935 
  93   0.0000       0.895691        24.3730 
  94   0.0000       0.905443        24.6383 
  95   0.0000       0.919010        25.0075 
  96   0.0000       0.957127        26.0447 
  97   0.0000       0.979352        26.6495 
  98   0.0000       0.995344        27.0847 
  99   0.0000       1.055188        28.7131 
 100   0.0000       1.068139        29.0655 
 101   0.0000       1.082987        29.4696 
 102   0.0000       1.139126        30.9972 
 103   0.0000       1.182668        32.1820 
 104   0.0000       1.320733        35.9390 
 105   0.0000       1.350060        36.7370 
 106   0.0000       1.379325        37.5333 
 107   0.0000       1.387517        37.7563 
 108   0.0000       1.394879        37.9566 
 109   0.0000       1.403769        38.1985 
 110   0.0000       1.406325        38.2681 
 111   0.0000       1.420731        38.6600 
 112   0.0000       1.432029        38.9675 
 113   0.0000       1.440112        39.1874 
 114   0.0000       1.451461        39.4963 
 115   0.0000       1.485324        40.4177 
 116   0.0000       1.494581        40.6696 
 117   0.0000       1.513531        41.1853 
 118   0.0000       1.535236        41.7759 
 119   0.0000       1.548904        42.1478 
 120   0.0000       1.556750        42.3613 
 121   0.0000       1.576117        42.8883 
 122   0.0000       1.581018        43.0217 
 123   0.0000       1.584633        43.1201 
 124   0.0000       1.604806        43.6690 
 125   0.0000       1.613059        43.8936 
 126   0.0000       1.632329        44.4179 
 127   0.0000       1.655250        45.0416 
 128   0.0000       1.805229        49.1228 
 129   0.0000       1.812121        49.3103 
 130   0.0000       1.831067        49.8259 
 131   0.0000       1.841344        50.1055 
 132   0.0000       1.854522        50.4641 
 133   0.0000       1.873574        50.9826 
 134   0.0000       1.895986        51.5924 
 135   0.0000       1.921236        52.2795 
 136   0.0000       1.927845        52.4593 
 137   0.0000       1.942657        52.8624 
 138   0.0000       1.972889        53.6850 
 139   0.0000       1.989309        54.1319 
 140   0.0000       1.996393        54.3246 
 141   0.0000       2.005267        54.5661 
 142   0.0000       2.009014        54.6680 
 143   0.0000       2.041755        55.5590 
 144   0.0000       2.081336        56.6360 
 145   0.0000       2.096563        57.0504 
 146   0.0000       2.104616        57.2695 
 147   0.0000       2.115490        57.5654 
 148   0.0000       2.134114        58.0722 
 149   0.0000       2.169041        59.0226 
 150   0.0000       2.180698        59.3398 
 151   0.0000       2.221536        60.4511 
 152   0.0000       2.235795        60.8391 
 153   0.0000       2.261222        61.5310 
 154   0.0000       2.273020        61.8520 
 155   0.0000       2.282747        62.1167 
 156   0.0000       2.297611        62.5212 
 157   0.0000       2.321424        63.1692 
 158   0.0000       2.329911        63.4001 
 159   0.0000       2.346680        63.8564 
 160   0.0000       2.351549        63.9889 
 161   0.0000       2.359639        64.2090 
 162   0.0000       2.364571        64.3433 
 163   0.0000       2.382808        64.8395 
 164   0.0000       2.406327        65.4795 
 165   0.0000       2.414242        65.6949 
 166   0.0000       2.446887        66.5832 
 167   0.0000       2.449561        66.6559 
 168   0.0000       2.459682        66.9314 
 169   0.0000       2.485902        67.6448 
 170   0.0000       2.502523        68.0971 
 171   0.0000       2.538837        69.0853 
 172   0.0000       2.542795        69.1930 
 173   0.0000       2.545612        69.2696 
 174   0.0000       2.575641        70.0868 
 175   0.0000       2.588538        70.4377 
 176   0.0000       2.609810        71.0165 
 177   0.0000       2.614909        71.1553 
 178   0.0000       2.623012        71.3758 
 179   0.0000       2.634643        71.6923 
 180   0.0000       2.650051        72.1116 
 181   0.0000       2.651666        72.1555 
 182   0.0000       2.657031        72.3015 
 183   0.0000       2.678454        72.8844 
 184   0.0000       2.698122        73.4196 
 185   0.0000       2.714170        73.8563 
 186   0.0000       2.722831        74.0920 
 187   0.0000       2.736854        74.4736 
 188   0.0000       2.744925        74.6932 
 189   0.0000       2.762548        75.1728 
 190   0.0000       2.774991        75.5113 
 191   0.0000       2.833585        77.1058 
 192   0.0000       2.892469        78.7081 
 193   0.0000       2.916703        79.3675 
 194   0.0000       2.928779        79.6961 
 195   0.0000       2.952418        80.3394 
 196   0.0000       2.958894        80.5156 
 197   0.0000       2.971325        80.8539 
 198   0.0000       2.982974        81.1708 
 199   0.0000       3.002309        81.6970 
 200   0.0000       3.011426        81.9451 
 201   0.0000       3.024399        82.2981 
 202   0.0000       3.037085        82.6433 
 203   0.0000       3.053301        83.0845 
 204   0.0000       3.067545        83.4722 
 205   0.0000       3.094898        84.2165 
 206   0.0000       3.117485        84.8311 
 207   0.0000       3.121285        84.9345 
 208   0.0000       3.171180        86.2922 
 209   0.0000       3.178702        86.4969 
 210   0.0000       3.220054        87.6221 
 211   0.0000       3.226033        87.7848 
 212   0.0000       3.233755        87.9950 
 213   0.0000       3.258767        88.6756 
 214   0.0000       3.267192        88.9048 
 215   0.0000       3.283586        89.3509 
 216   0.0000       3.319809        90.3366 
 217   0.0000       3.348290        91.1116 
 218   0.0000       3.355552        91.3092 
 219   0.0000       3.390076        92.2487 
 220   0.0000       3.447501        93.8113 
 221   0.0000       3.480167        94.7002 
 222   0.0000       3.501226        95.2732 
 223   0.0000       3.530582        96.0720 
 224   0.0000       4.031453       109.7014 
 225   0.0000       4.047544       110.1393 
 226   0.0000       4.060904       110.5028 
 227   0.0000       4.084326       111.1402 
 228   0.0000       4.108417       111.7957 
 229   0.0000       4.111223       111.8721 
 230   0.0000       4.126367       112.2842 
 231   0.0000       4.184000       113.8524 
 232   0.0000       4.289729       116.7295 
 233   0.0000       4.300841       117.0318 
 234   0.0000       4.316037       117.4453 
 235   0.0000       4.328563       117.7862 
 236   0.0000       4.337446       118.0279 
 237   0.0000       4.349759       118.3630 
 238   0.0000       4.365468       118.7904 
 239   0.0000       4.384773       119.3157 
 240   0.0000       5.501552       149.7048 
 241   0.0000       5.504932       149.7968 
 242   0.0000       5.512201       149.9946 
 243   0.0000       5.513927       150.0416 
 244   0.0000       5.535496       150.6285 
 245   0.0000       5.546108       150.9173 
 246   0.0000       5.554573       151.1476 
 247   0.0000       5.582085       151.8963 
 248   0.0000       5.629255       153.1798 
 249   0.0000       5.630271       153.2075 
 250   0.0000       5.635866       153.3597 
 251   0.0000       5.641958       153.5255 
 252   0.0000       5.660011       154.0167 
 253   0.0000       5.661317       154.0523 
 254   0.0000       5.681767       154.6087 
 255   0.0000       5.689513       154.8195 
 256   0.0000       5.777300       157.2083 
 257   0.0000       5.789217       157.5326 
 258   0.0000       5.790777       157.5750 
 259   0.0000       5.795878       157.7139 
 260   0.0000       5.802852       157.9036 
 261   0.0000       5.812684       158.1712 
 262   0.0000       5.822186       158.4297 
 263   0.0000       5.822996       158.4518 
 264   0.0000       5.829554       158.6302 
 265   0.0000       5.833695       158.7429 
 266   0.0000       5.846806       159.0997 
 267   0.0000       5.851583       159.2297 
 268   0.0000       5.853307       159.2766 
 269   0.0000       5.858783       159.4256 
 270   0.0000       5.862657       159.5310 
 271   0.0000       5.871077       159.7601 
 272   0.0000       5.876142       159.8979 
 273   0.0000       5.879305       159.9840 
 274   0.0000       5.881418       160.0415 
 275   0.0000       5.909164       160.7965 
 276   0.0000       5.909256       160.7990 
 277   0.0000       5.912073       160.8757 
 278   0.0000       5.926090       161.2571 
 279   0.0000       5.941007       161.6630 
 280   0.0000       6.437656       175.1775 
 281   0.0000       6.440718       175.2609 
 282   0.0000       6.453338       175.6042 
 283   0.0000       6.459158       175.7626 
 284   0.0000       6.466089       175.9512 
 285   0.0000       6.484502       176.4523 
 286   0.0000       6.498299       176.8277 
 287   0.0000       6.528281       177.6436 
 288   0.0000       6.620137       180.1431 
 289   0.0000       6.670830       181.5225 
 290   0.0000       6.685265       181.9153 
 291   0.0000       6.700000       182.3163 
 292   0.0000       6.723917       182.9671 
 293   0.0000       6.737189       183.3282 
 294   0.0000       6.742033       183.4601 
 295   0.0000       6.772033       184.2764 
 296   0.0000       6.828162       185.8037 
 297   0.0000       6.830009       185.8540 
 298   0.0000       6.841120       186.1563 
 299   0.0000       6.854111       186.5098 
 300   0.0000       6.858563       186.6310 
 301   0.0000       6.866595       186.8495 
 302   0.0000       6.873951       187.0497 
 303   0.0000       6.876967       187.1318 
 304   0.0000       6.882939       187.2943 
 305   0.0000       6.891279       187.5212 
 306   0.0000       6.901867       187.8093 
 307   0.0000       6.904630       187.8845 
 308   0.0000       6.920445       188.3149 
 309   0.0000       6.934315       188.6923 
 310   0.0000       6.949164       189.0964 
 311   0.0000       6.952889       189.1977 
 312   0.0000       6.962502       189.4593 
 313   0.0000       6.993591       190.3053 
 314   0.0000       6.998797       190.4469 
 315   0.0000       7.012755       190.8268 
 316   0.0000       7.029674       191.2872 
 317   0.0000       7.045242       191.7108 
 318   0.0000       7.073833       192.4888 
 319   0.0000       7.104323       193.3185 
 320   0.0000       7.328764       199.4258 
 321   0.0000       7.375978       200.7106 
 322   0.0000       7.383978       200.9282 
 323   0.0000       7.420976       201.9350 
 324   0.0000       7.440354       202.4623 
 325   0.0000       7.446300       202.6241 
 326   0.0000       7.482869       203.6192 
 327   0.0000       7.510679       204.3760 
 328   0.0000       7.517342       204.5573 
 329   0.0000       7.541402       205.2120 
 330   0.0000       7.554139       205.5586 
 331   0.0000       7.561486       205.7585 
 332   0.0000       7.575077       206.1283 
 333   0.0000       7.580029       206.2631 
 334   0.0000       7.614901       207.2120 
 335   0.0000       7.625796       207.5085 
 336   0.0000      44.920001      1222.3354 
 337   0.0000      44.968900      1223.6660 
 338   0.0000      44.998956      1224.4838 
 339   0.0000      45.006850      1224.6987 
 340   0.0000      45.056708      1226.0554 
 341   0.0000      45.060781      1226.1662 
 342   0.0000      45.065095      1226.2836 
 343   0.0000      45.167030      1229.0574 

                    ********************************
                    * MULLIKEN POPULATION ANALYSIS *
                    ********************************

-----------------------
MULLIKEN ATOMIC CHARGES
-----------------------
   0 O :   -0.792420
   1 H :    0.361438
   2 H :    0.413724
   3 O :   -0.763482
   4 H :    0.381053
   5 H :    0.373128
   6 O :   -0.781270
   7 H :    0.373133
   8 H :    0.402927
   9 O :   -0.776404
  10 H :    0.383995
  11 H :    0.399279
  12 O :   -0.786734
  13 H :    0.384625
  14 H :    0.398251
  15 O :   -0.779623
  16 H :    0.361711
  17 H :    0.409951
  18 O :   -0.732665
  19 H :    0.407909
  20 H :    0.360419
  21 O :   -0.713565
  22 H :    0.387763
  23 H :    0.326855
Sum of atomic charges:    0.0000000

--------------------------------
MULLIKEN REDUCED ORBITAL CHARGES
--------------------------------
  0 O s       :     3.806665  s :     3.806665
      pz      :     1.724996  p :     4.962365
      px      :     1.797785
      py      :     1.439584
      dz2     :     0.003586  d :     0.021999
      dxz     :     0.005034
      dyz     :     0.004330
      dx2y2   :     0.002240
      dxy     :     0.006808
      f0      :     0.000081  f :     0.001392
      f+1     :     0.000171
      f-1     :     0.000315
      f+2     :     0.000062
      f-2     :     0.000347
      f+3     :     0.000334
      f-3     :     0.000083
  1 H s       :     0.593204  s :     0.593204
      pz      :     0.016851  p :     0.045357
      px      :     0.014778
      py      :     0.013728
  2 H s       :     0.530739  s :     0.530739
      pz      :     0.009945  p :     0.055537
      px      :     0.013092
      py      :     0.032500
  3 O s       :     3.807085  s :     3.807085
      pz      :     1.544928  p :     4.930318
      px      :     1.566726
      py      :     1.818664
      dz2     :     0.011547  d :     0.024646
      dxz     :     0.001258
      dyz     :     0.002819
      dx2y2   :     0.002028
      dxy     :     0.006994
      f0      :     0.000253  f :     0.001433
      f+1     :     0.000370
      f-1     :     0.000159
      f+2     :     0.000055
      f-2     :     0.000054
      f+3     :     0.000063
      f-3     :     0.000480
  4 H s       :     0.570387  s :     0.570387
      pz      :     0.023770  p :     0.048559
      px      :     0.011657
      py      :     0.013133
  5 H s       :     0.576440  s :     0.576440
      pz      :     0.010147  p :     0.050433
      px      :     0.023805
      py      :     0.016481
  6 O s       :     3.802571  s :     3.802571
      pz      :     1.569120  p :     4.954318
      px      :     1.847520
      py      :     1.537678
      dz2     :     0.010800  d :     0.023030
      dxz     :     0.001955
      dyz     :     0.002634
      dx2y2   :     0.003164
      dxy     :     0.004477
      f0      :     0.000187  f :     0.001351
      f+1     :     0.000109
      f-1     :     0.000448
      f+2     :     0.000067
      f-2     :     0.000037
      f+3     :     0.000409
      f-3     :     0.000094
  7 H s       :     0.583045  s :     0.583045
      pz      :     0.018987  p :     0.043821
      px      :     0.013231
      py      :     0.011603
  8 H s       :     0.544651  s :     0.544651
      pz      :     0.008448  p :     0.052421
      px      :     0.014235
      py      :     0.029738
  9 O s       :     3.798123  s :     3.798123
      pz      :     1.606085  p :     4.953138
      px      :     1.832236
      py      :     1.514818
      dz2     :     0.011204  d :     0.023844
      dxz     :     0.002043
      dyz     :     0.002804
      dx2y2   :     0.003321
      dxy     :     0.004473
      f0      :     0.000147  f :     0.001298
      f+1     :     0.000104
      f-1     :     0.000449
      f+2     :     0.000065
      f-2     :     0.000038
      f+3     :     0.000402
      f-3     :     0.000092
 10 H s       :     0.562533  s :     0.562533
      pz      :     0.009619  p :     0.053472
      px      :     0.014929
      py      :     0.028924
 11 H s       :     0.552381  s :     0.552381
      pz      :     0.025020  p :     0.048340
      px      :     0.012459
      py      :     0.010860
 12 O s       :     3.801601  s :     3.801601
      pz      :     1.575728  p :     4.961101
      px      :     1.531298
      py      :     1.854075
      dz2     :     0.010493  d :     0.022667
      dxz     :     0.002497
      dyz     :     0.001904
      dx2y2   :     0.003153
      dxy     :     0.004619
      f0      :     0.000190  f :     0.001366
      f+1     :     0.000445
      f-1     :     0.000112
      f+2     :     0.000069
      f-2     :     0.000037
      f+3     :     0.000098
      f-3     :     0.000414
 13 H s       :     0.571754  s :     0.571754
      pz      :     0.019114  p :     0.043620
      px      :     0.011522
      py      :     0.012984
 14 H s       :     0.549243  s :     0.549243
      pz      :     0.008594  p :     0.052506
      px      :     0.029453
      py      :     0.014459
 15 O s       :     3.803156  s :     3.803156
      pz      :     1.559747  p :     4.951970
      px      :     1.545325
      py      :     1.846899
      dz2     :     0.010951  d :     0.023154
      dxz     :     0.002707
      dyz     :     0.001978
      dx2y2   :     0.003146
      dxy     :     0.004372
      f0      :     0.000186  f :     0.001342
      f+1     :     0.000447
      f-1     :     0.000109
      f+2     :     0.000067
      f-2     :     0.000037
      f+3     :     0.000091
      f-3     :     0.000404
 16 H s       :     0.594258  s :     0.594258
      pz      :     0.018831  p :     0.044031
      px      :     0.011778
      py      :     0.013422
 17 H s       :     0.537550  s :     0.537550
      pz      :     0.008298  p :     0.052498
      px      :     0.030133
      py      :     0.014067
 18 O s       :     3.797927  s :     3.797927
      pz      :     1.575990  p :     4.908273
      px      :     1.549260
      py      :     1.783023
      dz2     :     0.012019  d :     0.025073
      dxz     :     0.001213
      dyz     :     0.002341
      dx2y2   :     0.002467
      dxy     :     0.007033
      f0      :     0.000226  f :     0.001392
      f+1     :     0.000382
      f-1     :     0.000154
      f+2     :     0.000050
      f-2     :     0.000055
      f+3     :     0.000051
      f-3     :     0.000475
 19 H s       :     0.544256  s :     0.544256
      pz      :     0.024957  p :     0.047835
      px      :     0.011035
      py      :     0.011843
 20 H s       :     0.595893  s :     0.595893
      pz      :     0.010544  p :     0.043688
      px      :     0.018428
      py      :     0.014716
 21 O s       :     3.811705  s :     3.811705
      pz      :     1.551337  p :     4.874611
      px      :     1.811853
      py      :     1.511421
      dz2     :     0.011806  d :     0.025756
      dxz     :     0.003029
      dyz     :     0.001244
      dx2y2   :     0.002159
      dxy     :     0.007517
      f0      :     0.000249  f :     0.001493
      f+1     :     0.000167
      f-1     :     0.000374
      f+2     :     0.000055
      f-2     :     0.000056
      f+3     :     0.000521
      f-3     :     0.000071
 22 H s       :     0.563437  s :     0.563437
      pz      :     0.024110  p :     0.048800
      px      :     0.013064
      py      :     0.011626
 23 H s       :     0.628037  s :     0.628037
      pz      :     0.011117  p :     0.045108
      px      :     0.015950
      py      :     0.018041


                     *******************************
                     * LOEWDIN POPULATION ANALYSIS *
                     *******************************

----------------------
LOEWDIN ATOMIC CHARGES
----------------------
   0 O :   -0.325903
   1 H :    0.159399
   2 H :    0.157191
   3 O :   -0.360118
   4 H :    0.152031
   5 H :    0.149011
   6 O :   -0.306436
   7 H :    0.171661
   8 H :    0.157052
   9 O :   -0.327890
  10 H :    0.147907
  11 H :    0.156923
  12 O :   -0.309944
  13 H :    0.178350
  14 H :    0.155061
  15 O :   -0.306890
  16 H :    0.166776
  17 H :    0.158967
  18 O :   -0.283480
  19 H :    0.164764
  20 H :    0.170826
  21 O :   -0.338387
  22 H :    0.156273
  23 H :    0.156858

-------------------------------
LOEWDIN REDUCED ORBITAL CHARGES
-------------------------------
  0 O s       :     3.454802  s :     3.454802
      pz      :     1.682976  p :     4.840628
      px      :     1.752500
      py      :     1.405153
      dz2     :     0.004676  d :     0.028518
      dxz     :     0.005129
      dyz     :     0.006577
      dx2y2   :     0.003602
      dxy     :     0.008534
      f0      :     0.000085  f :     0.001955
      f+1     :     0.000260
      f-1     :     0.000428
      f+2     :     0.000031
      f-2     :     0.000607
      f+3     :     0.000461
      f-3     :     0.000083
  1 H s       :     0.675080  s :     0.675080
      pz      :     0.066120  p :     0.165521
      px      :     0.053218
      py      :     0.046183
  2 H s       :     0.645388  s :     0.645388
      pz      :     0.033294  p :     0.197422
      px      :     0.047579
      py      :     0.116549
  3 O s       :     3.460289  s :     3.460289
      pz      :     1.530177  p :     4.867837
      px      :     1.545857
      py      :     1.791803
      dz2     :     0.015024  d :     0.029972
      dxz     :     0.001956
      dyz     :     0.002192
      dx2y2   :     0.002108
      dxy     :     0.008693
      f0      :     0.000454  f :     0.002020
      f+1     :     0.000543
      f-1     :     0.000302
      f+2     :     0.000022
      f-2     :     0.000047
      f+3     :     0.000002
      f-3     :     0.000649
  4 H s       :     0.677507  s :     0.677507
      pz      :     0.091023  p :     0.170462
      px      :     0.037052
      py      :     0.042388
  5 H s       :     0.676641  s :     0.676641
      pz      :     0.031095  p :     0.174349
      px      :     0.085348
      py      :     0.057906
  6 O s       :     3.454470  s :     3.454470
      pz      :     1.536190  p :     4.820271
      px      :     1.788250
      py      :     1.495830
      dz2     :     0.014695  d :     0.029736
      dxz     :     0.001232
      dyz     :     0.003966
      dx2y2   :     0.004525
      dxy     :     0.005318
      f0      :     0.000377  f :     0.001959
      f+1     :     0.000189
      f-1     :     0.000728
      f+2     :     0.000038
      f-2     :     0.000046
      f+3     :     0.000517
      f-3     :     0.000063
  7 H s       :     0.668208  s :     0.668208
      pz      :     0.080029  p :     0.160132
      px      :     0.042936
      py      :     0.037167
  8 H s       :     0.654046  s :     0.654046
      pz      :     0.028957  p :     0.188903
      px      :     0.052563
      py      :     0.107382
  9 O s       :     3.454961  s :     3.454961
      pz      :     1.577946  p :     4.842278
      px      :     1.778437
      py      :     1.485896
      dz2     :     0.013461  d :     0.028766
      dxz     :     0.001189
      dyz     :     0.003639
      dx2y2   :     0.004879
      dxy     :     0.005599
      f0      :     0.000323  f :     0.001885
      f+1     :     0.000191
      f-1     :     0.000692
      f+2     :     0.000035
      f-2     :     0.000043
      f+3     :     0.000536
      f-3     :     0.000066
 10 H s       :     0.665723  s :     0.665723
      pz      :     0.030753  p :     0.186370
      px      :     0.052625
      py      :     0.102992
 11 H s       :     0.668534  s :     0.668534
      pz      :     0.094505  p :     0.174544
      px      :     0.042508
      py      :     0.037530
 12 O s       :     3.453619  s :     3.453619
      pz      :     1.539742  p :     4.825188
      px      :     1.493072
      py      :     1.792374
      dz2     :     0.014088  d :     0.029176
      dxz     :     0.003780
      dyz     :     0.001203
      dx2y2   :     0.004565
      dxy     :     0.005539
      f0      :     0.000372  f :     0.001961
      f+1     :     0.000719
      f-1     :     0.000193
      f+2     :     0.000038
      f-2     :     0.000046
      f+3     :     0.000065
      f-3     :     0.000529
 13 H s       :     0.661488  s :     0.661488
      pz      :     0.080527  p :     0.160162
      px      :     0.036921
      py      :     0.042715
 14 H s       :     0.656753  s :     0.656753
      pz      :     0.029179  p :     0.188186
      px      :     0.106228
      py      :     0.052779
 15 O s       :     3.455835  s :     3.455835
      pz      :     1.531900  p :     4.819064
      px      :     1.499793
      py      :     1.787370
      dz2     :     0.015047  d :     0.030034
      dxz     :     0.004132
      dyz     :     0.001262
      dx2y2   :     0.004456
      dxy     :     0.005136
      f0      :     0.000384  f :     0.001957
      f+1     :     0.000732
      f-1     :     0.000191
      f+2     :     0.000038
      f-2     :     0.000048
      f+3     :     0.000062
      f-3     :     0.000502
 16 H s       :     0.673257  s :     0.673257
      pz      :     0.079404  p :     0.159967
      px      :     0.037451
      py      :     0.043112
 17 H s       :     0.650335  s :     0.650335
      pz      :     0.028704  p :     0.190698
      px      :     0.109392
      py      :     0.052601
 18 O s       :     3.451984  s :     3.451984
      pz      :     1.544369  p :     4.797587
      px      :     1.529892
      py      :     1.723325
      dz2     :     0.015417  d :     0.031810
      dxz     :     0.001730
      dyz     :     0.001772
      dx2y2   :     0.003705
      dxy     :     0.009186
      f0      :     0.000406  f :     0.002099
      f+1     :     0.000556
      f-1     :     0.000330
      f+2     :     0.000020
      f-2     :     0.000046
      f+3     :     0.000026
      f-3     :     0.000714
 19 H s       :     0.663352  s :     0.663352
      pz      :     0.094609  p :     0.171884
      px      :     0.036013
      py      :     0.041262
 20 H s       :     0.670799  s :     0.670799
      pz      :     0.031237  p :     0.158374
      px      :     0.072411
      py      :     0.054727
 21 O s       :     3.467824  s :     3.467824
      pz      :     1.533886  p :     4.835862
      px      :     1.785320
      py      :     1.516656
      dz2     :     0.015623  d :     0.032549
      dxz     :     0.002347
      dyz     :     0.001860
      dx2y2   :     0.002473
      dxy     :     0.010246
      f0      :     0.000442  f :     0.002152
      f+1     :     0.000318
      f-1     :     0.000567
      f+2     :     0.000024
      f-2     :     0.000045
      f+3     :     0.000752
      f-3     :     0.000003
 22 H s       :     0.673571  s :     0.673571
      pz      :     0.092380  p :     0.170155
      px      :     0.041996
      py      :     0.035779
 23 H s       :     0.686143  s :     0.686143
      pz      :     0.031420  p :     0.156998
      px      :     0.054737
      py      :     0.070841


                      *****************************
                      * MAYER POPULATION ANALYSIS *
                      *****************************

  NA   - Mulliken gross atomic population
  ZA   - Total nuclear charge
  QA   - Mulliken gross atomic charge
  VA   - Mayer's total valence
  BVA  - Mayer's bonded valence
  FA   - Mayer's free valence

  ATOM       NA         ZA         QA         VA         BVA        FA
  0 O      8.7924     8.0000    -0.7924     1.6791     1.6791     0.0000
  1 H      0.6386     1.0000     0.3614     0.8870     0.8870     0.0000
  2 H      0.5863     1.0000     0.4137     0.8642     0.8642     0.0000
  3 O      8.7635     8.0000    -0.7635     1.7279     1.7279     0.0000
  4 H      0.6189     1.0000     0.3811     0.8766     0.8766     0.0000
  5 H      0.6269     1.0000     0.3731     0.8943     0.8943    -0.0000
  6 O      8.7813     8.0000    -0.7813     1.6934     1.6934    -0.0000
  7 H      0.6269     1.0000     0.3731     0.8793     0.8793    -0.0000
  8 H      0.5971     1.0000     0.4029     0.8839     0.8839     0.0000
  9 O      8.7764     8.0000    -0.7764     1.7102     1.7102    -0.0000
 10 H      0.6160     1.0000     0.3840     0.8911     0.8911     0.0000
 11 H      0.6007     1.0000     0.3993     0.8706     0.8706    -0.0000
 12 O      8.7867     8.0000    -0.7867     1.6922     1.6922    -0.0000
 13 H      0.6154     1.0000     0.3846     0.8702     0.8702    -0.0000
 14 H      0.6017     1.0000     0.3983     0.8838     0.8838     0.0000
 15 O      8.7796     8.0000    -0.7796     1.6899     1.6899    -0.0000
 16 H      0.6383     1.0000     0.3617     0.8863     0.8863    -0.0000
 17 H      0.5900     1.0000     0.4100     0.8792     0.8792     0.0000
 18 O      8.7327     8.0000    -0.7327     1.7562     1.7562    -0.0000
 19 H      0.5921     1.0000     0.4079     0.8578     0.8578    -0.0000
 20 H      0.6396     1.0000     0.3604     0.8894     0.8894     0.0000
 21 O      8.7136     8.0000    -0.7136     1.7666     1.7666    -0.0000
 22 H      0.6122     1.0000     0.3878     0.8718     0.8718     0.0000
 23 H      0.6731     1.0000     0.3269     0.9097     0.9097    -0.0000

  Mayer bond orders larger than 0.100000
B(  0-O ,  1-H ) :   0.8765 B(  0-O ,  2-H ) :   0.7786 B(  3-O ,  4-H ) :   0.8612 
B(  3-O ,  5-H ) :   0.8542 B(  6-O ,  7-H ) :   0.8678 B(  6-O ,  8-H ) :   0.7873 
B(  9-O , 10-H ) :   0.8262 B(  9-O , 11-H ) :   0.8327 B( 12-O , 13-H ) :   0.8603 
B( 12-O , 14-H ) :   0.7980 B( 15-O , 16-H ) :   0.8758 B( 15-O , 17-H ) :   0.7732 
B( 18-O , 19-H ) :   0.8297 B( 18-O , 20-H ) :   0.8751 B( 21-O , 22-H ) :   0.8531 
B( 21-O , 23-H ) :   0.9021 

-------
TIMINGS
-------

Total SCF time: 0 days 0 hours 0 min 31 sec 

Total time                  ....      31.113 sec
Sum of individual times     ....      30.807 sec  ( 99.0%)

Fock matrix formation       ....      30.213 sec  ( 97.1%)
Diagonalization             ....       0.140 sec  (  0.5%)
Density matrix formation    ....       0.017 sec  (  0.1%)
Population analysis         ....       0.027 sec  (  0.1%)
Initial guess               ....       0.200 sec  (  0.6%)
Orbital Transformation      ....       0.000 sec  (  0.0%)
Orbital Orthonormalization  ....       0.000 sec  (  0.0%)
DIIS solution               ....       0.056 sec  (  0.2%)
SOSCF solution              ....       0.061 sec  (  0.2%)


           ************************************************************
           *        Program running with 6 parallel MPI-processes     *
           *              working on a common directory               *
           ************************************************************

------------------------------------------------------------------------------
                                ORCA  MP2 
------------------------------------------------------------------------------

Freezing NCore=16 chemical core electrons
MP2 will be done in the AO integral direct mode
The Q1-step will be done using symmetric double matrices
Dimension of the basis                    ...  344
Memory devoted for MP2                    ... 8000 MB   
Memory needed for all in one shot         ...  935 MB
Number of MOs that can be treated together...   50      
MP2 density construction                  ... relaxed
The MP2 gradient is requested => amplitudes will be stored on disk
Total number of MOs              ...   32
Number of MOs treated per batch  ...    6 
Number of batches necessary      ...    1 
OPERATORS   0/  0 PASS   0
-----------------------------------------------
 MP2 CORRELATION ENERGY   :     -2.077546098 Eh
-----------------------------------------------


---------------------
MP2 DENSITY FORMATION
---------------------

Completing the external part of the density      ... done
Storing the unrelaxed density                    ... done

Calculating G(D)                                 ... done
Completing the Lagrangian                        ... done
Solving the Z-vector equations                   ... 

------------------------------------------------------------------------------
                           ORCA CP-SCF CALCULATION
------------------------------------------------------------------------------

Input orbitals are from        ... 12h2o.su.etal.mol2,3,4,5,6,7,8,11-orca.engrad-mp2.def2tzvp.frozencore.gbw
Input Perturbation             ... 12h2o.su.etal.mol2,3,4,5,6,7,8,11-orca.engrad-mp2.def2tzvp.frozencore.pin.tmp
Wavefunction output            ... 12h2o.su.etal.mol2,3,4,5,6,7,8,11-orca.engrad-mp2.def2tzvp.frozencore.pout.tmp
Perturbation mode              ... Real perturbation (singlet)
Solver                         ... POPLE
Max. number of iterations      ... 128
Convergence tolerance          ... 1.000e-08
Integral handling              ... Direct
Number of perturbations        ... 1
Number of operators            ... 1
Orbital ranges used for CP-SCF:
 Operator 0:  Orbitals   0... 39  to  40...343
Variables per vector in CP-SCF ... 12160
Number of vectors sought       ... 1
     CP-SCF ITERATION   0: 
     CP-SCF ITERATION   1:      0.001078221007
     CP-SCF ITERATION   2:      0.000031774915
     CP-SCF ITERATION   3:      0.000001562096
     CP-SCF ITERATION   4:      0.000000165631
     CP-SCF ITERATION   5:      0.000000016292
     CP-SCF ITERATION   6:      0.000000000900
                                                 ... done
Finalizing the relaxed density                   ... done
Transforming P to the AO basis                   ... done
Storing the relaxed density                      ... done

------------------------------------
ENERGY WEIGHTED DENSITY FINALIZATION
------------------------------------

Gathering the parts of the W-matrix              ...                                                      done
Forming the Z-density                            ... done
Transforming Z to the AO basis                   ... done
Calculating G(Z)                                 ... done
Finalizing the W-matrix                          ...                                                      done
Transforming W to the AO basis and storing       ... done

                *********************************************
                * UNRELAXED MP2 DENSITY POPULATION ANALYSIS *
                *********************************************

------------------------------------------------------------------------------
                           ORCA POPULATION ANALYSIS
------------------------------------------------------------------------------
Input electron density              ... 12h2o.su.etal.mol2,3,4,5,6,7,8,11-orca.engrad-mp2.def2tzvp.frozencore.pmp2ur
BaseName (.gbw .S,...)              ... 12h2o.su.etal.mol2,3,4,5,6,7,8,11-orca.engrad-mp2.def2tzvp.frozencore

                    ********************************
                    * MULLIKEN POPULATION ANALYSIS *
                    ********************************

-----------------------
MULLIKEN ATOMIC CHARGES
-----------------------
   0 O :   -0.785808
   1 H :    0.359088
   2 H :    0.408876
   3 O :   -0.757426
   4 H :    0.378174
   5 H :    0.369634
   6 O :   -0.773998
   7 H :    0.370646
   8 H :    0.397900
   9 O :   -0.768592
  10 H :    0.379495
  11 H :    0.396064
  12 O :   -0.779628
  13 H :    0.382224
  14 H :    0.393424
  15 O :   -0.772330
  16 H :    0.359224
  17 H :    0.404959
  18 O :   -0.725792
  19 H :    0.404987
  20 H :    0.357756
  21 O :   -0.708173
  22 H :    0.384921
  23 H :    0.324376
Sum of atomic charges:    0.0000000

--------------------------------
MULLIKEN REDUCED ORBITAL CHARGES
--------------------------------
  0 O s       :     3.801719  s :     3.801719
      pz      :     1.713830  p :     4.930130
      px      :     1.785687
      py      :     1.430613
      dz2     :     0.009283  d :     0.049970
      dxz     :     0.010592
      dyz     :     0.009870
      dx2y2   :     0.007919
      dxy     :     0.012307
      f0      :     0.000455  f :     0.003989
      f+1     :     0.000539
      f-1     :     0.000683
      f+2     :     0.000434
      f-2     :     0.000715
      f+3     :     0.000703
      f-3     :     0.000460
  1 H s       :     0.593957  s :     0.593957
      pz      :     0.017316  p :     0.046955
      px      :     0.015475
      py      :     0.014165
  2 H s       :     0.533971  s :     0.533971
      pz      :     0.010748  p :     0.057153
      px      :     0.013794
      py      :     0.032611
  3 O s       :     3.802312  s :     3.802312
      pz      :     1.535433  p :     4.899417
      px      :     1.557075
      py      :     1.806908
      dz2     :     0.016716  d :     0.051688
      dxz     :     0.006728
      dyz     :     0.008335
      dx2y2   :     0.007604
      dxy     :     0.012304
      f0      :     0.000633  f :     0.004009
      f+1     :     0.000739
      f-1     :     0.000532
      f+2     :     0.000415
      f-2     :     0.000421
      f+3     :     0.000432
      f-3     :     0.000836
  4 H s       :     0.571658  s :     0.571658
      pz      :     0.023842  p :     0.050168
      px      :     0.012344
      py      :     0.013982
  5 H s       :     0.578319  s :     0.578319
      pz      :     0.010950  p :     0.052047
      px      :     0.024001
      py      :     0.017097
  6 O s       :     3.797256  s :     3.797256
      pz      :     1.559551  p :     4.921793
      px      :     1.834304
      py      :     1.527937
      dz2     :     0.016197  d :     0.050993
      dxz     :     0.007688
      dyz     :     0.008137
      dx2y2   :     0.008880
      dxy     :     0.010091
      f0      :     0.000572  f :     0.003956
      f+1     :     0.000486
      f-1     :     0.000817
      f+2     :     0.000435
      f-2     :     0.000406
      f+3     :     0.000773
      f-3     :     0.000468
  7 H s       :     0.583963  s :     0.583963
      pz      :     0.019124  p :     0.045391
      px      :     0.014056
      py      :     0.012211
  8 H s       :     0.548107  s :     0.548107
      pz      :     0.009213  p :     0.053994
      px      :     0.014892
      py      :     0.029889
  9 O s       :     3.792839  s :     3.792839
      pz      :     1.596001  p :     4.920187
      px      :     1.818941
      py      :     1.505246
      dz2     :     0.016536  d :     0.051657
      dxz     :     0.007749
      dyz     :     0.008295
      dx2y2   :     0.009013
      dxy     :     0.010064
      f0      :     0.000536  f :     0.003908
      f+1     :     0.000481
      f-1     :     0.000821
      f+2     :     0.000433
      f-2     :     0.000407
      f+3     :     0.000764
      f-3     :     0.000465
 10 H s       :     0.565340  s :     0.565340
      pz      :     0.010457  p :     0.055165
      px      :     0.015617
      py      :     0.029090
 11 H s       :     0.554090  s :     0.554090
      pz      :     0.025118  p :     0.049846
      px      :     0.013270
      py      :     0.011458
 12 O s       :     3.796352  s :     3.796352
      pz      :     1.566021  p :     4.928621
      px      :     1.521606
      py      :     1.840994
      dz2     :     0.015926  d :     0.050684
      dxz     :     0.008013
      dyz     :     0.007646
      dx2y2   :     0.008872
      dxy     :     0.010227
      f0      :     0.000576  f :     0.003971
      f+1     :     0.000815
      f-1     :     0.000488
      f+2     :     0.000437
      f-2     :     0.000406
      f+3     :     0.000471
      f-3     :     0.000778
 13 H s       :     0.572640  s :     0.572640
      pz      :     0.019226  p :     0.045137
      px      :     0.012114
      py      :     0.013797
 14 H s       :     0.552472  s :     0.552472
      pz      :     0.009370  p :     0.054104
      px      :     0.029601
      py      :     0.015133
 15 O s       :     3.797815  s :     3.797815
      pz      :     1.550277  p :     4.919457
      px      :     1.535557
      py      :     1.833624
      dz2     :     0.016336  d :     0.051111
      dxz     :     0.008203
      dyz     :     0.007706
      dx2y2   :     0.008868
      dxy     :     0.009998
      f0      :     0.000571  f :     0.003947
      f+1     :     0.000817
      f-1     :     0.000485
      f+2     :     0.000434
      f-2     :     0.000406
      f+3     :     0.000466
      f-3     :     0.000768
 16 H s       :     0.595125  s :     0.595125
      pz      :     0.018991  p :     0.045651
      px      :     0.012397
      py      :     0.014263
 17 H s       :     0.541000  s :     0.541000
      pz      :     0.009053  p :     0.054041
      px      :     0.030282
      py      :     0.014705
 18 O s       :     3.792769  s :     3.792769
      pz      :     1.566232  p :     4.876602
      px      :     1.539824
      py      :     1.770546
      dz2     :     0.017239  d :     0.052432
      dxz     :     0.006671
      dyz     :     0.007969
      dx2y2   :     0.008112
      dxy     :     0.012441
      f0      :     0.000611  f :     0.003990
      f+1     :     0.000751
      f-1     :     0.000533
      f+2     :     0.000413
      f-2     :     0.000422
      f+3     :     0.000425
      f-3     :     0.000834
 19 H s       :     0.545731  s :     0.545731
      pz      :     0.024997  p :     0.049282
      px      :     0.011660
      py      :     0.012625
 20 H s       :     0.596983  s :     0.596983
      pz      :     0.011333  p :     0.045261
      px      :     0.018589
      py      :     0.015338
 21 O s       :     3.806912  s :     3.806912
      pz      :     1.541893  p :     4.844860
      px      :     1.800536
      py      :     1.502431
      dz2     :     0.016908  d :     0.052349
      dxz     :     0.008490
      dyz     :     0.006626
      dx2y2   :     0.007622
      dxy     :     0.012704
      f0      :     0.000629  f :     0.004052
      f+1     :     0.000540
      f-1     :     0.000740
      f+2     :     0.000414
      f-2     :     0.000420
      f+3     :     0.000872
      f-3     :     0.000437
 22 H s       :     0.564722  s :     0.564722
      pz      :     0.024171  p :     0.050357
      px      :     0.013904
      py      :     0.012281
 23 H s       :     0.628784  s :     0.628784
      pz      :     0.011948  p :     0.046840
      px      :     0.016651
      py      :     0.018240


                     *******************************
                     * LOEWDIN POPULATION ANALYSIS *
                     *******************************

----------------------
LOEWDIN ATOMIC CHARGES
----------------------
   0 O :   -0.321770
   1 H :    0.158072
   2 H :    0.154495
   3 O :   -0.357016
   4 H :    0.150104
   5 H :    0.146759
   6 O :   -0.301834
   7 H :    0.170103
   8 H :    0.154222
   9 O :   -0.323465
  10 H :    0.145220
  11 H :    0.154807
  12 O :   -0.305435
  13 H :    0.176926
  14 H :    0.152267
  15 O :   -0.302307
  16 H :    0.165187
  17 H :    0.156180
  18 O :   -0.278985
  19 H :    0.162873
  20 H :    0.169197
  21 O :   -0.335309
  22 H :    0.154413
  23 H :    0.155296

-------------------------------
LOEWDIN REDUCED ORBITAL CHARGES
-------------------------------
  0 O s       :     3.451167  s :     3.451167
      pz      :     1.671354  p :     4.808221
      px      :     1.740314
      py      :     1.396553
      dz2     :     0.010500  d :     0.057632
      dxz     :     0.011029
      dyz     :     0.012332
      dx2y2   :     0.009373
      dxy     :     0.014397
      f0      :     0.000470  f :     0.004751
      f+1     :     0.000649
      f-1     :     0.000845
      f+2     :     0.000411
      f-2     :     0.001019
      f+3     :     0.000883
      f-3     :     0.000475
  1 H s       :     0.673297  s :     0.673297
      pz      :     0.067329  p :     0.168631
      px      :     0.054201
      py      :     0.047102
  2 H s       :     0.645721  s :     0.645721
      pz      :     0.034124  p :     0.199785
      px      :     0.048431
      py      :     0.117230
  3 O s       :     3.456658  s :     3.456658
      pz      :     1.520567  p :     4.837384
      px      :     1.536280
      py      :     1.780537
      dz2     :     0.020898  d :     0.058180
      dxz     :     0.007386
      dyz     :     0.007657
      dx2y2   :     0.007669
      dxy     :     0.014571
      f0      :     0.000876  f :     0.004793
      f+1     :     0.000968
      f-1     :     0.000699
      f+2     :     0.000388
      f-2     :     0.000421
      f+3     :     0.000377
      f-3     :     0.001065
  4 H s       :     0.676414  s :     0.676414
      pz      :     0.092439  p :     0.173482
      px      :     0.037839
      py      :     0.043203
  5 H s       :     0.675917  s :     0.675917
      pz      :     0.031881  p :     0.177324
      px      :     0.086585
      py      :     0.058858
  6 O s       :     3.450733  s :     3.450733
      pz      :     1.525897  p :     4.787549
      px      :     1.775216
      py      :     1.486436
      dz2     :     0.020727  d :     0.058789
      dxz     :     0.006894
      dyz     :     0.009506
      dx2y2   :     0.010407
      dxy     :     0.011255
      f0      :     0.000795  f :     0.004764
      f+1     :     0.000582
      f-1     :     0.001169
      f+2     :     0.000413
      f-2     :     0.000421
      f+3     :     0.000936
      f-3     :     0.000448
  7 H s       :     0.666696  s :     0.666696
      pz      :     0.081536  p :     0.163201
      px      :     0.043698
      py      :     0.037967
  8 H s       :     0.654269  s :     0.654269
      pz      :     0.029766  p :     0.191510
      px      :     0.053370
      py      :     0.108374
  9 O s       :     3.451261  s :     3.451261
      pz      :     1.567950  p :     4.809827
      px      :     1.765316
      py      :     1.476561
      dz2     :     0.019416  d :     0.057682
      dxz     :     0.006819
      dyz     :     0.009167
      dx2y2   :     0.010751
      dxy     :     0.011529
      f0      :     0.000743  f :     0.004695
      f+1     :     0.000583
      f-1     :     0.001134
      f+2     :     0.000410
      f-2     :     0.000419
      f+3     :     0.000955
      f-3     :     0.000450
 10 H s       :     0.665569  s :     0.665569
      pz      :     0.031606  p :     0.189210
      px      :     0.053475
      py      :     0.104130
 11 H s       :     0.667840  s :     0.667840
      pz      :     0.095794  p :     0.177354
      px      :     0.043254
      py      :     0.038306
 12 O s       :     3.449887  s :     3.449887
      pz      :     1.529387  p :     4.792521
      px      :     1.483676
      py      :     1.779458
      dz2     :     0.020135  d :     0.058260
      dxz     :     0.009327
      dyz     :     0.006872
      dx2y2   :     0.010451
      dxy     :     0.011476
      f0      :     0.000790  f :     0.004766
      f+1     :     0.001159
      f-1     :     0.000585
      f+2     :     0.000413
      f-2     :     0.000421
      f+3     :     0.000450
      f-3     :     0.000948
 13 H s       :     0.659977  s :     0.659977
      pz      :     0.081929  p :     0.163097
      px      :     0.037697
      py      :     0.043471
 14 H s       :     0.656872  s :     0.656872
      pz      :     0.029995  p :     0.190861
      px      :     0.107247
      py      :     0.053619
 15 O s       :     3.452092  s :     3.452092
      pz      :     1.521643  p :     4.786360
      px      :     1.490427
      py      :     1.774289
      dz2     :     0.021076  d :     0.059093
      dxz     :     0.009672
      dyz     :     0.006924
      dx2y2   :     0.010342
      dxy     :     0.011080
      f0      :     0.000803  f :     0.004763
      f+1     :     0.001173
      f-1     :     0.000583
      f+2     :     0.000413
      f-2     :     0.000423
      f+3     :     0.000448
      f-3     :     0.000921
 16 H s       :     0.671650  s :     0.671650
      pz      :     0.081005  p :     0.163163
      px      :     0.038271
      py      :     0.043886
 17 H s       :     0.650610  s :     0.650610
      pz      :     0.029499  p :     0.193209
      px      :     0.110335
      py      :     0.053375
 18 O s       :     3.448177  s :     3.448177
      pz      :     1.534637  p :     4.765692
      px      :     1.520280
      py      :     1.710776
      dz2     :     0.021312  d :     0.060221
      dxz     :     0.007143
      dyz     :     0.007331
      dx2y2   :     0.009333
      dxy     :     0.015101
      f0      :     0.000832  f :     0.004894
      f+1     :     0.000980
      f-1     :     0.000732
      f+2     :     0.000388
      f-2     :     0.000421
      f+3     :     0.000406
      f-3     :     0.001135
 19 H s       :     0.662524  s :     0.662524
      pz      :     0.095833  p :     0.174603
      px      :     0.036728
      py      :     0.042042
 20 H s       :     0.669319  s :     0.669319
      pz      :     0.032002  p :     0.161484
      px      :     0.073736
      py      :     0.055746
 21 O s       :     3.464084  s :     3.464084
      pz      :     1.524343  p :     4.806037
      px      :     1.774295
      py      :     1.507399
      dz2     :     0.021413  d :     0.060282
      dxz     :     0.007756
      dyz     :     0.007198
      dx2y2   :     0.007932
      dxy     :     0.015983
      f0      :     0.000862  f :     0.004905
      f+1     :     0.000715
      f-1     :     0.000988
      f+2     :     0.000388
      f-2     :     0.000416
      f+3     :     0.001162
      f-3     :     0.000375
 22 H s       :     0.672524  s :     0.672524
      pz      :     0.093734  p :     0.173062
      px      :     0.042813
      py      :     0.036516
 23 H s       :     0.684294  s :     0.684294
      pz      :     0.032210  p :     0.160411
      px      :     0.055848
      py      :     0.072353


                      *****************************
                      * MAYER POPULATION ANALYSIS *
                      *****************************

  NA   - Mulliken gross atomic population
[...]
      f-1     :     0.000524
      f+2     :     0.000414
      f-2     :     0.000421
      f+3     :     0.000425
      f-3     :     0.000808
 19 H s       :     0.558508  s :     0.558508
      pz      :     0.024185  p :     0.049625
      px      :     0.012081
      py      :     0.013358
 20 H s       :     0.603687  s :     0.603687
      pz      :     0.012051  p :     0.045926
      px      :     0.018016
      py      :     0.015859
 21 O s       :     3.808889  s :     3.808889
      pz      :     1.537975  p :     4.827247
      px      :     1.794608
      py      :     1.494664
      dz2     :     0.015657  d :     0.050149
      dxz     :     0.008469
      dyz     :     0.006589
      dx2y2   :     0.007526
      dxy     :     0.011909
      f0      :     0.000612  f :     0.003979
      f+1     :     0.000530
      f-1     :     0.000718
      f+2     :     0.000415
      f-2     :     0.000419
      f+3     :     0.000847
      f-3     :     0.000437
 22 H s       :     0.576671  s :     0.576671
      pz      :     0.023279  p :     0.050846
      px      :     0.014794
      py      :     0.012774
 23 H s       :     0.633917  s :     0.633917
      pz      :     0.012725  p :     0.047695
      px      :     0.017246
      py      :     0.017723


                     *******************************
                     * LOEWDIN POPULATION ANALYSIS *
                     *******************************

----------------------
LOEWDIN ATOMIC CHARGES
----------------------
   0 O :   -0.314683
   1 H :    0.159876
   2 H :    0.146793
   3 O :   -0.355740
   4 H :    0.147415
   5 H :    0.142224
   6 O :   -0.293460
   7 H :    0.170978
   8 H :    0.146141
   9 O :   -0.314796
  10 H :    0.138620
  11 H :    0.150343
  12 O :   -0.297412
  13 H :    0.178089
  14 H :    0.144665
  15 O :   -0.293973
  16 H :    0.166486
  17 H :    0.147832
  18 O :   -0.271706
  19 H :    0.159511
  20 H :    0.170308
  21 O :   -0.336096
  22 H :    0.151285
  23 H :    0.157300

-------------------------------
LOEWDIN REDUCED ORBITAL CHARGES
-------------------------------
  0 O s       :     3.452714  s :     3.452714
      pz      :     1.666120  p :     4.799944
      px      :     1.733471
      py      :     1.400353
      dz2     :     0.010589  d :     0.057235
      dxz     :     0.011001
      dyz     :     0.012007
      dx2y2   :     0.009427
      dxy     :     0.014211
      f0      :     0.000473  f :     0.004790
      f+1     :     0.000650
      f-1     :     0.000856
      f+2     :     0.000412
      f-2     :     0.001021
      f+3     :     0.000899
      f-3     :     0.000480
  1 H s       :     0.671554  s :     0.671554
      pz      :     0.067241  p :     0.168570
      px      :     0.054637
      py      :     0.046692
  2 H s       :     0.653233  s :     0.653233
      pz      :     0.034676  p :     0.199973
      px      :     0.048852
      py      :     0.116446
  3 O s       :     3.457436  s :     3.457436
      pz      :     1.521526  p :     4.836251
      px      :     1.537338
      py      :     1.777387
      dz2     :     0.020327  d :     0.057238
      dxz     :     0.007272
      dyz     :     0.007689
      dx2y2   :     0.007630
      dxy     :     0.014321
      f0      :     0.000880  f :     0.004816
      f+1     :     0.000976
      f-1     :     0.000698
      f+2     :     0.000390
      f-2     :     0.000421
      f+3     :     0.000376
      f-3     :     0.001075
  4 H s       :     0.678757  s :     0.678757
      pz      :     0.091569  p :     0.173829
      px      :     0.038282
      py      :     0.043977
  5 H s       :     0.679785  s :     0.679785
      pz      :     0.032383  p :     0.177991
      px      :     0.086225
      py      :     0.059383
  6 O s       :     3.452046  s :     3.452046
      pz      :     1.525317  p :     4.778283
      px      :     1.763722
      py      :     1.489244
      dz2     :     0.020341  d :     0.058333
      dxz     :     0.006973
      dyz     :     0.009314
      dx2y2   :     0.010459
      dxy     :     0.011247
      f0      :     0.000796  f :     0.004798
      f+1     :     0.000584
      f-1     :     0.001181
      f+2     :     0.000415
      f-2     :     0.000420
      f+3     :     0.000950
      f-3     :     0.000451
  7 H s       :     0.665849  s :     0.665849
      pz      :     0.080756  p :     0.163173
      px      :     0.044342
      py      :     0.038075
  8 H s       :     0.661678  s :     0.661678
      pz      :     0.030095  p :     0.192181
      px      :     0.053822
      py      :     0.108264
  9 O s       :     3.451831  s :     3.451831
      pz      :     1.569407  p :     4.801039
      px      :     1.752480
      py      :     1.479152
      dz2     :     0.019069  d :     0.057200
      dxz     :     0.006889
      dyz     :     0.009009
      dx2y2   :     0.010750
      dxy     :     0.011483
      f0      :     0.000744  f :     0.004726
      f+1     :     0.000585
      f-1     :     0.001146
      f+2     :     0.000412
      f-2     :     0.000418
      f+3     :     0.000968
      f-3     :     0.000453
 10 H s       :     0.671359  s :     0.671359
      pz      :     0.032203  p :     0.190021
      px      :     0.053901
      py      :     0.103917
 11 H s       :     0.672011  s :     0.672011
      pz      :     0.095328  p :     0.177646
      px      :     0.043772
      py      :     0.038545
 12 O s       :     3.450935  s :     3.450935
      pz      :     1.528464  p :     4.783911
      px      :     1.486498
      py      :     1.768949
      dz2     :     0.019743  d :     0.057766
      dxz     :     0.009135
      dyz     :     0.006939
      dx2y2   :     0.010498
      dxy     :     0.011451
      f0      :     0.000791  f :     0.004800
      f+1     :     0.001171
      f-1     :     0.000588
      f+2     :     0.000415
      f-2     :     0.000420
      f+3     :     0.000453
      f-3     :     0.000962
 13 H s       :     0.659046  s :     0.659046
      pz      :     0.080965  p :     0.162865
      px      :     0.037761
      py      :     0.044138
 14 H s       :     0.663728  s :     0.663728
      pz      :     0.030322  p :     0.191607
      px      :     0.107103
      py      :     0.054182
 15 O s       :     3.453650  s :     3.453650
      pz      :     1.521193  p :     4.776849
      px      :     1.493235
      py      :     1.762420
      dz2     :     0.020684  d :     0.058676
      dxz     :     0.009473
      dyz     :     0.007009
      dx2y2   :     0.010410
      dxy     :     0.011099
      f0      :     0.000803  f :     0.004799
      f+1     :     0.001185
      f-1     :     0.000585
      f+2     :     0.000415
      f-2     :     0.000422
      f+3     :     0.000451
      f-3     :     0.000936
 16 H s       :     0.670212  s :     0.670212
      pz      :     0.080355  p :     0.163301
      px      :     0.038414
      py      :     0.044533
 17 H s       :     0.658364  s :     0.658364
      pz      :     0.029808  p :     0.193804
      px      :     0.110239
      py      :     0.053757
 18 O s       :     3.448890  s :     3.448890
      pz      :     1.536219  p :     4.758555
      px      :     1.521824
      py      :     1.700512
      dz2     :     0.020775  d :     0.059349
      dxz     :     0.007043
      dyz     :     0.007380
      dx2y2   :     0.009367
      dxy     :     0.014783
      f0      :     0.000835  f :     0.004912
      f+1     :     0.000986
      f-1     :     0.000733
      f+2     :     0.000390
      f-2     :     0.000421
      f+3     :     0.000407
      f-3     :     0.001140
 19 H s       :     0.665838  s :     0.665838
      pz      :     0.094985  p :     0.174651
      px      :     0.037044
      py      :     0.042622
 20 H s       :     0.668150  s :     0.668150
      pz      :     0.032455  p :     0.161542
      px      :     0.073023
      py      :     0.056063
 21 O s       :     3.465589  s :     3.465589
      pz      :     1.525234  p :     4.806533
      px      :     1.772288
      py      :     1.509011
      dz2     :     0.020773  d :     0.059051
      dxz     :     0.007797
      dyz     :     0.007079
      dx2y2   :     0.007845
      dxy     :     0.015558
      f0      :     0.000867  f :     0.004923
      f+1     :     0.000713
      f-1     :     0.000995
      f+2     :     0.000390
      f-2     :     0.000416
      f+3     :     0.001168
      f-3     :     0.000375
 22 H s       :     0.675389  s :     0.675389
      pz      :     0.092811  p :     0.173325
      px      :     0.043694
      py      :     0.036821
 23 H s       :     0.681827  s :     0.681827
      pz      :     0.032673  p :     0.160873
      px      :     0.056414
      py      :     0.071786


                      *****************************
                      * MAYER POPULATION ANALYSIS *
                      *****************************

  NA   - Mulliken gross atomic population
  ZA   - Total nuclear charge
  QA   - Mulliken gross atomic charge
  VA   - Mayer's total valence
  BVA  - Mayer's bonded valence
  FA   - Mayer's free valence

  ATOM       NA         ZA         QA         VA         BVA        FA
  0 O      8.7554     8.0000    -0.7554     2.0406     1.6502     0.3904
  1 H      0.6482     1.0000     0.3518     0.8981     0.8520     0.0461
  2 H      0.6149     1.0000     0.3851     0.9004     0.8559     0.0445
  3 O      8.7334     8.0000    -0.7334     2.0638     1.6771     0.3866
  4 H      0.6336     1.0000     0.3664     0.8981     0.8531     0.0449
  5 H      0.6479     1.0000     0.3521     0.9259     0.8801     0.0457
  6 O      8.7408     8.0000    -0.7408     2.0546     1.6657     0.3889
  7 H      0.6376     1.0000     0.3624     0.8920     0.8461     0.0459
  8 H      0.6279     1.0000     0.3721     0.9277     0.8828     0.0449
  9 O      8.7309     8.0000    -0.7309     2.0711     1.6825     0.3886
 10 H      0.6423     1.0000     0.3577     0.9294     0.8831     0.0463
 11 H      0.6198     1.0000     0.3802     0.8984     0.8549     0.0435
 12 O      8.7476     8.0000    -0.7476     2.0539     1.6652     0.3887
 13 H      0.6257     1.0000     0.3743     0.8822     0.8374     0.0447
 14 H      0.6306     1.0000     0.3694     0.9249     0.8796     0.0452
 15 O      8.7387     8.0000    -0.7387     2.0511     1.6618     0.3893
 16 H      0.6483     1.0000     0.3517     0.8978     0.8507     0.0471
 17 H      0.6221     1.0000     0.3779     0.9230     0.8788     0.0443
 18 O      8.6970     8.0000    -0.6970     2.1045     1.7218     0.3827
 19 H      0.6081     1.0000     0.3919     0.8816     0.8391     0.0425
 20 H      0.6496     1.0000     0.3504     0.9037     0.8568     0.0468
 21 O      8.6903     8.0000    -0.6903     2.0875     1.7051     0.3825
 22 H      0.6275     1.0000     0.3725     0.8946     0.8506     0.0440
 23 H      0.6816     1.0000     0.3184     0.9211     0.8716     0.0495

  Mayer bond orders larger than 0.100000
B(  0-O ,  1-H ) :   0.8395 B(  0-O ,  2-H ) :   0.7413 B(  3-O ,  4-H ) :   0.8276 
B(  3-O ,  5-H ) :   0.8191 B(  6-O ,  7-H ) :   0.8313 B(  6-O ,  8-H ) :   0.7484 
B(  8-H , 15-O ) :   0.1079 B(  9-O , 10-H ) :   0.7881 B(  9-O , 11-H ) :   0.7998 
B(  9-O , 17-H ) :   0.1293 B( 12-O , 13-H ) :   0.8252 B( 12-O , 14-H ) :   0.7585 
B( 15-O , 16-H ) :   0.8377 B( 15-O , 17-H ) :   0.7348 B( 18-O , 19-H ) :   0.7977 
B( 18-O , 20-H ) :   0.8374 B( 21-O , 22-H ) :   0.8208 B( 21-O , 23-H ) :   0.8625 



----------------------------------
MP2 DERIVATIVE INTEGRAL GENERATION
----------------------------------


Input Wavefunction Amplitudes       ... 12h2o.su.etal.mol2,3,4,5,6,7,8,11-orca.engrad-mp2.def2tzvp.frozencore.mp2tsaa.tmp
Input Correlated Electron Density   ... 12h2o.su.etal.mol2,3,4,5,6,7,8,11-orca.engrad-mp2.def2tzvp.frozencore.pmp2re
Input Energy Weighted Density       ... 12h2o.su.etal.mol2,3,4,5,6,7,8,11-orca.engrad-mp2.def2tzvp.frozencore.wmp2.tmp
Input SCF Electron Density          ... 12h2o.su.etal.mol2,3,4,5,6,7,8,11-orca.engrad-mp2.def2tzvp.frozencore.scfp

One-Electron Terms    ...
                        ... One-Electron Terms done
Prescreening matrices              ... done

Batch handling in the gradient evaluation:
Memory available                      ... 8000.0 MB
Memory per occupied orbital in Q2     ...   28.9 MB
Memory per occupied orbital in Q3     ...    0.1 MB
Total memory requirement per |i>      ...   29.0 MB
Max. Number of orbitals possible      ...    275
Number of orbitals treated per batch  ...     32
Number of batches to be done          ...      1
Batch   0: i=    8 ...    39

---------------------------------------
MP2 TOTAL ENERGY:     -610.599359539 Eh
---------------------------------------

The final MP2 gradient
  0:  -0.00265130  -0.00385087  -0.00081491
  1:  -0.00065780   0.00028407   0.00126923
  2:   0.00193041   0.00795478   0.00199856
  3:  -0.00307420  -0.00090864  -0.00401257
  4:  -0.00078241  -0.00021948   0.00635640
  5:   0.00427200  -0.00075934  -0.00084484
  6:  -0.00338214  -0.00165413   0.01265912
  7:   0.00364190  -0.00013331  -0.00815226
  8:   0.00205913   0.00333392   0.00272011
  9:   0.00425284  -0.00519085   0.00032279
 10:   0.00011913   0.00813055  -0.00006844
 11:   0.00013218  -0.00114663   0.00083685
 12:  -0.00055397  -0.00293772  -0.00792320
 13:  -0.00037061  -0.00091834   0.00736253
 14:   0.00068790  -0.00067822  -0.00324747
 15:   0.00374991  -0.00606212  -0.01496877
 16:   0.00071674   0.00290634   0.00913248
 17:  -0.00804210   0.00497086  -0.00034803
 18:   0.00867288  -0.00636740  -0.00165825
 19:  -0.00200772  -0.00074536  -0.00134231
 20:  -0.00768627   0.00476239   0.00226260
 21:   0.00560544   0.00970733   0.00297907
 22:  -0.00069640   0.00030607  -0.00406441
 23:  -0.00593555  -0.01078390  -0.00045430

-----------------------------------
NORM OF THE MP2 GRADIENT:  0.041026
-----------------------------------

-------------------------   --------------------
FINAL SINGLE POINT ENERGY      -610.599359538762
-------------------------   --------------------


                            ***************************************
                            *     ORCA property calculations      *
                            ***************************************

                                    ---------------------
                                    Active property flags
                                    ---------------------
   (+) Dipole Moment


------------------------------------------------------------------------------
                       ORCA ELECTRIC PROPERTIES CALCULATION
------------------------------------------------------------------------------

Dipole Moment Calculation                       ... on
Quadrupole Moment Calculation                   ... off
Polarizability Calculation                      ... off
GBWName                                         ... 12h2o.su.etal.mol2,3,4,5,6,7,8,11-orca.engrad-mp2.def2tzvp.frozencore.gbw
Electron density file                           ... 12h2o.su.etal.mol2,3,4,5,6,7,8,11-orca.engrad-mp2.def2tzvp.frozencore.scfp
The origin for moment calculation is the CENTER OF MASS  = ( 0.044765, -0.012320 -1.337225)

-------------
DIPOLE MOMENT
-------------
                                X             Y             Z
Electronic contribution:      0.28320       0.19804      -0.04978
Nuclear contribution   :      0.11349      -0.14599       0.05351
                        -----------------------------------------
Total Dipole Moment    :      0.39669       0.05205       0.00373
                        -----------------------------------------
Magnitude (a.u.)       :      0.40011
Magnitude (Debye)      :      1.01699



--------------------
Rotational spectrum 
--------------------
 
Rotational constants in cm-1:     0.038841     0.021267     0.018831 
Rotational constants in MHz :  1164.419428   637.557243   564.536873 

 Dipole components along the rotational axes: 
x,y,z [a.u.] :    -0.062359    -0.383357     0.096089 
x,y,z [Debye]:    -0.158504    -0.974416     0.244240 

 

                         *** MP2 UNRELAXED DENSITY ***

------------------------------------------------------------------------------
                       ORCA ELECTRIC PROPERTIES CALCULATION
------------------------------------------------------------------------------

Dipole Moment Calculation                       ... on
Quadrupole Moment Calculation                   ... off
Polarizability Calculation                      ... off
GBWName                                         ... 12h2o.su.etal.mol2,3,4,5,6,7,8,11-orca.engrad-mp2.def2tzvp.frozencore.gbw
Electron density file                           ... 12h2o.su.etal.mol2,3,4,5,6,7,8,11-orca.engrad-mp2.def2tzvp.frozencore.pmp2ur
The origin for moment calculation is the CENTER OF MASS  = ( 0.044765, -0.012320 -1.337225)

-------------
DIPOLE MOMENT
-------------
                                X             Y             Z
Electronic contribution:      0.28535       0.20042      -0.05134
Nuclear contribution   :      0.11349      -0.14599       0.05351
                        -----------------------------------------
Total Dipole Moment    :      0.39884       0.05443       0.00218
                        -----------------------------------------
Magnitude (a.u.)       :      0.40254
Magnitude (Debye)      :      1.02319



--------------------
Rotational spectrum 
--------------------
 
Rotational constants in cm-1:     0.038841     0.021267     0.018831 
Rotational constants in MHz :  1164.419428   637.557243   564.536873 

 Dipole components along the rotational axes: 
x,y,z [a.u.] :    -0.063145    -0.386249     0.094162 
x,y,z [Debye]:    -0.160501    -0.981766     0.239340 

 

                           *** MP2 RELAXED DENSITY ***

------------------------------------------------------------------------------
                       ORCA ELECTRIC PROPERTIES CALCULATION
------------------------------------------------------------------------------

Dipole Moment Calculation                       ... on
Quadrupole Moment Calculation                   ... off
Polarizability Calculation                      ... off
GBWName                                         ... 12h2o.su.etal.mol2,3,4,5,6,7,8,11-orca.engrad-mp2.def2tzvp.frozencore.gbw
Electron density file                           ... 12h2o.su.etal.mol2,3,4,5,6,7,8,11-orca.engrad-mp2.def2tzvp.frozencore.pmp2re
The origin for moment calculation is the CENTER OF MASS  = ( 0.044765, -0.012320 -1.337225)

-------------
DIPOLE MOMENT
-------------
                                X             Y             Z
Electronic contribution:      0.29354       0.20306      -0.05552
Nuclear contribution   :      0.11349      -0.14599       0.05351
                        -----------------------------------------
Total Dipole Moment    :      0.40703       0.05707      -0.00201
                        -----------------------------------------
Magnitude (a.u.)       :      0.41102
Magnitude (Debye)      :      1.04473



--------------------
Rotational spectrum 
--------------------
 
Rotational constants in cm-1:     0.038841     0.021267     0.018831 
Rotational constants in MHz :  1164.419428   637.557243   564.536873 

 Dipole components along the rotational axes: 
x,y,z [a.u.] :    -0.067453    -0.394687     0.092792 
x,y,z [Debye]:    -0.171451    -1.003213     0.235860 

 

Timings for individual modules:

Sum of individual times         ...      212.264 sec (=   3.538 min)
GTO integral calculation        ...        0.984 sec (=   0.016 min)   0.5 %
SCF iterations                  ...       31.760 sec (=   0.529 min)  15.0 %
MP2 module                      ...      179.519 sec (=   2.992 min)  84.6 %
                             ****ORCA TERMINATED NORMALLY****
TOTAL RUN TIME: 0 days 0 hours 3 minutes 33 seconds 333 msec
