
                                 *****************
                                 * O   R   C   A *
                                 *****************

           --- An Ab Initio, DFT and Semiempirical electronic structure package ---

                  #######################################################
                  #                        -***-                        #
                  #          Department of theory and spectroscopy      #
                  #               Directorship: Frank Neese             #
                  #        Max Planck Institute fuer Kohlenforschung    #
                  #                Kaiser Wilhelm Platz 1               #
                  #                 D-45470 Muelheim/Ruhr               #
                  #                      Germany                        #
                  #                                                     #
                  #                  All rights reserved                #
                  #                        -***-                        #
                  #######################################################


                         Program Version 4.2.0 -  RELEASE  -


 With contributions from (in alphabetic order):
   Daniel Aravena         : Magnetic Suceptibility
   Michael Atanasov       : Ab Initio Ligand Field Theory (pilot matlab implementation)
   Alexander A. Auer      : GIAO ZORA, VPT2
   Ute Becker             : Parallelization
   Giovanni Bistoni       : ED, misc. LED, open-shell LED, HFLED
   Martin Brehm           : Molecular dynamics
   Dmytro Bykov           : SCF Hessian
   Vijay G. Chilkuri      : MRCI spin determinant printing, contributions to CSF-ICE
   Dipayan Datta          : RHF DLPNO-CCSD density
   Achintya Kumar Dutta   : EOM-CC, STEOM-CC
   Dmitry Ganyushin       : Spin-Orbit,Spin-Spin,Magnetic field MRCI
   Miquel Garcia          : C-PCM Hessian, Gaussian charge scheme
   Yang Guo               : DLPNO-NEVPT2, CIM, IAO-localization
   Andreas Hansen         : Spin unrestricted coupled pair/coupled cluster methods
   Benjamin Helmich-Paris : CASSCF linear response (MC-RPA)
   Lee Huntington         : MR-EOM, pCC
   Robert Izsak           : Overlap fitted RIJCOSX, COSX-SCS-MP3, EOM
   Christian Kollmar      : KDIIS, OOCD, Brueckner-CCSD(T), CCSD density
   Simone Kossmann        : Meta GGA functionals, TD-DFT gradient, OOMP2, MP2 Hessian
   Martin Krupicka        : AUTO-CI
   Lucas Lang             : DCDCAS
   Dagmar Lenk            : GEPOL surface, SMD
   Dimitrios Liakos       : Extrapolation schemes; Compound Job, initial MDCI parallelization
   Dimitrios Manganas     : Further ROCIS development; embedding schemes
   Dimitrios Pantazis     : SARC Basis sets
   Taras Petrenko         : DFT Hessian,TD-DFT gradient, ASA, ECA, R-Raman, ABS, FL, XAS/XES, NRVS
   Peter Pinski           : DLPNO-MP2, DLPNO-MP2 Gradient
   Christoph Reimann      : Effective Core Potentials
   Marius Retegan         : Local ZFS, SOC
   Christoph Riplinger    : Optimizer, TS searches, QM/MM, DLPNO-CCSD(T), (RO)-DLPNO pert. Triples
   Tobias Risthaus        : Range-separated hybrids, TD-DFT gradient, RPA, STAB
   Michael Roemelt        : Original ROCIS implementation
   Masaaki Saitow         : Open-shell DLPNO-CCSD energy and density
   Barbara Sandhoefer     : DKH picture change effects
   Avijit Sen             : IP-ROCIS
   Kantharuban Sivalingam : CASSCF convergence, NEVPT2, FIC-MRCI
   Bernardo de Souza      : ESD, SOC TD-DFT
   Georgi Stoychev        : AutoAux, RI-MP2 NMR
   Willem Van den Heuvel  : Paramagnetic NMR
   Boris Wezisla          : Elementary symmetry handling
   Frank Wennmohs         : Technical directorship


 We gratefully acknowledge several colleagues who have allowed us to
 interface, adapt or use parts of their codes:
   Stefan Grimme, W. Hujo, H. Kruse,             : VdW corrections, initial TS optimization,
                  C. Bannwarth                     DFT functionals, gCP, sTDA/sTD-DF
   Ed Valeev, F. Pavosevic, A. Kumar             : LibInt (2-el integral package), F12 methods
   Garnet Chan, S. Sharma, J. Yang, R. Olivares  : DMRG
   Ulf Ekstrom                                   : XCFun DFT Library
   Mihaly Kallay                                 : mrcc  (arbitrary order and MRCC methods)
   Andreas Klamt, Michael Diedenhofen            : otool_cosmo (COSMO solvation model)
   Jiri Pittner, Ondrej Demel                    : Mk-CCSD
   Frank Weinhold                                : gennbo (NPA and NBO analysis)
   Christopher J. Cramer and Donald G. Truhlar   : smd solvation model
   Lars Goerigk                                  : TD-DFT with DH, B97 family of functionals
   V. Asgeirsson, H. Jonsson                     : NEB implementation
   FAccTs GmbH                                   : IRC, NEB, NEB-TS, Multilevel, MM, QM/MM, CI optimization
   S Lehtola, MJT Oliveira, MAL Marques          : LibXC Library


 Your calculation uses the libint2 library for the computation of 2-el integrals
 For citations please refer to: http://libint.valeyev.net

 Your ORCA version has been built with support for libXC version: 4.2.3
 For citations please refer to: https://tddft.org/programs/libxc/

 This ORCA versions uses:
   CBLAS   interface :  Fast vector & matrix operations
   LAPACKE interface :  Fast linear algebra routines
   SCALAPACK package :  Parallel linear algebra routines


----- Orbital basis set information -----
Your calculation utilizes the basis: def2-TZVP
   F. Weigend and R. Ahlrichs, Phys. Chem. Chem. Phys. 7, 3297 (2005).

================================================================================
                                        WARNINGS
                       Please study these warnings very carefully!
================================================================================


WARNING: The frozen-core approximation for MP2-gradient calculations is turned on by default.

INFO   : the flag for use of LIBINT has been found!

================================================================================
                                       INPUT FILE
================================================================================
NAME = 12mecn.remya.etal.2.mol0,6,7-orca.engrad-mp2.def2tzvp.frozencore.inp
|  1> # 12mecn.remya.etal.2.mol0,6,7
|  2> ! MP2 def2-TZVP EnGrad TightSCF
|  3> 
|  4> %pal
|  5>     nprocs 6
|  6> end
|  7> 
|  8> %maxcore 8000
|  9> 
| 10> %scf
| 11>     ConvForced true
| 12> end
| 13> 
| 14> *xyz 0 1
| 15> C  -0.869520000  -3.929380000   1.700199000
| 16> H  -0.057420000  -3.268850000   2.015352000
| 17> H  -0.697530000  -4.930670000   2.101524000
| 18> H  -1.821490000  -3.546590000   2.077146000
| 19> C  -0.916080000  -3.969960000   0.256749000
| 20> N  -0.955390000  -3.995980000  -0.909290000
| 21> C   5.300864000  -2.920090000   1.401103000
| 22> H   5.986071000  -2.139770000   1.737487000
| 23> H   5.636642000  -3.888750000   1.778233000
| 24> H   4.307359000  -2.697240000   1.799307000
| 25> C   5.234791000  -2.933140000  -0.043290000
| 26> N   5.170868000  -2.941760000  -1.207750000
| 27> C   1.502241000   0.651296000   1.710523000
| 28> H   1.309219000   1.637164000   2.143202000
| 29> H   2.493408000   0.297996000   2.009069000
| 30> H   0.746597000  -0.059850000   2.055508000
| 31> C   1.447974000   0.738517000   0.269805000
| 32> N   1.405612000   0.808047000  -0.894380000
| 33> *
| 34> 
| 35>                          ****END OF INPUT****
================================================================================

                     *******************************
                     * Energy+Gradient Calculation *
                     *******************************

---------------------------------
CARTESIAN COORDINATES (ANGSTROEM)
---------------------------------
  C     -0.869520   -3.929380    1.700199
  H     -0.057420   -3.268850    2.015352
  H     -0.697530   -4.930670    2.101524
  H     -1.821490   -3.546590    2.077146
  C     -0.916080   -3.969960    0.256749
  N     -0.955390   -3.995980   -0.909290
  C      5.300864   -2.920090    1.401103
  H      5.986071   -2.139770    1.737487
  H      5.636642   -3.888750    1.778233
  H      4.307359   -2.697240    1.799307
  C      5.234791   -2.933140   -0.043290
  N      5.170868   -2.941760   -1.207750
  C      1.502241    0.651296    1.710523
  H      1.309219    1.637164    2.143202
  H      2.493408    0.297996    2.009069
  H      0.746597   -0.059850    2.055508
  C      1.447974    0.738517    0.269805
  N      1.405612    0.808047   -0.894380

----------------------------
CARTESIAN COORDINATES (A.U.)
----------------------------
  NO LB      ZA    FRAG     MASS         X           Y           Z
   0 C     6.0000    0    12.011   -1.643155   -7.425452    3.212910
   1 H     1.0000    0     1.008   -0.108508   -6.177231    3.808463
   2 H     1.0000    0     1.008   -1.318141   -9.317616    3.971305
   3 H     1.0000    0     1.008   -3.442117   -6.702084    3.925237
   4 C     6.0000    0    12.011   -1.731140   -7.502137    0.485185
   5 N     7.0000    0    14.007   -1.805425   -7.551308   -1.718309
   6 C     6.0000    0    12.011   10.017181   -5.518170    2.647701
   7 H     1.0000    0     1.008   11.312035   -4.043579    3.283375
   8 H     1.0000    0     1.008   10.651710   -7.348673    3.360373
   9 H     1.0000    0     1.008    8.139729   -5.097045    3.400197
  10 C     6.0000    0    12.011    9.892321   -5.542831   -0.081806
  11 N     7.0000    0    14.007    9.771524   -5.559121   -2.282317
  12 C     6.0000    0    12.011    2.838824    1.230771    3.232420
  13 H     1.0000    0     1.008    2.474065    3.093792    4.050065
  14 H     1.0000    0     1.008    4.711858    0.563131    3.796590
  15 H     1.0000    0     1.008    1.410864   -0.113100    3.884347
  16 C     6.0000    0    12.011    2.736274    1.395595    0.509858
  17 N     7.0000    0    14.007    2.656222    1.526988   -1.690133

--------------------------------
INTERNAL COORDINATES (ANGSTROEM)
--------------------------------
 C      0   0   0     0.000000000000     0.00000000     0.00000000
 H      1   0   0     1.093218964485     0.00000000     0.00000000
 H      1   2   0     1.092347920685   109.32735472     0.00000000
 H      1   2   3     1.093098397130   109.63009885   119.86690662
 C      1   2   3     1.444770733542   109.20363402   239.27834980
 N      5   1   2     1.166991544966   179.65780255   294.97577729
 C      2   1   3     5.404640857287   137.96245030    61.55198212
 H      7   2   1     1.091586978076   129.30424506   175.56626537
 H      7   2   1     1.092371776358   102.02209846   303.61861291
 H      7   2   1     1.093288952263    21.69299870   190.69821523
 C      7   2   1     1.445962337780    93.87864930    55.58352637
 N     11   7   2     1.166245062553   179.46874677    13.89116023
 C      2   1   3     4.230012744127   144.39703299   177.46042439
 H     13   2   1     1.093802689222   137.87841542    78.84452434
 H     13   2   1     1.093783628514    90.86554596   200.73380126
 H     13   2   1     1.093499491667    28.33020782    68.85920080
 C     13   2   1     1.444375562537    96.54542773   309.98539950
 N     17  13   2     1.167028566132   179.91347457   280.47189118

---------------------------
INTERNAL COORDINATES (A.U.)
---------------------------
 C      0   0   0     0.000000000000     0.00000000     0.00000000
 H      1   0   0     2.065884447285     0.00000000     0.00000000
 H      1   2   0     2.064238413053   109.32735472     0.00000000
 H      1   2   3     2.065656608005   109.63009885   119.86690662
 C      1   2   3     2.730221012699   109.20363402   239.27834980
 N      5   1   2     2.205294420586   179.65780255   294.97577729
 C      2   1   3    10.213291072474   137.96245030    61.55198212
 H      7   2   1     2.062800439918   129.30424506   175.56626537
 H      7   2   1     2.064283493742   102.02209846   303.61861291
 H      7   2   1     2.066016705019    21.69299870   190.69821523
 C      7   2   1     2.732472818369    93.87864930    55.58352637
 N     11   7   2     2.203883773263   179.46874677    13.89116023
 C      2   1   3     7.993565629397   144.39703299   177.46042439
 H     13   2   1     2.066987527176   137.87841542    78.84452434
 H     13   2   1     2.066951507658    90.86554596   200.73380126
 H     13   2   1     2.066414566834    28.33020782    68.85920080
 C     13   2   1     2.729474247723    96.54542773   309.98539950
 N     17  13   2     2.205364380453   179.91347457   280.47189118

---------------------
BASIS SET INFORMATION
---------------------
There are 3 groups of distinct atoms

 Group   1 Type C   : 11s6p2d1f contracted to 5s3p2d1f pattern {62111/411/11/1}
 Group   2 Type H   : 5s1p contracted to 3s1p pattern {311/1}
 Group   3 Type N   : 11s6p2d1f contracted to 5s3p2d1f pattern {62111/411/11/1}

Atom   0C    basis set group =>   1
Atom   1H    basis set group =>   2
Atom   2H    basis set group =>   2
Atom   3H    basis set group =>   2
Atom   4C    basis set group =>   1
Atom   5N    basis set group =>   3
Atom   6C    basis set group =>   1
Atom   7H    basis set group =>   2
Atom   8H    basis set group =>   2
Atom   9H    basis set group =>   2
Atom  10C    basis set group =>   1
Atom  11N    basis set group =>   3
Atom  12C    basis set group =>   1
Atom  13H    basis set group =>   2
Atom  14H    basis set group =>   2
Atom  15H    basis set group =>   2
Atom  16C    basis set group =>   1
Atom  17N    basis set group =>   3


           ************************************************************
           *        Program running with 6 parallel MPI-processes     *
           *              working on a common directory               *
           ************************************************************
------------------------------------------------------------------------------
                           ORCA GTO INTEGRAL CALCULATION
------------------------------------------------------------------------------

                         BASIS SET STATISTICS AND STARTUP INFO

 # of primitive gaussian shells          ...  234
 # of primitive gaussian functions       ...  486
 # of contracted shells                  ...  135
 # of contracted basis functions         ...  333
 Highest angular momentum                ...    3
 Maximum contraction depth               ...    6
 Integral package used                   ... LIBINT
 Integral threshhold            Thresh   ...  2.500e-11
 Primitive cut-off              TCut     ...  2.500e-12


------------------------------ INTEGRAL EVALUATION ----------------------------


 * One electron integrals 
 Pre-screening matrix                    ... done
 Shell pair data                         ... done (   0.002 sec)



           ************************************************************
           *        Program running with 6 parallel MPI-processes     *
           *              working on a common directory               *
           ************************************************************
-------------------------------------------------------------------------------
                                 ORCA SCF
-------------------------------------------------------------------------------

------------
SCF SETTINGS
------------
Hamiltonian:
 Ab initio Hamiltonian  Method          .... Hartree-Fock(GTOs)


General Settings:
 Integral files         IntName         .... 12mecn.remya.etal.2.mol0,6,7-orca.engrad-mp2.def2tzvp.frozencore
 Hartree-Fock type      HFTyp           .... RHF
 Total Charge           Charge          ....    0
 Multiplicity           Mult            ....    1
 Number of Electrons    NEL             ....   66
 Basis Dimension        Dim             ....  333
 Nuclear Repulsion      ENuc            ....    308.5869925636 Eh

Convergence Acceleration:
 DIIS                   CNVDIIS         .... on
   Start iteration      DIISMaxIt       ....    12
   Startup error        DIISStart       ....  0.200000
   # of expansion vecs  DIISMaxEq       ....     5
   Bias factor          DIISBfac        ....   1.050
   Max. coefficient     DIISMaxC        ....  10.000
 Newton-Raphson         CNVNR           .... off
 SOSCF                  CNVSOSCF        .... on
   Start iteration      SOSCFMaxIt      ....   150
   Startup grad/error   SOSCFStart      ....  0.003300
 Level Shifting         CNVShift        .... on
   Level shift para.    LevelShift      ....    0.2500
   Turn off err/grad.   ShiftErr        ....    0.0010
 Zerner damping         CNVZerner       .... off
 Static damping         CNVDamp         .... on
   Fraction old density DampFac         ....    0.7000
   Max. Damping (<1)    DampMax         ....    0.9800
   Min. Damping (>=0)   DampMin         ....    0.0000
   Turn off err/grad.   DampErr         ....    0.1000
 Fernandez-Rico         CNVRico         .... off

SCF Procedure:
 Maximum # iterations   MaxIter         ....   125
 SCF integral mode      SCFMode         .... Direct
   Integral package                     .... LIBINT
 Reset frequency        DirectResetFreq ....    20
 Integral Threshold     Thresh          ....  2.500e-11 Eh
 Primitive CutOff       TCut            ....  2.500e-12 Eh

Convergence Tolerance:
 Convergence Check Mode ConvCheckMode   .... Total+1el-Energy
 Convergence forced     ConvForced      .... 1
 Energy Change          TolE            ....  1.000e-08 Eh
 1-El. energy change                    ....  1.000e-05 Eh
 Orbital Gradient       TolG            ....  1.000e-05
 Orbital Rotation angle TolX            ....  1.000e-05
 DIIS Error             TolErr          ....  5.000e-07


Diagonalization of the overlap matrix:
Smallest eigenvalue                        ... 1.529e-04
Time for diagonalization                   ...    0.235 sec
Threshold for overlap eigenvalues          ... 1.000e-08
Number of eigenvalues below threshold      ... 0
Time for construction of square roots      ...    0.009 sec
Total time needed                          ...    0.244 sec

-------------------
DFT GRID GENERATION
-------------------

General Integration Accuracy     IntAcc      ...  4.340
Radial Grid Type                 RadialGrid  ... Gauss-Chebyshev
Angular Grid (max. acc.)         AngularGrid ... Lebedev-110
Angular grid pruning method      GridPruning ... 3 (G Style)
Weight generation scheme         WeightScheme... Becke
Basis function cutoff            BFCut       ...    1.0000e-11
Integration weight cutoff        WCut        ...    1.0000e-14
Grids for H and He will be reduced by one unit

# of grid points (after initial pruning)     ...  22188 (   0.0 sec)
# of grid points (after weights+screening)   ...  20992 (   0.0 sec)
nearest neighbour list constructed           ...    0.0 sec
Grid point re-assignment to atoms done       ...    0.0 sec
Grid point division into batches done        ...    0.0 sec
Reduced shell lists constructed in    0.0 sec

Total number of grid points                  ...    20992
Total number of batches                      ...      339
Average number of points per batch           ...       61
Average number of grid points per atom       ...     1166
Average number of shells per batch           ...    60.71 (44.97%)
Average number of basis functions per batch  ...   138.02 (41.45%)
Average number of large shells per batch     ...    42.64 (70.24%)
Average number of large basis fcns per batch ...    98.29 (71.22%)
Maximum spatial batch extension              ...  14.29, 20.89, 17.20 au
Average spatial batch extension              ...   0.66,  0.73,  0.77 au

Time for grid setup =    0.092 sec

------------------------------
INITIAL GUESS: MODEL POTENTIAL
------------------------------
Loading Hartree-Fock densities                     ... done
Calculating cut-offs                               ... done
Setting up the integral package                    ... done
Initializing the effective Hamiltonian             ... done
Starting the Coulomb interaction                   ... done (   0.0 sec)
Reading the grid                                   ... done
Mapping shells                                     ... done
Starting the XC term evaluation                    ... done (   0.0 sec)
Transforming the Hamiltonian                       ... done (   0.0 sec)
Diagonalizing the Hamiltonian                      ... done (   0.0 sec)
Back transforming the eigenvectors                 ... done (   0.0 sec)
Now organizing SCF variables                       ... done
                      ------------------
                      INITIAL GUESS DONE (   0.3 sec)
                      ------------------
--------------
SCF ITERATIONS
--------------
ITER       Energy         Delta-E        Max-DP      RMS-DP      [F,P]     Damp
               ***  Starting incremental Fock matrix formation  ***
  0   -395.4037434479   0.000000000000 0.03845137  0.00087480  0.2881870 0.7000
  1   -395.5891103343  -0.185366886429 0.02749151  0.00069230  0.1880686 0.7000
                               ***Turning on DIIS***
  2   -395.6965154765  -0.107405142164 0.01628500  0.00044598  0.1423538 0.7000
  3   -396.6329688194  -0.936453342900 0.00992847  0.00028387  0.1057752 0.7000
  4   -396.5951953718   0.037773447564 0.02592337  0.00069895  0.0745153 0.0000
  5   -395.9466549535   0.648540418344 0.00658497  0.00012984  0.0064019 0.0000
                      *** Initiating the SOSCF procedure ***
                           *** Shutting down DIIS ***
                      *** Re-Reading the Fockian *** 
                      *** Removing any level shift *** 
ITER      Energy       Delta-E        Grad      Rot      Max-DP    RMS-DP
  6   -395.92878896   0.0178659890  0.001031  0.001031  0.004453  0.000080
               *** Restarting incremental Fock matrix formation ***
  7   -395.91724186   0.0115470997  0.000414  0.000647  0.003127  0.000057
  8   -395.91726047  -0.0000186016  0.000278  0.000403  0.002554  0.000047
  9   -395.91726415  -0.0000036876  0.000110  0.000129  0.000823  0.000014
 10   -395.91726498  -0.0000008299  0.000010  0.000009  0.000073  0.000001
 11   -395.91726499  -0.0000000083  0.000004  0.000005  0.000020  0.000000
                  ***Gradient check signals convergence***
              ***Rediagonalizing the Fockian in SOSCF/NRSCF***

               *****************************************************
               *                     SUCCESS                       *
               *           SCF CONVERGED AFTER  12 CYCLES          *
               *****************************************************


----------------
TOTAL SCF ENERGY
----------------

Total Energy       :         -395.91726499 Eh          -10773.45649 eV

Components:
Nuclear Repulsion  :          308.58699256 Eh            8397.07897 eV
Electronic Energy  :         -704.50425756 Eh          -19170.53546 eV
One Electron Energy:        -1145.83914654 Eh          -31179.86833 eV
Two Electron Energy:          441.33488898 Eh           12009.33287 eV

Virial components:
Potential Energy   :         -791.04548766 Eh          -21525.44205 eV
Kinetic Energy     :          395.12822267 Eh           10751.98556 eV
Virial Ratio       :            2.00199693


---------------
SCF CONVERGENCE
---------------

  Last Energy change         ...   -1.9031e-09  Tolerance :   1.0000e-08
  Last MAX-Density change    ...    8.3417e-06  Tolerance :   1.0000e-07
  Last RMS-Density change    ...    1.3026e-07  Tolerance :   5.0000e-09
  Last Orbital Gradient      ...    9.6174e-07  Tolerance :   1.0000e-05
  Last Orbital Rotation      ...    1.8042e-06  Tolerance :   1.0000e-05

             **** THE GBW FILE WAS UPDATED (12mecn.remya.etal.2.mol0,6,7-orca.engrad-mp2.def2tzvp.frozencore.gbw) ****
             **** DENSITY FILE WAS UPDATED (12mecn.remya.etal.2.mol0,6,7-orca.engrad-mp2.def2tzvp.frozencore.scfp) ****
             **** ENERGY FILE WAS UPDATED (12mecn.remya.etal.2.mol0,6,7-orca.engrad-mp2.def2tzvp.frozencore.en.tmp) ****
             **** THE GBW FILE WAS UPDATED (12mecn.remya.etal.2.mol0,6,7-orca.engrad-mp2.def2tzvp.frozencore.gbw) ****
             **** DENSITY FILE WAS UPDATED (12mecn.remya.etal.2.mol0,6,7-orca.engrad-mp2.def2tzvp.frozencore.scfp) ****
----------------
ORBITAL ENERGIES
----------------

  NO   OCC          E(Eh)            E(eV) 
   0   2.0000     -15.574682      -423.8087 
   1   2.0000     -15.574417      -423.8014 
   2   2.0000     -15.573941      -423.7885 
   3   2.0000     -11.292843      -307.2939 
   4   2.0000     -11.291050      -307.2451 
   5   2.0000     -11.290373      -307.2267 
   6   2.0000     -11.279912      -306.9420 
   7   2.0000     -11.279828      -306.9397 
   8   2.0000     -11.279482      -306.9303 
   9   2.0000      -1.214889       -33.0588 
  10   2.0000      -1.214734       -33.0546 
  11   2.0000      -1.214669       -33.0528 
  12   2.0000      -1.050293       -28.5799 
  13   2.0000      -1.048978       -28.5441 
  14   2.0000      -1.048060       -28.5192 
  15   2.0000      -0.705074       -19.1860 
  16   2.0000      -0.704619       -19.1737 
  17   2.0000      -0.704276       -19.1643 
  18   2.0000      -0.640793       -17.4369 
  19   2.0000      -0.640063       -17.4170 
  20   2.0000      -0.637934       -17.3591 
  21   2.0000      -0.637502       -17.3473 
  22   2.0000      -0.636913       -17.3313 
  23   2.0000      -0.635256       -17.2862 
  24   2.0000      -0.555503       -15.1160 
  25   2.0000      -0.555365       -15.1123 
  26   2.0000      -0.555204       -15.1079 
  27   2.0000      -0.458832       -12.4855 
  28   2.0000      -0.458642       -12.4803 
  29   2.0000      -0.458020       -12.4633 
  30   2.0000      -0.457857       -12.4589 
  31   2.0000      -0.457376       -12.4458 
  32   2.0000      -0.457328       -12.4445 
  33   0.0000       0.073910         2.0112 
  34   0.0000       0.113656         3.0927 
  35   0.0000       0.133216         3.6250 
  36   0.0000       0.153006         4.1635 
  37   0.0000       0.159288         4.3345 
  38   0.0000       0.163710         4.4548 
  39   0.0000       0.167374         4.5545 
  40   0.0000       0.169020         4.5993 
  41   0.0000       0.175366         4.7720 
  42   0.0000       0.183131         4.9832 
  43   0.0000       0.200356         5.4520 
  44   0.0000       0.201873         5.4932 
  45   0.0000       0.209649         5.7048 
  46   0.0000       0.214387         5.8338 
  47   0.0000       0.218306         5.9404 
  48   0.0000       0.224250         6.1022 
  49   0.0000       0.230291         6.2665 
  50   0.0000       0.246111         6.6970 
  51   0.0000       0.257223         6.9994 
  52   0.0000       0.263265         7.1638 
  53   0.0000       0.279899         7.6164 
  54   0.0000       0.307730         8.3738 
  55   0.0000       0.314138         8.5481 
  56   0.0000       0.319455         8.6928 
  57   0.0000       0.323458         8.8017 
  58   0.0000       0.347430         9.4541 
  59   0.0000       0.354606         9.6493 
  60   0.0000       0.366542         9.9741 
  61   0.0000       0.370816        10.0904 
  62   0.0000       0.374073        10.1790 
  63   0.0000       0.392418        10.6782 
  64   0.0000       0.397897        10.8273 
  65   0.0000       0.416073        11.3219 
  66   0.0000       0.420217        11.4347 
  67   0.0000       0.427150        11.6233 
  68   0.0000       0.434325        11.8186 
  69   0.0000       0.493900        13.4397 
  70   0.0000       0.505346        13.7512 
  71   0.0000       0.508261        13.8305 
  72   0.0000       0.532879        14.5004 
  73   0.0000       0.536602        14.6017 
  74   0.0000       0.546536        14.8720 
  75   0.0000       0.570534        15.5250 
  76   0.0000       0.586427        15.9575 
  77   0.0000       0.589672        16.0458 
  78   0.0000       0.595592        16.2069 
  79   0.0000       0.600982        16.3535 
  80   0.0000       0.604765        16.4565 
  81   0.0000       0.607689        16.5361 
  82   0.0000       0.614661        16.7258 
  83   0.0000       0.622730        16.9453 
  84   0.0000       0.658578        17.9208 
  85   0.0000       0.660274        17.9670 
  86   0.0000       0.661154        17.9909 
  87   0.0000       0.671398        18.2697 
  88   0.0000       0.673350        18.3228 
  89   0.0000       0.682065        18.5599 
  90   0.0000       0.702545        19.1172 
  91   0.0000       0.722513        19.6606 
  92   0.0000       0.741981        20.1903 
  93   0.0000       0.791136        21.5279 
  94   0.0000       0.808902        22.0113 
  95   0.0000       0.809805        22.0359 
  96   0.0000       0.811682        22.0870 
  97   0.0000       0.813039        22.1239 
  98   0.0000       0.816613        22.2212 
  99   0.0000       0.819814        22.3083 
 100   0.0000       0.832484        22.6530 
 101   0.0000       0.854667        23.2567 
 102   0.0000       0.911785        24.8109 
 103   0.0000       0.912935        24.8422 
 104   0.0000       0.914833        24.8939 
 105   0.0000       0.916722        24.9453 
 106   0.0000       0.924859        25.1667 
 107   0.0000       0.927720        25.2446 
 108   0.0000       1.015513        27.6335 
 109   0.0000       1.033672        28.1276 
 110   0.0000       1.044465        28.4213 
 111   0.0000       1.112253        30.2660 
 112   0.0000       1.115681        30.3592 
 113   0.0000       1.125592        30.6289 
 114   0.0000       1.133334        30.8396 
 115   0.0000       1.139953        31.0197 
 116   0.0000       1.155285        31.4369 
 117   0.0000       1.317491        35.8508 
 118   0.0000       1.320412        35.9302 
 119   0.0000       1.321680        35.9647 
 120   0.0000       1.414855        38.5002 
 121   0.0000       1.417575        38.5742 
 122   0.0000       1.419408        38.6241 
 123   0.0000       1.422392        38.7053 
 124   0.0000       1.426278        38.8110 
 125   0.0000       1.431247        38.9462 
 126   0.0000       1.448311        39.4106 
 127   0.0000       1.450544        39.4713 
 128   0.0000       1.451019        39.4842 
 129   0.0000       1.469403        39.9845 
 130   0.0000       1.471314        40.0365 
 131   0.0000       1.471556        40.0431 
 132   0.0000       1.474450        40.1218 
 133   0.0000       1.477247        40.1979 
 134   0.0000       1.479590        40.2617 
 135   0.0000       1.509455        41.0744 
 136   0.0000       1.516004        41.2526 
 137   0.0000       1.516513        41.2664 
 138   0.0000       1.675645        45.5966 
 139   0.0000       1.681562        45.7576 
 140   0.0000       1.692441        46.0537 
 141   0.0000       1.707377        46.4601 
 142   0.0000       1.720617        46.8204 
 143   0.0000       1.726782        46.9881 
 144   0.0000       1.731397        47.1137 
 145   0.0000       1.735832        47.2344 
 146   0.0000       1.741109        47.3780 
 147   0.0000       1.746618        47.5279 
 148   0.0000       1.756732        47.8031 
 149   0.0000       1.766895        48.0797 
 150   0.0000       1.789715        48.7006 
 151   0.0000       1.798426        48.9377 
 152   0.0000       1.803652        49.0799 
 153   0.0000       1.817733        49.4630 
 154   0.0000       1.820465        49.5374 
 155   0.0000       1.833411        49.8897 
 156   0.0000       1.931723        52.5648 
 157   0.0000       1.933387        52.6101 
 158   0.0000       1.935129        52.6575 
 159   0.0000       1.936595        52.6974 
 160   0.0000       1.942698        52.8635 
 161   0.0000       1.945947        52.9519 
 162   0.0000       1.965609        53.4869 
 163   0.0000       1.969718        53.5988 
 164   0.0000       1.970773        53.6275 
 165   0.0000       2.221277        60.4440 
 166   0.0000       2.226511        60.5864 
 167   0.0000       2.228843        60.6499 
 168   0.0000       2.231709        60.7279 
 169   0.0000       2.238518        60.9132 
 170   0.0000       2.241205        60.9863 
 171   0.0000       2.248249        61.1780 
 172   0.0000       2.250807        61.2476 
 173   0.0000       2.266951        61.6869 
 174   0.0000       2.339404        63.6584 
 175   0.0000       2.346574        63.8535 
 176   0.0000       2.354642        64.0731 
 177   0.0000       2.536986        69.0349 
 178   0.0000       2.539209        69.0954 
 179   0.0000       2.543718        69.2181 
 180   0.0000       2.554347        69.5073 
 181   0.0000       2.560886        69.6852 
 182   0.0000       2.565417        69.8085 
 183   0.0000       2.570404        69.9443 
 184   0.0000       2.597041        70.6691 
 185   0.0000       2.609964        71.0207 
 186   0.0000       2.613870        71.1270 
 187   0.0000       2.616374        71.1952 
 188   0.0000       2.617140        71.2160 
 189   0.0000       2.625432        71.4416 
 190   0.0000       2.630568        71.5814 
 191   0.0000       2.642089        71.8949 
 192   0.0000       2.703075        73.5544 
 193   0.0000       2.705572        73.6224 
 194   0.0000       2.709009        73.7159 
 195   0.0000       2.731619        74.3311 
 196   0.0000       2.735149        74.4272 
 197   0.0000       2.737388        74.4881 
 198   0.0000       2.739134        74.5356 
 199   0.0000       2.743772        74.6618 
 200   0.0000       2.747305        74.7580 
 201   0.0000       2.911285        79.2201 
 202   0.0000       2.911707        79.2316 
 203   0.0000       2.912614        79.2562 
 204   0.0000       2.912672        79.2578 
 205   0.0000       2.912873        79.2633 
 206   0.0000       2.913299        79.2749 
 207   0.0000       2.943404        80.0941 
 208   0.0000       2.946410        80.1759 
 209   0.0000       2.947628        80.2090 
 210   0.0000       2.950838        80.2964 
 211   0.0000       2.952992        80.3550 
 212   0.0000       2.956106        80.4397 
 213   0.0000       3.008346        81.8613 
 214   0.0000       3.020774        82.1994 
 215   0.0000       3.025388        82.3250 
 216   0.0000       3.084863        83.9434 
 217   0.0000       3.086258        83.9813 
 218   0.0000       3.087819        84.0238 
 219   0.0000       3.088896        84.0531 
 220   0.0000       3.091031        84.1112 
 221   0.0000       3.091507        84.1242 
 222   0.0000       3.231148        87.9240 
 223   0.0000       3.236822        88.0784 
 224   0.0000       3.239410        88.1488 
 225   0.0000       3.243108        88.2494 
 226   0.0000       3.243943        88.2722 
 227   0.0000       3.244473        88.2866 
 228   0.0000       3.247489        88.3687 
 229   0.0000       3.250406        88.4481 
 230   0.0000       3.257252        88.6343 
 231   0.0000       3.326956        90.5311 
 232   0.0000       3.329915        90.6116 
 233   0.0000       3.331911        90.6659 
 234   0.0000       3.333646        90.7131 
 235   0.0000       3.334089        90.7252 
 236   0.0000       3.334603        90.7392 
 237   0.0000       3.437153        93.5297 
 238   0.0000       3.439662        93.5980 
 239   0.0000       3.441205        93.6400 
 240   0.0000       3.444423        93.7275 
 241   0.0000       3.449158        93.8564 
 242   0.0000       3.457513        94.0837 
 243   0.0000       3.481416        94.7342 
 244   0.0000       3.488126        94.9167 
 245   0.0000       3.492039        95.0232 
 246   0.0000       3.633613        98.8756 
 247   0.0000       3.635379        98.9237 
 248   0.0000       3.635920        98.9384 
 249   0.0000       3.643983        99.1578 
 250   0.0000       3.650107        99.3244 
 251   0.0000       3.654086        99.4327 
 252   0.0000       3.797958       103.3477 
 253   0.0000       3.799071       103.3780 
 254   0.0000       3.799396       103.3868 
 255   0.0000       3.800118       103.4065 
 256   0.0000       3.800768       103.4242 
 257   0.0000       3.801097       103.4331 
 258   0.0000       3.920799       106.6904 
 259   0.0000       3.924269       106.7848 
 260   0.0000       3.928495       106.8998 
 261   0.0000       3.941627       107.2571 
 262   0.0000       3.944754       107.3422 
 263   0.0000       3.947595       107.4195 
 264   0.0000       3.951750       107.5326 
 265   0.0000       3.954991       107.6208 
 266   0.0000       3.964093       107.8684 
 267   0.0000       4.238530       115.3363 
 268   0.0000       4.244805       115.5070 
 269   0.0000       4.246591       115.5556 
 270   0.0000       4.248231       115.6002 
 271   0.0000       4.251864       115.6991 
 272   0.0000       4.256826       115.8341 
 273   0.0000       4.342118       118.1550 
 274   0.0000       4.342285       118.1596 
 275   0.0000       4.342537       118.1664 
 276   0.0000       4.346865       118.2842 
 277   0.0000       4.346882       118.2847 
 278   0.0000       4.347387       118.2984 
 279   0.0000       4.556671       123.9933 
 280   0.0000       4.561691       124.1299 
 281   0.0000       4.566787       124.2686 
 282   0.0000       4.737848       128.9234 
 283   0.0000       4.741102       129.0119 
 284   0.0000       4.744630       129.1080 
 285   0.0000       4.746437       129.1571 
 286   0.0000       4.749432       129.2386 
 287   0.0000       4.754491       129.3763 
 288   0.0000       4.825474       131.3078 
 289   0.0000       4.846413       131.8776 
 290   0.0000       4.857071       132.1676 
 291   0.0000       4.960234       134.9748 
 292   0.0000       4.960590       134.9845 
 293   0.0000       4.960954       134.9944 
 294   0.0000       4.961354       135.0053 
 295   0.0000       4.961610       135.0123 
 296   0.0000       4.962778       135.0440 
 297   0.0000       5.066410       137.8640 
 298   0.0000       5.067155       137.8843 
 299   0.0000       5.067659       137.8980 
 300   0.0000       5.068176       137.9121 
 301   0.0000       5.069168       137.9391 
 302   0.0000       5.070238       137.9682 
 303   0.0000       5.196728       141.4101 
 304   0.0000       5.204180       141.6129 
 305   0.0000       5.205676       141.6536 
 306   0.0000       5.555716       151.1787 
 307   0.0000       5.556218       151.1924 
 308   0.0000       5.557747       151.2340 
 309   0.0000       5.558310       151.2493 
 310   0.0000       5.562514       151.3637 
 311   0.0000       5.563404       151.3879 
 312   0.0000       6.019475       163.7982 
 313   0.0000       6.022980       163.8936 
 314   0.0000       6.025061       163.9502 
 315   0.0000       6.079552       165.4330 
 316   0.0000       6.081621       165.4893 
 317   0.0000       6.085265       165.5885 
 318   0.0000       6.091118       165.7478 
 319   0.0000       6.102644       166.0614 
 320   0.0000       6.104597       166.1145 
 321   0.0000       6.463801       175.8890 
 322   0.0000       6.464289       175.9022 
 323   0.0000       6.467162       175.9804 
 324   0.0000      23.455628       638.2601 
 325   0.0000      23.470035       638.6521 
 326   0.0000      23.476666       638.8326 
 327   0.0000      24.379986       663.4131 
 328   0.0000      24.384456       663.5348 
 329   0.0000      24.388666       663.6493 
 330   0.0000      33.368023       907.9901 
 331   0.0000      33.414156       909.2454 
 332   0.0000      33.435215       909.8185 

                    ********************************
                    * MULLIKEN POPULATION ANALYSIS *
                    ********************************

-----------------------
MULLIKEN ATOMIC CHARGES
-----------------------
   0 C :   -0.166333
   1 H :    0.137712
   2 H :    0.159456
   3 H :    0.157736
   4 C :   -0.110027
   5 N :   -0.178612
   6 C :   -0.169213
   7 H :    0.156757
   8 H :    0.159806
   9 H :    0.139674
  10 C :   -0.109782
  11 N :   -0.177295
  12 C :   -0.166225
  13 H :    0.162141
  14 H :    0.146386
  15 H :    0.144213
  16 C :   -0.110865
  17 N :   -0.175525
Sum of atomic charges:    0.0000000

--------------------------------
MULLIKEN REDUCED ORBITAL CHARGES
--------------------------------
  0 C s       :     3.148236  s :     3.148236
      pz      :     0.801437  p :     2.951498
      px      :     1.070521
      py      :     1.079540
      dz2     :     0.017791  d :     0.063109
      dxz     :     0.011573
      dyz     :     0.012367
      dx2y2   :     0.009948
      dxy     :     0.011430
      f0      :     0.001697  f :     0.003491
      f+1     :     0.000221
      f-1     :     0.000220
      f+2     :     0.000081
      f-2     :     0.000056
      f+3     :     0.000249
      f-3     :     0.000966
  1 H s       :     0.840112  s :     0.840112
      pz      :     0.004492  p :     0.022176
      px      :     0.009900
      py      :     0.007784
  2 H s       :     0.818160  s :     0.818160
      pz      :     0.005126  p :     0.022384
      px      :     0.003944
      py      :     0.013314
  3 H s       :     0.819914  s :     0.819914
      pz      :     0.004939  p :     0.022351
      px      :     0.012360
      py      :     0.005051
  4 C s       :     3.229677  s :     3.229677
      pz      :     0.960449  p :     2.749855
      px      :     0.894457
      py      :     0.894949
      dz2     :     0.027144  d :     0.113104
      dxz     :     0.042814
      dyz     :     0.042478
      dx2y2   :     0.000136
      dxy     :     0.000532
      f0      :     0.004158  f :     0.017392
      f+1     :     0.006553
      f-1     :     0.006566
      f+2     :     0.000038
      f-2     :     0.000077
      f+3     :     0.000000
      f-3     :     0.000000
  5 N s       :     3.723655  s :     3.723655
      pz      :     1.281729  p :     3.396596
      px      :     1.058417
      py      :     1.056450
      dz2     :     0.011780  d :     0.055400
      dxz     :     0.021772
      dyz     :     0.021794
      dx2y2   :     0.000030
      dxy     :     0.000024
      f0      :     0.000623  f :     0.002961
      f+1     :     0.001163
      f-1     :     0.001165
      f+2     :     0.000005
      f-2     :     0.000005
      f+3     :     0.000000
      f-3     :     0.000000
  6 C s       :     3.147254  s :     3.147254
      pz      :     0.801352  p :     2.955238
      px      :     1.067746
      py      :     1.086139
      dz2     :     0.017570  d :     0.063232
      dxz     :     0.012252
      dyz     :     0.012054
      dx2y2   :     0.010107
      dxy     :     0.011249
      f0      :     0.001720  f :     0.003490
      f+1     :     0.000216
      f-1     :     0.000212
      f+2     :     0.000068
      f-2     :     0.000078
      f+3     :     0.000808
      f-3     :     0.000389
  7 H s       :     0.820860  s :     0.820860
      pz      :     0.004643  p :     0.022383
      px      :     0.008216
      py      :     0.009524
  8 H s       :     0.817814  s :     0.817814
      pz      :     0.004906  p :     0.022380
      px      :     0.004770
      py      :     0.012705
  9 H s       :     0.838117  s :     0.838117
      pz      :     0.005103  p :     0.022209
      px      :     0.012918
      py      :     0.004188
 10 C s       :     3.229721  s :     3.229721
      pz      :     0.961151  p :     2.749563
      px      :     0.893860
      py      :     0.894552
      dz2     :     0.027069  d :     0.113113
      dxz     :     0.043126
      dyz     :     0.042165
      dx2y2   :     0.000151
      dxy     :     0.000602
      f0      :     0.004175  f :     0.017384
      f+1     :     0.006529
      f-1     :     0.006532
      f+2     :     0.000057
      f-2     :     0.000091
      f+3     :     0.000000
      f-3     :     0.000000
 11 N s       :     3.723037  s :     3.723037
      pz      :     1.281787  p :     3.395893
      px      :     1.058324
      py      :     1.055782
      dz2     :     0.011791  d :     0.055399
      dxz     :     0.021664
      dyz     :     0.021796
      dx2y2   :     0.000079
      dxy     :     0.000071
      f0      :     0.000628  f :     0.002965
      f+1     :     0.001153
      f-1     :     0.001165
      f+2     :     0.000009
      f-2     :     0.000009
      f+3     :     0.000000
      f-3     :     0.000000
 12 C s       :     3.150064  s :     3.150064
      pz      :     0.803077  p :     2.949386
      px      :     1.063740
      py      :     1.082570
      dz2     :     0.018013  d :     0.063283
      dxz     :     0.010593
      dyz     :     0.013237
      dx2y2   :     0.010126
      dxy     :     0.011313
      f0      :     0.001649  f :     0.003492
      f+1     :     0.000233
      f-1     :     0.000247
      f+2     :     0.000079
      f-2     :     0.000059
      f+3     :     0.000397
      f-3     :     0.000827
 13 H s       :     0.815482  s :     0.815482
      pz      :     0.005376  p :     0.022377
      px      :     0.003962
      py      :     0.013039
 14 H s       :     0.831416  s :     0.831416
      pz      :     0.004384  p :     0.022198
      px      :     0.013007
      py      :     0.004806
 15 H s       :     0.833593  s :     0.833593
      pz      :     0.004696  p :     0.022194
      px      :     0.009078
      py      :     0.008420
 16 C s       :     3.229268  s :     3.229268
      pz      :     0.957953  p :     2.751087
      px      :     0.896571
      py      :     0.896564
      dz2     :     0.027412  d :     0.113096
      dxz     :     0.042282
      dyz     :     0.042439
      dx2y2   :     0.000330
      dxy     :     0.000633
      f0      :     0.004212  f :     0.017413
      f+1     :     0.006472
      f-1     :     0.006505
      f+2     :     0.000098
      f-2     :     0.000125
      f+3     :     0.000000
      f-3     :     0.000001
 17 N s       :     3.725145  s :     3.725145
      pz      :     1.280067  p :     3.391975
      px      :     1.056245
      py      :     1.055663
      dz2     :     0.011892  d :     0.055447
      dxz     :     0.021731
      dyz     :     0.021644
      dx2y2   :     0.000093
      dxy     :     0.000088
      f0      :     0.000633  f :     0.002959
      f+1     :     0.001153
      f-1     :     0.001145
      f+2     :     0.000014
      f-2     :     0.000014
      f+3     :     0.000000
      f-3     :     0.000000


                     *******************************
                     * LOEWDIN POPULATION ANALYSIS *
                     *******************************

----------------------
LOEWDIN ATOMIC CHARGES
----------------------
   0 C :   -0.247185
   1 H :    0.138062
   2 H :    0.143257
   3 H :    0.144338
   4 C :   -0.203183
   5 N :    0.024707
   6 C :   -0.247600
   7 H :    0.142581
   8 H :    0.143129
   9 H :    0.138929
  10 C :   -0.202357
  11 N :    0.025309
  12 C :   -0.247519
  13 H :    0.145024
  14 H :    0.140610
  15 H :    0.139704
  16 C :   -0.204908
  17 N :    0.027101

-------------------------------
LOEWDIN REDUCED ORBITAL CHARGES
-------------------------------
  0 C s       :     2.813432  s :     2.813432
      pz      :     1.028732  p :     3.143445
      px      :     1.056006
      py      :     1.058707
      dz2     :     0.077010  d :     0.264739
      dxz     :     0.061442
      dyz     :     0.064152
      dx2y2   :     0.027934
      dxy     :     0.034202
      f0      :     0.007291  f :     0.025568
      f+1     :     0.005375
      f-1     :     0.005133
      f+2     :     0.002459
      f-2     :     0.002013
      f+3     :     0.000681
      f-3     :     0.002615
  1 H s       :     0.801808  s :     0.801808
      pz      :     0.012027  p :     0.060130
      px      :     0.026465
      py      :     0.021639
  2 H s       :     0.795861  s :     0.795861
      pz      :     0.013285  p :     0.060883
      px      :     0.012825
      py      :     0.034772
  3 H s       :     0.794926  s :     0.794926
      pz      :     0.012904  p :     0.060736
      px      :     0.032433
      py      :     0.015399
  4 C s       :     2.837289  s :     2.837289
      pz      :     1.189640  p :     2.860989
      px      :     0.835315
      py      :     0.836035
      dz2     :     0.154856  d :     0.446278
      dxz     :     0.145417
      dyz     :     0.144888
      dx2y2   :     0.000126
      dxy     :     0.000991
      f0      :     0.023125  f :     0.058627
      f+1     :     0.017636
      f-1     :     0.017607
      f+2     :     0.000077
      f-2     :     0.000181
      f+3     :     0.000000
      f-3     :     0.000001
  5 N s       :     3.315280  s :     3.315280
      pz      :     1.493676  p :     3.532872
      px      :     1.020507
      py      :     1.018689
      dz2     :     0.045981  d :     0.112688
      dxz     :     0.033281
      dyz     :     0.033327
      dx2y2   :     0.000053
      dxy     :     0.000045
      f0      :     0.006209  f :     0.014453
      f+1     :     0.004104
      f-1     :     0.004106
      f+2     :     0.000018
      f-2     :     0.000016
      f+3     :     0.000000
      f-3     :     0.000000
  6 C s       :     2.813248  s :     2.813248
      pz      :     1.027359  p :     3.144300
      px      :     1.056543
      py      :     1.060397
      dz2     :     0.076326  d :     0.264591
      dxz     :     0.064210
      dyz     :     0.062413
      dx2y2   :     0.028588
      dxy     :     0.033054
      f0      :     0.007274  f :     0.025460
      f+1     :     0.005081
      f-1     :     0.005228
      f+2     :     0.002495
      f-2     :     0.002123
      f+3     :     0.002197
      f-3     :     0.001062
  7 H s       :     0.796430  s :     0.796430
      pz      :     0.012334  p :     0.060989
      px      :     0.022807
      py      :     0.025849
  8 H s       :     0.795966  s :     0.795966
      pz      :     0.012847  p :     0.060905
      px      :     0.014730
      py      :     0.033328
  9 H s       :     0.800873  s :     0.800873
      pz      :     0.013190  p :     0.060198
      px      :     0.033606
      py      :     0.013402
 10 C s       :     2.837423  s :     2.837423
      pz      :     1.189144  p :     2.861221
      px      :     0.836110
      py      :     0.835967
      dz2     :     0.154637  d :     0.445065
      dxz     :     0.145511
      dyz     :     0.143615
      dx2y2   :     0.000188
      dxy     :     0.001115
      f0      :     0.023092  f :     0.058649
      f+1     :     0.017711
      f-1     :     0.017499
      f+2     :     0.000130
      f-2     :     0.000216
      f+3     :     0.000001
      f-3     :     0.000001
 11 N s       :     3.314852  s :     3.314852
      pz      :     1.493599  p :     3.532511
      px      :     1.020953
      py      :     1.017959
      dz2     :     0.045930  d :     0.112821
      dxz     :     0.033356
      dyz     :     0.033317
      dx2y2   :     0.000114
      dxy     :     0.000103
      f0      :     0.006212  f :     0.014507
      f+1     :     0.004130
      f-1     :     0.004101
      f+2     :     0.000033
      f-2     :     0.000030
      f+3     :     0.000000
      f-3     :     0.000000
 12 C s       :     2.813826  s :     2.813826
      pz      :     1.030315  p :     3.142889
      px      :     1.054312
      py      :     1.058262
      dz2     :     0.077221  d :     0.265154
      dxz     :     0.057941
      dyz     :     0.067092
      dx2y2   :     0.028917
      dxy     :     0.033983
      f0      :     0.007238  f :     0.025650
      f+1     :     0.005713
      f-1     :     0.004955
      f+2     :     0.002340
      f-2     :     0.002070
      f+3     :     0.001090
      f-3     :     0.002244
 13 H s       :     0.794297  s :     0.794297
      pz      :     0.013796  p :     0.060678
      px      :     0.012815
      py      :     0.034067
 14 H s       :     0.799129  s :     0.799129
      pz      :     0.011842  p :     0.060261
      px      :     0.033642
      py      :     0.014778
 15 H s       :     0.800043  s :     0.800043
      pz      :     0.012433  p :     0.060253
      px      :     0.024773
      py      :     0.023047
 16 C s       :     2.836885  s :     2.836885
      pz      :     1.188322  p :     2.862904
      px      :     0.836632
      py      :     0.837951
      dz2     :     0.155015  d :     0.446505
      dxz     :     0.143968
      dyz     :     0.145423
      dx2y2   :     0.000725
      dxy     :     0.001373
      f0      :     0.023038  f :     0.058613
      f+1     :     0.017403
      f-1     :     0.017625
      f+2     :     0.000238
      f-2     :     0.000307
      f+3     :     0.000001
      f-3     :     0.000002
 17 N s       :     3.315329  s :     3.315329
      pz      :     1.491889  p :     3.530157
      px      :     1.019004
      py      :     1.019264
      dz2     :     0.045886  d :     0.112941
      dxz     :     0.033312
      dyz     :     0.033438
      dx2y2   :     0.000155
      dxy     :     0.000149
      f0      :     0.006167  f :     0.014472
      f+1     :     0.004086
      f-1     :     0.004117
      f+2     :     0.000051
      f-2     :     0.000049
      f+3     :     0.000000
      f-3     :     0.000000


                      *****************************
                      * MAYER POPULATION ANALYSIS *
                      *****************************

  NA   - Mulliken gross atomic population
  ZA   - Total nuclear charge
  QA   - Mulliken gross atomic charge
  VA   - Mayer's total valence
  BVA  - Mayer's bonded valence
  FA   - Mayer's free valence

  ATOM       NA         ZA         QA         VA         BVA        FA
  0 C      6.1663     6.0000    -0.1663     3.8151     3.8151    -0.0000
  1 H      0.8623     1.0000     0.1377     0.9621     0.9621    -0.0000
  2 H      0.8405     1.0000     0.1595     0.9620     0.9620     0.0000
  3 H      0.8423     1.0000     0.1577     0.9613     0.9613    -0.0000
  4 C      6.1100     6.0000    -0.1100     3.9107     3.9107     0.0000
  5 N      7.1786     7.0000    -0.1786     3.0323     3.0323     0.0000
  6 C      6.1692     6.0000    -0.1692     3.8160     3.8160     0.0000
  7 H      0.8432     1.0000     0.1568     0.9612     0.9612     0.0000
  8 H      0.8402     1.0000     0.1598     0.9619     0.9619     0.0000
  9 H      0.8603     1.0000     0.1397     0.9621     0.9621     0.0000
 10 C      6.1098     6.0000    -0.1098     3.9127     3.9127     0.0000
 11 N      7.1773     7.0000    -0.1773     3.0321     3.0321     0.0000
 12 C      6.1662     6.0000    -0.1662     3.8161     3.8161    -0.0000
 13 H      0.8379     1.0000     0.1621     0.9626     0.9626    -0.0000
 14 H      0.8536     1.0000     0.1464     0.9612     0.9612     0.0000
 15 H      0.8558     1.0000     0.1442     0.9612     0.9612    -0.0000
 16 C      6.1109     6.0000    -0.1109     3.9057     3.9057     0.0000
 17 N      7.1755     7.0000    -0.1755     3.0308     3.0308    -0.0000

  Mayer bond orders larger than 0.100000
B(  0-C ,  1-H ) :   0.9684 B(  0-C ,  2-H ) :   0.9641 B(  0-C ,  3-H ) :   0.9641 
B(  0-C ,  4-C ) :   0.9282 B(  4-C ,  5-N ) :   3.0060 B(  6-C ,  7-H ) :   0.9649 
B(  6-C ,  8-H ) :   0.9627 B(  6-C ,  9-H ) :   0.9688 B(  6-C , 10-C ) :   0.9295 
B( 10-C , 11-N ) :   3.0061 B( 12-C , 13-H ) :   0.9633 B( 12-C , 14-H ) :   0.9672 
B( 12-C , 15-H ) :   0.9677 B( 12-C , 16-C ) :   0.9266 B( 16-C , 17-N ) :   3.0040 


-------
TIMINGS
-------

Total SCF time: 0 days 0 hours 0 min 29 sec 

Total time                  ....      29.208 sec
Sum of individual times     ....      28.683 sec  ( 98.2%)

Fock matrix formation       ....      28.105 sec  ( 96.2%)
Diagonalization             ....       0.139 sec  (  0.5%)
Density matrix formation    ....       0.016 sec  (  0.1%)
Population analysis         ....       0.033 sec  (  0.1%)
Initial guess               ....       0.173 sec  (  0.6%)
Orbital Transformation      ....       0.000 sec  (  0.0%)
Orbital Orthonormalization  ....       0.000 sec  (  0.0%)
DIIS solution               ....       0.051 sec  (  0.2%)
SOSCF solution              ....       0.072 sec  (  0.2%)


           ************************************************************
           *        Program running with 6 parallel MPI-processes     *
           *              working on a common directory               *
           ************************************************************

------------------------------------------------------------------------------
                                ORCA  MP2 
------------------------------------------------------------------------------

Freezing NCore=18 chemical core electrons
MP2 will be done in the AO integral direct mode
The Q1-step will be done using symmetric double matrices
Dimension of the basis                    ...  333
Memory devoted for MP2                    ... 8000 MB   
Memory needed for all in one shot         ...  566 MB
Number of MOs that can be treated together...   55      
MP2 density construction                  ... relaxed
The MP2 gradient is requested => amplitudes will be stored on disk
Total number of MOs              ...   24
Number of MOs treated per batch  ...    4 
Number of batches necessary      ...    1 
OPERATORS   0/  0 PASS   0
-----------------------------------------------
 MP2 CORRELATION ENERGY   :     -1.527941398 Eh
-----------------------------------------------


---------------------
MP2 DENSITY FORMATION
---------------------

Completing the external part of the density      ... done
Storing the unrelaxed density                    ... done

Calculating G(D)                                 ... done
Completing the Lagrangian                        ... done
Solving the Z-vector equations                   ... 

------------------------------------------------------------------------------
                           ORCA CP-SCF CALCULATION
------------------------------------------------------------------------------

Input orbitals are from        ... 12mecn.remya.etal.2.mol0,6,7-orca.engrad-mp2.def2tzvp.frozencore.gbw
Input Perturbation             ... 12mecn.remya.etal.2.mol0,6,7-orca.engrad-mp2.def2tzvp.frozencore.pin.tmp
Wavefunction output            ... 12mecn.remya.etal.2.mol0,6,7-orca.engrad-mp2.def2tzvp.frozencore.pout.tmp
Perturbation mode              ... Real perturbation (singlet)
Solver                         ... POPLE
Max. number of iterations      ... 128
Convergence tolerance          ... 1.000e-08
Integral handling              ... Direct
Number of perturbations        ... 1
Number of operators            ... 1
Orbital ranges used for CP-SCF:
 Operator 0:  Orbitals   0... 32  to  33...332
Variables per vector in CP-SCF ... 9900
Number of vectors sought       ... 1
     CP-SCF ITERATION   0: 
     CP-SCF ITERATION   1:      0.001374491484
     CP-SCF ITERATION   2:      0.000295956158
     CP-SCF ITERATION   3:      0.000006012682
     CP-SCF ITERATION   4:      0.000000392932
     CP-SCF ITERATION   5:      0.000000055613
     CP-SCF ITERATION   6:      0.000000009941
                                                 ... done
Finalizing the relaxed density                   ... done
Transforming P to the AO basis                   ... done
Storing the relaxed density                      ... done

------------------------------------
ENERGY WEIGHTED DENSITY FINALIZATION
------------------------------------

Gathering the parts of the W-matrix              ...                                                      done
Forming the Z-density                            ... done
Transforming Z to the AO basis                   ... done
Calculating G(Z)                                 ... done
Finalizing the W-matrix                          ...                                                      done
Transforming W to the AO basis and storing       ... done

                *********************************************
                * UNRELAXED MP2 DENSITY POPULATION ANALYSIS *
                *********************************************

------------------------------------------------------------------------------
                           ORCA POPULATION ANALYSIS
------------------------------------------------------------------------------
Input electron density              ... 12mecn.remya.etal.2.mol0,6,7-orca.engrad-mp2.def2tzvp.frozencore.pmp2ur
BaseName (.gbw .S,...)              ... 12mecn.remya.etal.2.mol0,6,7-orca.engrad-mp2.def2tzvp.frozencore

                    ********************************
                    * MULLIKEN POPULATION ANALYSIS *
                    ********************************

-----------------------
MULLIKEN ATOMIC CHARGES
-----------------------
   0 C :   -0.179673
   1 H :    0.140282
   2 H :    0.162050
   3 H :    0.160307
   4 C :   -0.118174
   5 N :   -0.164868
   6 C :   -0.182590
   7 H :    0.159337
   8 H :    0.162390
   9 H :    0.142261
  10 C :   -0.117854
  11 N :   -0.163604
  12 C :   -0.179591
  13 H :    0.164736
  14 H :    0.148979
  15 H :    0.146796
  16 C :   -0.118938
  17 N :   -0.161847
Sum of atomic charges:    0.0000000

--------------------------------
MULLIKEN REDUCED ORBITAL CHARGES
--------------------------------
  0 C s       :     3.146640  s :     3.146640
      pz      :     0.800104  p :     2.937043
      px      :     1.063981
      py      :     1.072959
      dz2     :     0.020312  d :     0.088639
      dxz     :     0.017667
      dyz     :     0.018425
      dx2y2   :     0.015450
      dxy     :     0.016785
      f0      :     0.002095  f :     0.007351
      f+1     :     0.000888
      f-1     :     0.000890
      f+2     :     0.000618
      f-2     :     0.000600
      f+3     :     0.000806
      f-3     :     0.001454
  1 H s       :     0.834657  s :     0.834657
      pz      :     0.005516  p :     0.025061
      px      :     0.010803
      py      :     0.008741
  2 H s       :     0.812750  s :     0.812750
      pz      :     0.006113  p :     0.025200
      px      :     0.004983
      py      :     0.014105
  3 H s       :     0.814518  s :     0.814518
      pz      :     0.005934  p :     0.025175
      px      :     0.013177
      py      :     0.006064
  4 C s       :     3.229317  s :     3.229317
      pz      :     0.951615  p :     2.739560
      px      :     0.893784
      py      :     0.894160
      dz2     :     0.029628  d :     0.128933
      dxz     :     0.044959
      dyz     :     0.044635
      dx2y2   :     0.004660
      dxy     :     0.005049
      f0      :     0.004621  f :     0.020364
      f+1     :     0.006996
      f-1     :     0.007009
      f+2     :     0.000592
      f-2     :     0.000631
      f+3     :     0.000258
      f-3     :     0.000258
  5 N s       :     3.710778  s :     3.710778
      pz      :     1.269431  p :     3.371294
      px      :     1.051863
      py      :     1.050000
      dz2     :     0.015932  d :     0.077144
      dxz     :     0.025737
      dyz     :     0.025755
      dx2y2   :     0.004862
      dxy     :     0.004857
      f0      :     0.001049  f :     0.005653
      f+1     :     0.001607
      f-1     :     0.001609
      f+2     :     0.000419
      f-2     :     0.000418
      f+3     :     0.000275
      f-3     :     0.000275
  6 C s       :     3.145692  s :     3.145692
      pz      :     0.800013  p :     2.940769
      px      :     1.061217
      py      :     1.079539
      dz2     :     0.020108  d :     0.088781
      dxz     :     0.018283
      dyz     :     0.018170
      dx2y2   :     0.015572
      dxy     :     0.016648
      f0      :     0.002116  f :     0.007348
      f+1     :     0.000882
      f-1     :     0.000882
      f+2     :     0.000607
      f-2     :     0.000621
      f+3     :     0.001309
      f-3     :     0.000930
  7 H s       :     0.815447  s :     0.815447
      pz      :     0.005649  p :     0.025216
      px      :     0.009143
      py      :     0.010424
  8 H s       :     0.812418  s :     0.812418
      pz      :     0.005898  p :     0.025192
      px      :     0.005783
      py      :     0.013511
  9 H s       :     0.832643  s :     0.832643
      pz      :     0.006109  p :     0.025096
      px      :     0.013748
      py      :     0.005239
 10 C s       :     3.229348  s :     3.229348
      pz      :     0.952294  p :     2.739227
      px      :     0.893195
      py      :     0.893737
      dz2     :     0.029547  d :     0.128926
      dxz     :     0.045269
      dyz     :     0.044327
      dx2y2   :     0.004670
      dxy     :     0.005113
      f0      :     0.004636  f :     0.020354
      f+1     :     0.006972
      f-1     :     0.006975
      f+2     :     0.000610
      f-2     :     0.000644
      f+3     :     0.000258
      f-3     :     0.000258
 11 N s       :     3.710167  s :     3.710167
      pz      :     1.269499  p :     3.370646
      px      :     1.051779
      py      :     1.049369
      dz2     :     0.015940  d :     0.077134
      dxz     :     0.025632
      dyz     :     0.025756
      dx2y2   :     0.004906
      dxy     :     0.004899
      f0      :     0.001055  f :     0.005656
      f+1     :     0.001597
      f-1     :     0.001609
      f+2     :     0.000423
      f-2     :     0.000422
      f+3     :     0.000276
      f-3     :     0.000276
 12 C s       :     3.148471  s :     3.148471
      pz      :     0.801720  p :     2.934975
      px      :     1.057270
      py      :     1.075985
      dz2     :     0.020550  d :     0.088792
      dxz     :     0.016723
      dyz     :     0.019230
      dx2y2   :     0.015612
      dxy     :     0.016677
      f0      :     0.002054  f :     0.007353
      f+1     :     0.000893
      f-1     :     0.000915
      f+2     :     0.000617
      f-2     :     0.000603
      f+3     :     0.000941
      f-3     :     0.001330
 13 H s       :     0.810084  s :     0.810084
      pz      :     0.006353  p :     0.025180
      px      :     0.004996
      py      :     0.013831
 14 H s       :     0.825961  s :     0.825961
      pz      :     0.005407  p :     0.025061
      px      :     0.013817
      py      :     0.005837
 15 H s       :     0.828141  s :     0.828141
      pz      :     0.005711  p :     0.025063
      px      :     0.009994
      py      :     0.009358
 16 C s       :     3.228948  s :     3.228948
      pz      :     0.949167  p :     2.740619
      px      :     0.895788
      py      :     0.895664
      dz2     :     0.029905  d :     0.128982
      dxz     :     0.044454
      dyz     :     0.044608
      dx2y2   :     0.004858
      dxy     :     0.005157
      f0      :     0.004673  f :     0.020389
      f+1     :     0.006917
      f-1     :     0.006951
      f+2     :     0.000650
      f-2     :     0.000677
      f+3     :     0.000260
      f-3     :     0.000260
 17 N s       :     3.712220  s :     3.712220
      pz      :     1.267787  p :     3.366818
      px      :     1.049783
      py      :     1.049247
      dz2     :     0.016037  d :     0.077161
      dxz     :     0.025689
      dyz     :     0.025602
      dx2y2   :     0.004919
      dxy     :     0.004915
      f0      :     0.001058  f :     0.005648
      f+1     :     0.001596
      f-1     :     0.001588
      f+2     :     0.000427
      f-2     :     0.000427
      f+3     :     0.000276
      f-3     :     0.000276


                     *******************************
                     * LOEWDIN POPULATION ANALYSIS *
                     *******************************

----------------------
LOEWDIN ATOMIC CHARGES
----------------------
   0 C :   -0.255306
   1 H :    0.139667
   2 H :    0.144939
   3 H :    0.145998
   4 C :   -0.208061
   5 N :    0.032758
   6 C :   -0.255715
   7 H :    0.144249
   8 H :    0.144822
   9 H :    0.140530
  10 C :   -0.207224
  11 N :    0.033330
  12 C :   -0.255651
  13 H :    0.146709
  14 H :    0.142236
  15 H :    0.141323
  16 C :   -0.209725
  17 N :    0.035120

-------------------------------
LOEWDIN REDUCED ORBITAL CHARGES
-------------------------------
  0 C s       :     2.811634  s :     2.811634
      pz      :     1.020194  p :     3.119028
      px      :     1.048078
      py      :     1.050756
      dz2     :     0.082242  d :     0.293051
      dxz     :     0.067276
      dyz     :     0.069983
      dx2y2   :     0.033656
      dxy     :     0.039894
      f0      :     0.008410  f :     0.031593
      f+1     :     0.006438
      f-1     :     0.006193
      f+2     :     0.003136
      f-2     :     0.002684
      f+3     :     0.001343
      f-3     :     0.003388
  1 H s       :     0.795348  s :     0.795348
      pz      :     0.013423  p :     0.064986
      px      :     0.028298
      py      :     0.023265
  2 H s       :     0.789438  s :     0.789438
      pz      :     0.014721  p :     0.065623
      px      :     0.014039
      py      :     0.036863
  3 H s       :     0.788510  s :     0.788510
      pz      :     0.014326  p :     0.065491
      px      :     0.034441
      py      :     0.016724
  4 C s       :     2.834057  s :     2.834057
      pz      :     1.177102  p :     2.841581
      px      :     0.831920
      py      :     0.832560
      dz2     :     0.162209  d :     0.466056
      dxz     :     0.147107
      dyz     :     0.146609
      dx2y2   :     0.004646
      dxy     :     0.005485
      f0      :     0.024736  f :     0.066366
      f+1     :     0.019769
      f-1     :     0.019742
      f+2     :     0.000747
      f-2     :     0.000854
      f+3     :     0.000258
      f-3     :     0.000260
  5 N s       :     3.307393  s :     3.307393
      pz      :     1.477756  p :     3.498972
      px      :     1.011478
      py      :     1.009737
      dz2     :     0.052782  d :     0.142010
      dxz     :     0.039783
      dyz     :     0.039818
      dx2y2   :     0.004817
      dxy     :     0.004810
      f0      :     0.007279  f :     0.018868
      f+1     :     0.005067
      f-1     :     0.005067
      f+2     :     0.000453
      f-2     :     0.000451
      f+3     :     0.000275
      f-3     :     0.000275
  6 C s       :     2.811453  s :     2.811453
      pz      :     1.018840  p :     3.119885
      px      :     1.048606
      py      :     1.052439
      dz2     :     0.081562  d :     0.292900
      dxz     :     0.070035
      dyz     :     0.068246
      dx2y2   :     0.034289
      dxy     :     0.038767
      f0      :     0.008394  f :     0.031477
      f+1     :     0.006136
      f-1     :     0.006288
      f+2     :     0.003173
      f-2     :     0.002799
      f+3     :     0.002944
      f-3     :     0.001744
  7 H s       :     0.789997  s :     0.789997
      pz      :     0.013729  p :     0.065753
      px      :     0.024423
      py      :     0.027602
  8 H s       :     0.789542  s :     0.789542
      pz      :     0.014264  p :     0.065636
      px      :     0.016014
      py      :     0.035358
  9 H s       :     0.794414  s :     0.794414
      pz      :     0.014651  p :     0.065057
      px      :     0.035752
      py      :     0.014654
 10 C s       :     2.834191  s :     2.834191
      pz      :     1.176615  p :     2.841762
      px      :     0.832680
      py      :     0.832467
      dz2     :     0.161973  d :     0.464893
      dxz     :     0.147233
      dyz     :     0.145378
      dx2y2   :     0.004706
      dxy     :     0.005602
      f0      :     0.024705  f :     0.066378
      f+1     :     0.019834
      f-1     :     0.019625
      f+2     :     0.000802
      f-2     :     0.000893
      f+3     :     0.000260
      f-3     :     0.000259
 11 N s       :     3.306969  s :     3.306969
      pz      :     1.477697  p :     3.498645
      px      :     1.011916
      py      :     1.009032
      dz2     :     0.052726  d :     0.142133
      dxz     :     0.039858
      dyz     :     0.039804
      dx2y2   :     0.004877
      dxy     :     0.004867
      f0      :     0.007282  f :     0.018923
      f+1     :     0.005092
      f-1     :     0.005061
      f+2     :     0.000470
      f-2     :     0.000467
      f+3     :     0.000276
      f-3     :     0.000276
 12 C s       :     2.812031  s :     2.812031
      pz      :     1.021762  p :     3.118473
      px      :     1.046396
      py      :     1.050315
      dz2     :     0.082464  d :     0.293469
      dxz     :     0.063763
      dyz     :     0.072922
      dx2y2   :     0.034639
      dxy     :     0.039682
      f0      :     0.008355  f :     0.031678
      f+1     :     0.006777
      f-1     :     0.006012
      f+2     :     0.003016
      f-2     :     0.002743
      f+3     :     0.001777
      f-3     :     0.002998
 13 H s       :     0.787888  s :     0.787888
      pz      :     0.015254  p :     0.065403
      px      :     0.014033
      py      :     0.036116
 14 H s       :     0.792682  s :     0.792682
      pz      :     0.013220  p :     0.065082
      px      :     0.035759
      py      :     0.016103
 15 H s       :     0.793593  s :     0.793593
      pz      :     0.013845  p :     0.065085
      px      :     0.026500
      py      :     0.024740
 16 C s       :     2.833662  s :     2.833662
      pz      :     1.175806  p :     2.843361
      px      :     0.833149
      py      :     0.834406
      dz2     :     0.162322  d :     0.466336
      dxz     :     0.145718
      dyz     :     0.147176
      dx2y2   :     0.005245
      dxy     :     0.005875
      f0      :     0.024660  f :     0.066366
      f+1     :     0.019524
      f-1     :     0.019748
      f+2     :     0.000918
      f-2     :     0.000990
      f+3     :     0.000262
      f-3     :     0.000263
 17 N s       :     3.307431  s :     3.307431
      pz      :     1.475980  p :     3.496336
      px      :     1.010035
      py      :     1.010321
      dz2     :     0.052680  d :     0.142228
      dxz     :     0.039793
      dyz     :     0.039915
      dx2y2   :     0.004922
      dxy     :     0.004916
      f0      :     0.007235  f :     0.018884
      f+1     :     0.005044
      f-1     :     0.005076
      f+2     :     0.000490
      f-2     :     0.000488
      f+3     :     0.000276
      f-3     :     0.000276


                      *****************************
                      * MAYER POPULATION ANALYSIS *
                      *****************************

  NA   - Mulliken gross atomic population
  ZA   - Total nuclear charge
  QA   - Mulliken gross atomic charge
  VA   - Mayer's total valence
  BVA  - Mayer's bonded valence
  FA   - Mayer's free valence

  ATOM       NA         ZA         QA         VA         BVA        FA
  0 C      6.1797     6.0000    -0.1797     3.9325     3.6491     0.2834
  1 H      0.8597     1.0000     0.1403     0.9704     0.9215     0.0489
  2 H      0.8380     1.0000     0.1620     0.9694     0.9222     0.0472
  3 H      0.8397     1.0000     0.1603     0.9687     0.9212     0.0475
  4 C      6.1182     6.0000    -0.1182     4.0129     3.5724     0.4406
  5 N      7.1649     7.0000    -0.1649     3.2257     2.7402     0.4855
  6 C      6.1826     6.0000    -0.1826     3.9338     3.6501     0.2837
  7 H      0.8407     1.0000     0.1593     0.9687     0.9212     0.0475
  8 H      0.8376     1.0000     0.1624     0.9693     0.9221     0.0472
  9 H      0.8577     1.0000     0.1423     0.9703     0.9215     0.0488
 10 C      6.1179     6.0000    -0.1179     4.0147     3.5747     0.4400
 11 N      7.1636     7.0000    -0.1636     3.2254     2.7404     0.4850
 12 C      6.1796     6.0000    -0.1796     3.9335     3.6498     0.2838
 13 H      0.8353     1.0000     0.1647     0.9699     0.9228     0.0471
 14 H      0.8510     1.0000     0.1490     0.9691     0.9208     0.0483
 15 H      0.8532     1.0000     0.1468     0.9692     0.9208     0.0485
 16 C      6.1189     6.0000    -0.1189     4.0083     3.5671     0.4412
 17 N      7.1618     7.0000    -0.1618     3.2238     2.7383     0.4855

  Mayer bond orders larger than 0.100000
B(  0-C ,  1-H ) :   0.9303 B(  0-C ,  2-H ) :   0.9268 B(  0-C ,  3-H ) :   0.9266 
B(  0-C ,  4-C ) :   0.8767 B(  4-C ,  5-N ) :   2.7209 B(  6-C ,  7-H ) :   0.9275 
B(  6-C ,  8-H ) :   0.9255 B(  6-C ,  9-H ) :   0.9307 B(  6-C , 10-C ) :   0.8780 
B( 10-C , 11-N ) :   2.7214 B( 12-C , 13-H ) :   0.9261 B( 12-C , 14-H ) :   0.9294 
B( 12-C , 15-H ) :   0.9298 B( 12-C , 16-C ) :   0.8751 B( 16-C , 17-N ) :   2.7187 



                *******************************************
                * RELAXED MP2 DENSITY POPULATION ANALYSIS *
                *******************************************

------------------------------------------------------------------------------
                           ORCA POPULATION ANALYSIS
------------------------------------------------------------------------------
Input electron density              ... 12mecn.remya.etal.2.mol0,6,7-orca.engrad-mp2.def2tzvp.frozencore.pmp2re
BaseName (.gbw .S,...)              ... 12mecn.remya.etal.2.mol0,6,7-orca.engrad-mp2.def2tzvp.frozencore

                    ********************************
                    * MULLIKEN POPULATION ANALYSIS *
                    ********************************

-----------------------
MULLIKEN ATOMIC CHARGES
-----------------------
   0 C :   -0.281433
   1 H :    0.155387
   2 H :    0.175394
   3 H :    0.174186
   4 C :   -0.143937
   5 N :   -0.079665
   6 C :   -0.284439
   7 H :    0.173401
   8 H :    0.175662
   9 H :    0.157454
  10 C :   -0.143724
  11 N :   -0.078408
  12 C :   -0.281586
  13 H :    0.177617
  14 H :    0.163723
  15 H :    0.161732
  16 C :   -0.143613
  17 N :   -0.077752
Sum of atomic charges:    0.0000000

--------------------------------
MULLIKEN REDUCED ORBITAL CHARGES
--------------------------------
  0 C s       :     3.183120  s :     3.183120
      pz      :     0.846302  p :     3.013025
      px      :     1.079037
      py      :     1.087687
      dz2     :     0.016076  d :     0.078193
      dxz     :     0.017848
      dyz     :     0.018414
      dx2y2   :     0.012436
      dxy     :     0.013419
      f0      :     0.001861  f :     0.007094
      f+1     :     0.000948
      f-1     :     0.000950
      f+2     :     0.000605
      f-2     :     0.000589
      f+3     :     0.000781
      f-3     :     0.001360
  1 H s       :     0.820612  s :     0.820612
      pz      :     0.005634  p :     0.024001
      px      :     0.010053
      py      :     0.008313
  2 H s       :     0.800549  s :     0.800549
      pz      :     0.006099  p :     0.024057
      px      :     0.005164
      py      :     0.012794
  3 H s       :     0.801774  s :     0.801774
      pz      :     0.005966  p :     0.024040
      px      :     0.012007
      py      :     0.006067
  4 C s       :     3.208002  s :     3.208002
      pz      :     0.986193  p :     2.812733
      px      :     0.913729
      py      :     0.912811
      dz2     :     0.024790  d :     0.104183
      dxz     :     0.035006
      dyz     :     0.034758
      dx2y2   :     0.004634
      dxy     :     0.004996
      f0      :     0.004432  f :     0.019019
      f+1     :     0.006423
      f-1     :     0.006438
      f+2     :     0.000588
      f-2     :     0.000623
      f+3     :     0.000257
      f-3     :     0.000258
  5 N s       :     3.654051  s :     3.654051
      pz      :     1.258506  p :     3.352357
      px      :     1.047270
      py      :     1.046581
      dz2     :     0.014924  d :     0.068080
      dxz     :     0.021727
      dyz     :     0.021718
      dx2y2   :     0.004857
      dxy     :     0.004853
      f0      :     0.000932  f :     0.005177
      f+1     :     0.001429
      f-1     :     0.001429
      f+2     :     0.000418
      f-2     :     0.000417
      f+3     :     0.000275
      f-3     :     0.000275
  6 C s       :     3.182238  s :     3.182238
[...]
      f+1     :     0.006404
      f-1     :     0.006410
      f+2     :     0.000604
      f-2     :     0.000634
      f+3     :     0.000258
      f-3     :     0.000258
 11 N s       :     3.653316  s :     3.653316
      pz      :     1.258490  p :     3.351841
      px      :     1.047239
      py      :     1.046111
      dz2     :     0.014918  d :     0.068071
      dxz     :     0.021653
      dyz     :     0.021722
      dx2y2   :     0.004891
      dxy     :     0.004886
      f0      :     0.000938  f :     0.005181
      f+1     :     0.001420
      f-1     :     0.001430
      f+2     :     0.000421
      f-2     :     0.000421
      f+3     :     0.000276
      f-3     :     0.000276
 12 C s       :     3.185062  s :     3.185062
      pz      :     0.847825  p :     3.011137
      px      :     1.072739
      py      :     1.090573
      dz2     :     0.016359  d :     0.078292
      dxz     :     0.017065
      dyz     :     0.018994
      dx2y2   :     0.012541
      dxy     :     0.013333
      f0      :     0.001827  f :     0.007095
      f+1     :     0.000950
      f-1     :     0.000971
      f+2     :     0.000603
      f-2     :     0.000592
      f+3     :     0.000902
      f-3     :     0.001249
 13 H s       :     0.798349  s :     0.798349
      pz      :     0.006310  p :     0.024034
      px      :     0.005165
      py      :     0.012559
 14 H s       :     0.812304  s :     0.812304
      pz      :     0.005541  p :     0.023973
      px      :     0.012561
      py      :     0.005872
 15 H s       :     0.814282  s :     0.814282
      pz      :     0.005796  p :     0.023986
      px      :     0.009372
      py      :     0.008818
 16 C s       :     3.207389  s :     3.207389
      pz      :     0.983716  p :     2.812978
      px      :     0.915096
      py      :     0.914166
      dz2     :     0.025023  d :     0.104208
      dxz     :     0.034557
      dyz     :     0.034762
      dx2y2   :     0.004795
      dxy     :     0.005071
      f0      :     0.004476  f :     0.019039
      f+1     :     0.006354
      f-1     :     0.006385
      f+2     :     0.000641
      f-2     :     0.000665
      f+3     :     0.000260
      f-3     :     0.000260
 17 N s       :     3.656038  s :     3.656038
      pz      :     1.256663  p :     3.348448
      px      :     1.045893
      py      :     1.045892
      dz2     :     0.015004  d :     0.068094
      dxz     :     0.021683
      dyz     :     0.021606
      dx2y2   :     0.004902
      dxy     :     0.004899
      f0      :     0.000941  f :     0.005173
      f+1     :     0.001419
      f-1     :     0.001411
      f+2     :     0.000425
      f-2     :     0.000425
      f+3     :     0.000276
      f-3     :     0.000276


                     *******************************
                     * LOEWDIN POPULATION ANALYSIS *
                     *******************************

----------------------
LOEWDIN ATOMIC CHARGES
----------------------
   0 C :   -0.286089
   1 H :    0.146827
   2 H :    0.151675
   3 H :    0.152813
   4 C :   -0.221628
   5 N :    0.056398
   6 C :   -0.286469
   7 H :    0.151058
   8 H :    0.151524
   9 H :    0.147729
  10 C :   -0.220707
  11 N :    0.056858
  12 C :   -0.286456
  13 H :    0.153409
  14 H :    0.149318
  15 H :    0.148410
  16 C :   -0.223048
  17 N :    0.058379

-------------------------------
LOEWDIN REDUCED ORBITAL CHARGES
-------------------------------
  0 C s       :     2.816577  s :     2.816577
      pz      :     1.037855  p :     3.155861
      px      :     1.057680
      py      :     1.060326
      dz2     :     0.074788  d :     0.281856
      dxz     :     0.068791
      dyz     :     0.071262
      dx2y2   :     0.030610
      dxy     :     0.036405
      f0      :     0.007929  f :     0.031796
      f+1     :     0.006859
      f-1     :     0.006604
      f+2     :     0.003120
      f-2     :     0.002662
      f+3     :     0.001321
      f-3     :     0.003301
  1 H s       :     0.787756  s :     0.787756
      pz      :     0.014011  p :     0.065417
      px      :     0.028100
      py      :     0.023306
  2 H s       :     0.782392  s :     0.782392
      pz      :     0.015203  p :     0.065933
      px      :     0.014504
      py      :     0.036227
  3 H s       :     0.781373  s :     0.781373
      pz      :     0.014844  p :     0.065814
      px      :     0.033910
      py      :     0.017061
  4 C s       :     2.839828  s :     2.839828
      pz      :     1.168611  p :     2.864941
      px      :     0.848247
      py      :     0.848083
      dz2     :     0.164433  d :     0.450410
      dxz     :     0.138185
      dyz     :     0.137798
      dx2y2   :     0.004610
      dxy     :     0.005384
      f0      :     0.025705  f :     0.066449
      f+1     :     0.019331
      f-1     :     0.019327
      f+2     :     0.000743
      f-2     :     0.000827
      f+3     :     0.000258
      f-3     :     0.000259
  5 N s       :     3.307550  s :     3.307550
      pz      :     1.464449  p :     3.479238
      px      :     1.007835
      py      :     1.006955
      dz2     :     0.053496  d :     0.137598
      dxz     :     0.037264
      dyz     :     0.037216
      dx2y2   :     0.004813
      dxy     :     0.004808
      f0      :     0.007381  f :     0.019215
      f+1     :     0.005194
      f-1     :     0.005185
      f+2     :     0.000453
      f-2     :     0.000451
      f+3     :     0.000275
      f-3     :     0.000275
  6 C s       :     2.816409  s :     2.816409
      pz      :     1.036432  p :     3.156687
      px      :     1.058457
      py      :     1.061798
      dz2     :     0.074158  d :     0.281701
      dxz     :     0.071324
      dyz     :     0.069659
      dx2y2   :     0.031160
      dxy     :     0.035400
      f0      :     0.007914  f :     0.031672
      f+1     :     0.006547
      f-1     :     0.006700
      f+2     :     0.003153
      f-2     :     0.002779
      f+3     :     0.002871
      f-3     :     0.001708
  7 H s       :     0.782857  s :     0.782857
      pz      :     0.014277  p :     0.066086
      px      :     0.024398
      py      :     0.027411
  8 H s       :     0.782542  s :     0.782542
      pz      :     0.014764  p :     0.065933
      px      :     0.016380
      py      :     0.034789
  9 H s       :     0.786776  s :     0.786776
      pz      :     0.015163  p :     0.065494
      px      :     0.035235
      py      :     0.015096
 10 C s       :     2.840001  s :     2.840001
      pz      :     1.168135  p :     2.864944
      px      :     0.848948
      py      :     0.847861
      dz2     :     0.164151  d :     0.449289
      dxz     :     0.138374
      dyz     :     0.136610
      dx2y2   :     0.004662
      dxy     :     0.005491
      f0      :     0.025664  f :     0.066473
      f+1     :     0.019400
      f-1     :     0.019226
      f+2     :     0.000798
      f-2     :     0.000866
      f+3     :     0.000259
      f-3     :     0.000259
 11 N s       :     3.307115  s :     3.307115
      pz      :     1.464417  p :     3.479043
      px      :     1.008294
      py      :     1.006332
      dz2     :     0.053425  d :     0.137715
      dxz     :     0.037367
      dyz     :     0.037198
      dx2y2   :     0.004866
      dxy     :     0.004859
      f0      :     0.007384  f :     0.019270
      f+1     :     0.005218
      f-1     :     0.005178
      f+2     :     0.000471
      f-2     :     0.000468
      f+3     :     0.000276
      f-3     :     0.000276
 12 C s       :     2.816983  s :     2.816983
      pz      :     1.039395  p :     3.155400
      px      :     1.056224
      py      :     1.059780
      dz2     :     0.075089  d :     0.282193
      dxz     :     0.065406
      dyz     :     0.073936
      dx2y2   :     0.031539
      dxy     :     0.036222
      f0      :     0.007894  f :     0.031880
      f+1     :     0.007190
      f-1     :     0.006406
      f+2     :     0.003002
      f-2     :     0.002725
      f+3     :     0.001740
      f-3     :     0.002922
 13 H s       :     0.780896  s :     0.780896
      pz      :     0.015709  p :     0.065695
      px      :     0.014494
      py      :     0.035492
 14 H s       :     0.785206  s :     0.785206
      pz      :     0.013820  p :     0.065476
      px      :     0.035188
      py      :     0.016468
 15 H s       :     0.786101  s :     0.786101
      pz      :     0.014408  p :     0.065489
      px      :     0.026385
      py      :     0.024696
 16 C s       :     2.839462  s :     2.839462
      pz      :     1.167464  p :     2.866338
      px      :     0.849036
      py      :     0.849838
      dz2     :     0.164462  d :     0.450791
      dxz     :     0.136973
      dyz     :     0.138434
      dx2y2   :     0.005170
      dxy     :     0.005751
      f0      :     0.025598  f :     0.066457
      f+1     :     0.019127
      f-1     :     0.019339
      f+2     :     0.000907
      f-2     :     0.000963
      f+3     :     0.000261
      f-3     :     0.000262
 17 N s       :     3.307609  s :     3.307609
      pz      :     1.462596  p :     3.477020
      px      :     1.006861
      py      :     1.007563
      dz2     :     0.053379  d :     0.137764
      dxz     :     0.037232
      dyz     :     0.037333
      dx2y2   :     0.004912
      dxy     :     0.004908
      f0      :     0.007339  f :     0.019227
      f+1     :     0.005165
      f-1     :     0.005191
      f+2     :     0.000491
      f-2     :     0.000489
      f+3     :     0.000276
      f-3     :     0.000276


                      *****************************
                      * MAYER POPULATION ANALYSIS *
                      *****************************

  NA   - Mulliken gross atomic population
  ZA   - Total nuclear charge
  QA   - Mulliken gross atomic charge
  VA   - Mayer's total valence
  BVA  - Mayer's bonded valence
  FA   - Mayer's free valence

  ATOM       NA         ZA         QA         VA         BVA        FA
  0 C      6.2814     6.0000    -0.2814     3.9356     3.6532     0.2824
  1 H      0.8446     1.0000     0.1554     0.9651     0.9169     0.0483
  2 H      0.8246     1.0000     0.1754     0.9632     0.9165     0.0466
  3 H      0.8258     1.0000     0.1742     0.9626     0.9156     0.0469
  4 C      6.1439     6.0000    -0.1439     4.1335     3.7039     0.4296
  5 N      7.0797     7.0000    -0.0797     3.3373     2.8640     0.4733
  6 C      6.2844     6.0000    -0.2844     3.9367     3.6541     0.2826
  7 H      0.8266     1.0000     0.1734     0.9624     0.9156     0.0469
  8 H      0.8243     1.0000     0.1757     0.9633     0.9167     0.0466
  9 H      0.8425     1.0000     0.1575     0.9645     0.9163     0.0482
 10 C      6.1437     6.0000    -0.1437     4.1354     3.7063     0.4291
 11 N      7.0784     7.0000    -0.0784     3.3370     2.8642     0.4728
 12 C      6.2816     6.0000    -0.2816     3.9363     3.6536     0.2827
 13 H      0.8224     1.0000     0.1776     0.9637     0.9172     0.0465
 14 H      0.8363     1.0000     0.1637     0.9634     0.9157     0.0477
 15 H      0.8383     1.0000     0.1617     0.9636     0.9158     0.0478
 16 C      6.1436     6.0000    -0.1436     4.1281     3.6979     0.4302
 17 N      7.0778     7.0000    -0.0778     3.3350     2.8617     0.4733

  Mayer bond orders larger than 0.100000
B(  0-C ,  1-H ) :   0.9209 B(  0-C ,  2-H ) :   0.9173 B(  0-C ,  3-H ) :   0.9174 
B(  0-C ,  4-C ) :   0.9003 B(  4-C ,  5-N ) :   2.8272 B(  6-C ,  7-H ) :   0.9180 
B(  6-C ,  8-H ) :   0.9162 B(  6-C ,  9-H ) :   0.9211 B(  6-C , 10-C ) :   0.9016 
B( 10-C , 11-N ) :   2.8277 B( 12-C , 13-H ) :   0.9165 B( 12-C , 14-H ) :   0.9200 
B( 12-C , 15-H ) :   0.9205 B( 12-C , 16-C ) :   0.8986 B( 16-C , 17-N ) :   2.8246 



----------------------------------
MP2 DERIVATIVE INTEGRAL GENERATION
----------------------------------


Input Wavefunction Amplitudes       ... 12mecn.remya.etal.2.mol0,6,7-orca.engrad-mp2.def2tzvp.frozencore.mp2tsaa.tmp
Input Correlated Electron Density   ... 12mecn.remya.etal.2.mol0,6,7-orca.engrad-mp2.def2tzvp.frozencore.pmp2re
Input Energy Weighted Density       ... 12mecn.remya.etal.2.mol0,6,7-orca.engrad-mp2.def2tzvp.frozencore.wmp2.tmp
Input SCF Electron Density          ... 12mecn.remya.etal.2.mol0,6,7-orca.engrad-mp2.def2tzvp.frozencore.scfp

One-Electron Terms    ...
                        ... One-Electron Terms done
Prescreening matrices              ... done

Batch handling in the gradient evaluation:
Memory available                      ... 8000.0 MB
Memory per occupied orbital in Q2     ...   20.3 MB
Memory per occupied orbital in Q3     ...    0.1 MB
Total memory requirement per |i>      ...   20.4 MB
Max. Number of orbitals possible      ...    391
Number of orbitals treated per batch  ...     24
Number of batches to be done          ...      1
Batch   0: i=    9 ...    32

---------------------------------------
MP2 TOTAL ENERGY:     -397.445206392 Eh
---------------------------------------

The final MP2 gradient
  0:   0.00024373  -0.00141677  -0.00674363
  1:   0.00242997   0.00174266  -0.00134914
  2:   0.00037606  -0.00229087   0.00007152
  3:  -0.00293991   0.00082589  -0.00147336
  4:  -0.00019559   0.00100858   0.00633985
  5:   0.00034585   0.00037488   0.00314411
  6:   0.00198389  -0.00209479  -0.00736833
  7:  -0.00009750   0.00191163   0.00002404
  8:   0.00084671  -0.00238204   0.00024176
  9:  -0.00222293   0.00190077  -0.00091546
 10:  -0.00058702   0.00061848   0.00334415
 11:  -0.00024842   0.00017766   0.00470368
 12:  -0.00052579   0.00157200  -0.00597310
 13:  -0.00103518   0.00390073  -0.00108117
 14:   0.00293959  -0.00198284  -0.00182395
 15:  -0.00190264  -0.00269274  -0.00146781
 16:   0.00039648  -0.00060661   0.00718432
 17:   0.00019269  -0.00056663   0.00314252

-----------------------------------
NORM OF THE MP2 GRADIENT:  0.019749
-----------------------------------

-------------------------   --------------------
FINAL SINGLE POINT ENERGY      -397.445206391725
-------------------------   --------------------


                            ***************************************
                            *     ORCA property calculations      *
                            ***************************************

                                    ---------------------
                                    Active property flags
                                    ---------------------
   (+) Dipole Moment


------------------------------------------------------------------------------
                       ORCA ELECTRIC PROPERTIES CALCULATION
------------------------------------------------------------------------------

Dipole Moment Calculation                       ... on
Quadrupole Moment Calculation                   ... off
Polarizability Calculation                      ... off
GBWName                                         ... 12mecn.remya.etal.2.mol0,6,7-orca.engrad-mp2.def2tzvp.frozencore.gbw
Electron density file                           ... 12mecn.remya.etal.2.mol0,6,7-orca.engrad-mp2.def2tzvp.frozencore.scfp
The origin for moment calculation is the CENTER OF MASS  = ( 3.641276, -3.883407  0.602657)

-------------
DIPOLE MOMENT
-------------
                                X             Y             Z
Electronic contribution:     -0.33831       0.05424      -9.15907
Nuclear contribution   :      0.52538      -0.09500      13.90690
                        -----------------------------------------
Total Dipole Moment    :      0.18706      -0.04076       4.74783
                        -----------------------------------------
Magnitude (a.u.)       :      4.75169
Magnitude (Debye)      :     12.07783



--------------------
Rotational spectrum 
--------------------
 
Rotational constants in cm-1:     0.025721     0.017496     0.012953 
Rotational constants in MHz :   771.091130   524.506201   388.315617 

 Dipole components along the rotational axes: 
x,y,z [a.u.] :     0.061857     0.158715     4.748634 
x,y,z [Debye]:     0.157228     0.403422    12.070069 

 

                         *** MP2 UNRELAXED DENSITY ***

------------------------------------------------------------------------------
                       ORCA ELECTRIC PROPERTIES CALCULATION
------------------------------------------------------------------------------

Dipole Moment Calculation                       ... on
Quadrupole Moment Calculation                   ... off
Polarizability Calculation                      ... off
GBWName                                         ... 12mecn.remya.etal.2.mol0,6,7-orca.engrad-mp2.def2tzvp.frozencore.gbw
Electron density file                           ... 12mecn.remya.etal.2.mol0,6,7-orca.engrad-mp2.def2tzvp.frozencore.pmp2ur
The origin for moment calculation is the CENTER OF MASS  = ( 3.641276, -3.883407  0.602657)

-------------
DIPOLE MOMENT
-------------
                                X             Y             Z
Electronic contribution:     -0.34280       0.05537      -9.26472
Nuclear contribution   :      0.52538      -0.09500      13.90690
                        -----------------------------------------
Total Dipole Moment    :      0.18258      -0.03963       4.64218
                        -----------------------------------------
Magnitude (a.u.)       :      4.64594
Magnitude (Debye)      :     11.80903



--------------------
Rotational spectrum 
--------------------
 
Rotational constants in cm-1:     0.025721     0.017496     0.012953 
Rotational constants in MHz :   771.091130   524.506201   388.315617 

 Dipole components along the rotational axes: 
x,y,z [a.u.] :     0.060765     0.155449     4.642938 
x,y,z [Debye]:     0.154452     0.395119    11.801411 

 

                           *** MP2 RELAXED DENSITY ***

------------------------------------------------------------------------------
                       ORCA ELECTRIC PROPERTIES CALCULATION
------------------------------------------------------------------------------

Dipole Moment Calculation                       ... on
Quadrupole Moment Calculation                   ... off
Polarizability Calculation                      ... off
GBWName                                         ... 12mecn.remya.etal.2.mol0,6,7-orca.engrad-mp2.def2tzvp.frozencore.gbw
Electron density file                           ... 12mecn.remya.etal.2.mol0,6,7-orca.engrad-mp2.def2tzvp.frozencore.pmp2re
The origin for moment calculation is the CENTER OF MASS  = ( 3.641276, -3.883407  0.602657)

-------------
DIPOLE MOMENT
-------------
                                X             Y             Z
Electronic contribution:     -0.35457       0.05815      -9.54710
Nuclear contribution   :      0.52538      -0.09500      13.90690
                        -----------------------------------------
Total Dipole Moment    :      0.17081      -0.03684       4.35980
                        -----------------------------------------
Magnitude (a.u.)       :      4.36330
Magnitude (Debye)      :     11.09062



--------------------
Rotational spectrum 
--------------------
 
Rotational constants in cm-1:     0.025721     0.017496     0.012953 
Rotational constants in MHz :   771.091130   524.506201   388.315617 

 Dipole components along the rotational axes: 
x,y,z [a.u.] :     0.057659     0.146468     4.360457 
x,y,z [Debye]:     0.146558     0.372292    11.083401 

 

Timings for individual modules:

Sum of individual times         ...      157.454 sec (=   2.624 min)
GTO integral calculation        ...        5.640 sec (=   0.094 min)   3.6 %
SCF iterations                  ...       33.494 sec (=   0.558 min)  21.3 %
MP2 module                      ...      118.320 sec (=   1.972 min)  75.1 %
                             ****ORCA TERMINATED NORMALLY****
TOTAL RUN TIME: 0 days 0 hours 2 minutes 38 seconds 458 msec
