12
Energy:    -19.33980388
C    1.27823358  -0.06239229  -2.12799211
H    1.15949319   0.96986005  -2.38344469
H    0.36975862  -0.58806479  -2.33593625
H    2.07425958  -0.48353071  -2.70581918
C    1.61097399  -0.18536426  -0.62940554
N    1.85871435  -0.27692249   0.48636028
C   -1.33672116   0.10044912   2.13922274
H   -1.61172782   1.05613667   2.53410604
H   -0.31747041  -0.10870155   2.38878837
H   -1.96872964  -0.65412809   2.55883877
C   -1.49825682   0.11202120   0.60776190
N   -1.61852746   0.12063714  -0.53248031
