12
Energy:    -19.22505567
C   -2.00069859   0.88796320  -1.26457877
H   -1.56856019   1.80319135  -1.61173009
H   -3.06736303   0.95532314  -1.31545807
H   -1.66467228   0.07916797  -1.87926216
C   -1.57108135   0.63783099   0.19297497
N   -1.25121178   0.45159619   1.27818998
C    2.04139984  -0.71340622   1.25006641
H    3.11096561  -0.70278983   1.22149114
H    1.70989614  -1.48804974   1.90956001
H    1.68461690   0.23184708   1.60234644
C    1.49264195  -0.97423691  -0.16500678
N    1.08406676  -1.16843721  -1.21859309
