12
Energy:    -19.20636383
C    1.19344406   1.85259529  -1.18892508
H    1.56022013   2.85776957  -1.18850596
H    1.11660832   1.50138232  -2.19671713
H    1.86825050   1.22646944  -0.64348784
C   -0.19507257   1.81253297  -0.52408182
N   -1.22888632   1.78270474  -0.02907579
C   -1.17526030  -1.93523432   1.20555154
H   -1.65158596  -2.77851664   0.75070105
H   -1.81146588  -1.07887436   1.12315516
H   -0.99049316  -2.14422105   2.23854948
C    0.16002885  -1.65327117   0.49203934
N    1.15421232  -1.44333680  -0.03920294
