
                                 *****************
                                 * O   R   C   A *
                                 *****************

           --- An Ab Initio, DFT and Semiempirical electronic structure package ---

                  #######################################################
                  #                        -***-                        #
                  #          Department of theory and spectroscopy      #
                  #               Directorship: Frank Neese             #
                  #        Max Planck Institute fuer Kohlenforschung    #
                  #                Kaiser Wilhelm Platz 1               #
                  #                 D-45470 Muelheim/Ruhr               #
                  #                      Germany                        #
                  #                                                     #
                  #                  All rights reserved                #
                  #                        -***-                        #
                  #######################################################


                         Program Version 4.2.0 -  RELEASE  -


 With contributions from (in alphabetic order):
   Daniel Aravena         : Magnetic Suceptibility
   Michael Atanasov       : Ab Initio Ligand Field Theory (pilot matlab implementation)
   Alexander A. Auer      : GIAO ZORA, VPT2
   Ute Becker             : Parallelization
   Giovanni Bistoni       : ED, misc. LED, open-shell LED, HFLED
   Martin Brehm           : Molecular dynamics
   Dmytro Bykov           : SCF Hessian
   Vijay G. Chilkuri      : MRCI spin determinant printing, contributions to CSF-ICE
   Dipayan Datta          : RHF DLPNO-CCSD density
   Achintya Kumar Dutta   : EOM-CC, STEOM-CC
   Dmitry Ganyushin       : Spin-Orbit,Spin-Spin,Magnetic field MRCI
   Miquel Garcia          : C-PCM Hessian, Gaussian charge scheme
   Yang Guo               : DLPNO-NEVPT2, CIM, IAO-localization
   Andreas Hansen         : Spin unrestricted coupled pair/coupled cluster methods
   Benjamin Helmich-Paris : CASSCF linear response (MC-RPA)
   Lee Huntington         : MR-EOM, pCC
   Robert Izsak           : Overlap fitted RIJCOSX, COSX-SCS-MP3, EOM
   Christian Kollmar      : KDIIS, OOCD, Brueckner-CCSD(T), CCSD density
   Simone Kossmann        : Meta GGA functionals, TD-DFT gradient, OOMP2, MP2 Hessian
   Martin Krupicka        : AUTO-CI
   Lucas Lang             : DCDCAS
   Dagmar Lenk            : GEPOL surface, SMD
   Dimitrios Liakos       : Extrapolation schemes; Compound Job, initial MDCI parallelization
   Dimitrios Manganas     : Further ROCIS development; embedding schemes
   Dimitrios Pantazis     : SARC Basis sets
   Taras Petrenko         : DFT Hessian,TD-DFT gradient, ASA, ECA, R-Raman, ABS, FL, XAS/XES, NRVS
   Peter Pinski           : DLPNO-MP2, DLPNO-MP2 Gradient
   Christoph Reimann      : Effective Core Potentials
   Marius Retegan         : Local ZFS, SOC
   Christoph Riplinger    : Optimizer, TS searches, QM/MM, DLPNO-CCSD(T), (RO)-DLPNO pert. Triples
   Tobias Risthaus        : Range-separated hybrids, TD-DFT gradient, RPA, STAB
   Michael Roemelt        : Original ROCIS implementation
   Masaaki Saitow         : Open-shell DLPNO-CCSD energy and density
   Barbara Sandhoefer     : DKH picture change effects
   Avijit Sen             : IP-ROCIS
   Kantharuban Sivalingam : CASSCF convergence, NEVPT2, FIC-MRCI
   Bernardo de Souza      : ESD, SOC TD-DFT
   Georgi Stoychev        : AutoAux, RI-MP2 NMR
   Willem Van den Heuvel  : Paramagnetic NMR
   Boris Wezisla          : Elementary symmetry handling
   Frank Wennmohs         : Technical directorship


 We gratefully acknowledge several colleagues who have allowed us to
 interface, adapt or use parts of their codes:
   Stefan Grimme, W. Hujo, H. Kruse,             : VdW corrections, initial TS optimization,
                  C. Bannwarth                     DFT functionals, gCP, sTDA/sTD-DF
   Ed Valeev, F. Pavosevic, A. Kumar             : LibInt (2-el integral package), F12 methods
   Garnet Chan, S. Sharma, J. Yang, R. Olivares  : DMRG
   Ulf Ekstrom                                   : XCFun DFT Library
   Mihaly Kallay                                 : mrcc  (arbitrary order and MRCC methods)
   Andreas Klamt, Michael Diedenhofen            : otool_cosmo (COSMO solvation model)
   Jiri Pittner, Ondrej Demel                    : Mk-CCSD
   Frank Weinhold                                : gennbo (NPA and NBO analysis)
   Christopher J. Cramer and Donald G. Truhlar   : smd solvation model
   Lars Goerigk                                  : TD-DFT with DH, B97 family of functionals
   V. Asgeirsson, H. Jonsson                     : NEB implementation
   FAccTs GmbH                                   : IRC, NEB, NEB-TS, Multilevel, MM, QM/MM, CI optimization
   S Lehtola, MJT Oliveira, MAL Marques          : LibXC Library


 Your calculation uses the libint2 library for the computation of 2-el integrals
 For citations please refer to: http://libint.valeyev.net

 Your ORCA version has been built with support for libXC version: 4.2.3
 For citations please refer to: https://tddft.org/programs/libxc/

 This ORCA versions uses:
   CBLAS   interface :  Fast vector & matrix operations
   LAPACKE interface :  Fast linear algebra routines
   SCALAPACK package :  Parallel linear algebra routines


----- Orbital basis set information -----
Your calculation utilizes the basis: def2-TZVP
   F. Weigend and R. Ahlrichs, Phys. Chem. Chem. Phys. 7, 3297 (2005).

================================================================================
                                        WARNINGS
                       Please study these warnings very carefully!
================================================================================


WARNING: The frozen-core approximation for MP2-gradient calculations is turned on by default.

INFO   : the flag for use of LIBINT has been found!

================================================================================
                                       INPUT FILE
================================================================================
NAME = 12meoh.boyd.etal.mol0,3,5-orca.engrad-mp2.def2tzvp.frozencore.inp
|  1> # 12meoh.boyd.etal.mol0,3,5
|  2> ! MP2 def2-TZVP EnGrad TightSCF
|  3> 
|  4> %pal
|  5>     nprocs 6
|  6> end
|  7> 
|  8> %maxcore 8000
|  9> 
| 10> %scf
| 11>     ConvForced true
| 12> end
| 13> 
| 14> *xyz 0 1
| 15> O  -1.776108874  -2.741384797  -1.019308298
| 16> H  -2.520094035  -2.452295987  -0.420778302
| 17> C  -2.174025166  -3.952700964  -1.647004581
| 18> H  -1.359803895  -4.272673416  -2.304149236
| 19> H  -3.075973971  -3.808692420  -2.256751112
| 20> H  -2.370225393  -4.752784761  -0.918966137
| 21> O  -3.821405976  -2.118091637   0.596795346
| 22> H  -4.342989117  -1.344303030   0.251966383
| 23> C  -3.443883586  -1.809641231   1.934889393
| 24> H  -2.831494349  -2.637429600   2.305201764
| 25> H  -4.325601146  -1.719364371   2.585074667
| 26> H  -2.858527126  -0.882644791   1.996110694
| 27> O  -0.662721750   1.449094618  -1.383082065
| 28> H   0.064188300   2.119867608  -1.465650660
| 29> C  -0.353319239   0.341218776  -2.229326771
| 30> H  -1.072358530  -0.454743281  -2.019906495
| 31> H   0.657636746  -0.044472139  -2.042736771
| 32> H  -0.434616607   0.624733901  -3.287793021
| 33> *
| 34> 
| 35>                          ****END OF INPUT****
================================================================================

                     *******************************
                     * Energy+Gradient Calculation *
                     *******************************

---------------------------------
CARTESIAN COORDINATES (ANGSTROEM)
---------------------------------
  O     -1.776109   -2.741385   -1.019308
  H     -2.520094   -2.452296   -0.420778
  C     -2.174025   -3.952701   -1.647005
  H     -1.359804   -4.272673   -2.304149
  H     -3.075974   -3.808692   -2.256751
  H     -2.370225   -4.752785   -0.918966
  O     -3.821406   -2.118092    0.596795
  H     -4.342989   -1.344303    0.251966
  C     -3.443884   -1.809641    1.934889
  H     -2.831494   -2.637430    2.305202
  H     -4.325601   -1.719364    2.585075
  H     -2.858527   -0.882645    1.996111
  O     -0.662722    1.449095   -1.383082
  H      0.064188    2.119868   -1.465651
  C     -0.353319    0.341219   -2.229327
  H     -1.072359   -0.454743   -2.019906
  H      0.657637   -0.044472   -2.042737
  H     -0.434617    0.624734   -3.287793

----------------------------
CARTESIAN COORDINATES (A.U.)
----------------------------
  NO LB      ZA    FRAG     MASS         X           Y           Z
   0 O     8.0000    0    15.999   -3.356359   -5.180466   -1.926214
   1 H     1.0000    0     1.008   -4.762288   -4.634168   -0.795156
   2 C     6.0000    0    12.011   -4.108312   -7.469522   -3.112388
   3 H     1.0000    0     1.008   -2.569657   -8.074183   -4.354211
   4 H     1.0000    0     1.008   -5.812748   -7.197386   -4.264642
   5 H     1.0000    0     1.008   -4.479077   -8.981462   -1.736594
   6 O     8.0000    0    15.999   -7.221411   -4.002613    1.127780
   7 H     1.0000    0     1.008   -8.207060   -2.540365    0.476147
   8 C     6.0000    0    12.011   -6.507997   -3.419726    3.656411
   9 H     1.0000    0     1.008   -5.350749   -4.984020    4.356200
  10 H     1.0000    0     1.008   -8.174202   -3.249128    4.885083
  11 H     1.0000    0     1.008   -5.401833   -1.667957    3.772103
  12 O     8.0000    0    15.999   -1.252363    2.738392   -2.613646
  13 H     1.0000    0     1.008    0.121298    4.005969   -2.769678
  14 C     6.0000    0    12.011   -0.667677    0.644810   -4.212817
  15 H     1.0000    0     1.008   -2.026464   -0.859340   -3.817070
  16 H     1.0000    0     1.008    1.242753   -0.084040   -3.860213
  17 H     1.0000    0     1.008   -0.821306    1.180576   -6.213028

--------------------------------
INTERNAL COORDINATES (ANGSTROEM)
--------------------------------
 O      0   0   0     0.000000000000     0.00000000     0.00000000
 H      1   0   0     0.997659468941     0.00000000     0.00000000
 C      1   2   0     1.421135762539   107.64775557     0.00000000
 H      3   1   2     1.094156179795   107.82879233   180.01581697
 H      3   1   2     1.098198952673   111.31077271    61.21076131
 H      3   1   2     1.099394645811   112.19621244   299.46622341
 O      2   1   3     1.685396524398   174.53893623    24.85778125
 H      7   2   1     0.994839079963   110.47318404   227.50318855
 C      7   2   1     1.424134995894   113.92575834   106.73696509
 H      9   7   2     1.094251074279   107.60656698   305.05878422
 H      9   7   2     1.099234578054   111.15598505   186.86107742
 H      9   7   2     1.098049467343   112.12012929    64.59794661
 O      1   2   3     4.351101006525    87.81704711   152.42356646
 H     13   1   2     0.992548335239   147.69541332   144.06995974
 C     13   1   2     1.428022723045    50.04497788   200.50994768
 H     15  13   1     1.092899789636   107.99441671    19.46078141
 H     15  13   1     1.098000598188   111.79589191   260.16800768
 H     15  13   1     1.098790649094   110.77151416   138.62744864

---------------------------
INTERNAL COORDINATES (A.U.)
---------------------------
 O      0   0   0     0.000000000000     0.00000000     0.00000000
 H      1   0   0     1.885303171211     0.00000000     0.00000000
 C      1   2   0     2.685557390320   107.64775557     0.00000000
 H      3   1   2     2.067655527549   107.82879233   180.01581697
 H      3   1   2     2.075295261111   111.31077271    61.21076131
 H      3   1   2     2.077554793683   112.19621244   299.46622341
 O      2   1   3     3.184937858175   174.53893623    24.85778125
 H      7   2   1     1.879973408453   110.47318404   227.50318855
 C      7   2   1     2.691225119973   113.92575834   106.73696509
 H      9   7   2     2.067834852136   107.60656698   305.05878422
 H      9   7   2     2.077252309459   111.15598505   186.86107742
 H      9   7   2     2.075012774777   112.12012929    64.59794661
 O      1   2   3     8.222389283362    87.81704711   152.42356646
 H     13   1   2     1.875644528280   147.69541332   144.06995974
 C     13   1   2     2.698571859572    50.04497788   200.50994768
 H     15  13   1     2.065281294231   107.99441671    19.46078141
 H     15  13   1     2.074920425457   111.79589191   260.16800768
 H     15  13   1     2.076413405301   110.77151416   138.62744864

---------------------
BASIS SET INFORMATION
---------------------
There are 3 groups of distinct atoms

 Group   1 Type O   : 11s6p2d1f contracted to 5s3p2d1f pattern {62111/411/11/1}
 Group   2 Type H   : 5s1p contracted to 3s1p pattern {311/1}
 Group   3 Type C   : 11s6p2d1f contracted to 5s3p2d1f pattern {62111/411/11/1}

Atom   0O    basis set group =>   1
Atom   1H    basis set group =>   2
Atom   2C    basis set group =>   3
Atom   3H    basis set group =>   2
Atom   4H    basis set group =>   2
Atom   5H    basis set group =>   2
Atom   6O    basis set group =>   1
Atom   7H    basis set group =>   2
Atom   8C    basis set group =>   3
Atom   9H    basis set group =>   2
Atom  10H    basis set group =>   2
Atom  11H    basis set group =>   2
Atom  12O    basis set group =>   1
Atom  13H    basis set group =>   2
Atom  14C    basis set group =>   3
Atom  15H    basis set group =>   2
Atom  16H    basis set group =>   2
Atom  17H    basis set group =>   2


           ************************************************************
           *        Program running with 6 parallel MPI-processes     *
           *              working on a common directory               *
           ************************************************************
------------------------------------------------------------------------------
                           ORCA GTO INTEGRAL CALCULATION
------------------------------------------------------------------------------

                         BASIS SET STATISTICS AND STARTUP INFO

 # of primitive gaussian shells          ...  192
 # of primitive gaussian functions       ...  372
 # of contracted shells                  ...  114
 # of contracted basis functions         ...  258
 Highest angular momentum                ...    3
 Maximum contraction depth               ...    6
 Integral package used                   ... LIBINT
 Integral threshhold            Thresh   ...  2.500e-11
 Primitive cut-off              TCut     ...  2.500e-12


------------------------------ INTEGRAL EVALUATION ----------------------------


 * One electron integrals 
 Pre-screening matrix                    ... done
 Shell pair data                         ... done (   0.002 sec)



           ************************************************************
           *        Program running with 6 parallel MPI-processes     *
           *              working on a common directory               *
           ************************************************************
-------------------------------------------------------------------------------
                                 ORCA SCF
-------------------------------------------------------------------------------

------------
SCF SETTINGS
------------
Hamiltonian:
 Ab initio Hamiltonian  Method          .... Hartree-Fock(GTOs)


General Settings:
 Integral files         IntName         .... 12meoh.boyd.etal.mol0,3,5-orca.engrad-mp2.def2tzvp.frozencore
 Hartree-Fock type      HFTyp           .... RHF
 Total Charge           Charge          ....    0
 Multiplicity           Mult            ....    1
 Number of Electrons    NEL             ....   54
 Basis Dimension        Dim             ....  258
 Nuclear Repulsion      ENuc            ....    240.6244083158 Eh

Convergence Acceleration:
 DIIS                   CNVDIIS         .... on
   Start iteration      DIISMaxIt       ....    12
   Startup error        DIISStart       ....  0.200000
   # of expansion vecs  DIISMaxEq       ....     5
   Bias factor          DIISBfac        ....   1.050
   Max. coefficient     DIISMaxC        ....  10.000
 Newton-Raphson         CNVNR           .... off
 SOSCF                  CNVSOSCF        .... on
   Start iteration      SOSCFMaxIt      ....   150
   Startup grad/error   SOSCFStart      ....  0.003300
 Level Shifting         CNVShift        .... on
   Level shift para.    LevelShift      ....    0.2500
   Turn off err/grad.   ShiftErr        ....    0.0010
 Zerner damping         CNVZerner       .... off
 Static damping         CNVDamp         .... on
   Fraction old density DampFac         ....    0.7000
   Max. Damping (<1)    DampMax         ....    0.9800
   Min. Damping (>=0)   DampMin         ....    0.0000
   Turn off err/grad.   DampErr         ....    0.1000
 Fernandez-Rico         CNVRico         .... off

SCF Procedure:
 Maximum # iterations   MaxIter         ....   125
 SCF integral mode      SCFMode         .... Direct
   Integral package                     .... LIBINT
 Reset frequency        DirectResetFreq ....    20
 Integral Threshold     Thresh          ....  2.500e-11 Eh
 Primitive CutOff       TCut            ....  2.500e-12 Eh

Convergence Tolerance:
 Convergence Check Mode ConvCheckMode   .... Total+1el-Energy
 Convergence forced     ConvForced      .... 1
 Energy Change          TolE            ....  1.000e-08 Eh
 1-El. energy change                    ....  1.000e-05 Eh
 Orbital Gradient       TolG            ....  1.000e-05
 Orbital Rotation angle TolX            ....  1.000e-05
 DIIS Error             TolErr          ....  5.000e-07


Diagonalization of the overlap matrix:
Smallest eigenvalue                        ... 1.200e-03
Time for diagonalization                   ...    0.013 sec
Threshold for overlap eigenvalues          ... 1.000e-08
Number of eigenvalues below threshold      ... 0
Time for construction of square roots      ...    0.006 sec
Total time needed                          ...    0.019 sec

-------------------
DFT GRID GENERATION
-------------------

General Integration Accuracy     IntAcc      ...  4.340
Radial Grid Type                 RadialGrid  ... Gauss-Chebyshev
Angular Grid (max. acc.)         AngularGrid ... Lebedev-110
Angular grid pruning method      GridPruning ... 3 (G Style)
Weight generation scheme         WeightScheme... Becke
Basis function cutoff            BFCut       ...    1.0000e-11
Integration weight cutoff        WCut        ...    1.0000e-14
Grids for H and He will be reduced by one unit

# of grid points (after initial pruning)     ...  19644 (   0.0 sec)
# of grid points (after weights+screening)   ...  18540 (   0.0 sec)
nearest neighbour list constructed           ...    0.0 sec
Grid point re-assignment to atoms done       ...    0.0 sec
Grid point division into batches done        ...    0.0 sec
Reduced shell lists constructed in    0.0 sec

Total number of grid points                  ...    18540
Total number of batches                      ...      298
Average number of points per batch           ...       62
Average number of grid points per atom       ...     1030
Average number of shells per batch           ...    74.98 (65.77%)
Average number of basis functions per batch  ...   167.61 (64.96%)
Average number of large shells per batch     ...    58.35 (77.82%)
Average number of large basis fcns per batch ...   129.29 (77.14%)
Maximum spatial batch extension              ...  18.52, 15.37, 14.47 au
Average spatial batch extension              ...   0.47,  0.44,  0.46 au

Time for grid setup =    0.058 sec

------------------------------
INITIAL GUESS: MODEL POTENTIAL
------------------------------
Loading Hartree-Fock densities                     ... done
Calculating cut-offs                               ... done
Setting up the integral package                    ... done
Initializing the effective Hamiltonian             ... done
Starting the Coulomb interaction                   ... done (   0.0 sec)
Reading the grid                                   ... done
Mapping shells                                     ... done
Starting the XC term evaluation                    ... done (   0.0 sec)
Transforming the Hamiltonian                       ... done (   0.0 sec)
Diagonalizing the Hamiltonian                      ... done (   0.0 sec)
Back transforming the eigenvectors                 ... done (   0.0 sec)
Now organizing SCF variables                       ... done
                      ------------------
                      INITIAL GUESS DONE (   0.3 sec)
                      ------------------
--------------
SCF ITERATIONS
--------------
ITER       Energy         Delta-E        Max-DP      RMS-DP      [F,P]     Damp
               ***  Starting incremental Fock matrix formation  ***
  0   -344.9302671072   0.000000000000 0.03644086  0.00077035  0.2924927 0.7000
  1   -345.0540636122  -0.123796504988 0.02481142  0.00057658  0.2186809 0.7000
                               ***Turning on DIIS***
  2   -345.1263075402  -0.072243927968 0.01439457  0.00035940  0.1628241 0.7000
  3   -346.0046333573  -0.878325817144 0.00756980  0.00020369  0.1199753 0.7000
  4   -345.8559717120   0.148661645296 0.01616173  0.00048964  0.0845451 0.0000
  5   -345.3028070181   0.553164693948 0.00183135  0.00006709  0.0053507 0.0000
                      *** Initiating the SOSCF procedure ***
                           *** Shutting down DIIS ***
                      *** Re-Reading the Fockian *** 
                      *** Removing any level shift *** 
ITER      Energy       Delta-E        Grad      Rot      Max-DP    RMS-DP
  6   -345.27997107   0.0228359515  0.000636  0.000636  0.000993  0.000035
               *** Restarting incremental Fock matrix formation ***
  7   -345.27431169   0.0056593785  0.000328  0.000414  0.000580  0.000019
  8   -345.27431890  -0.0000072120  0.000140  0.000299  0.000426  0.000014
  9   -345.27432065  -0.0000017488  0.000029  0.000026  0.000068  0.000002
 10   -345.27432071  -0.0000000611  0.000005  0.000011  0.000019  0.000001
                  ***Gradient check signals convergence***
              ***Rediagonalizing the Fockian in SOSCF/NRSCF***

               *****************************************************
               *                     SUCCESS                       *
               *           SCF CONVERGED AFTER  11 CYCLES          *
               *****************************************************


----------------
TOTAL SCF ENERGY
----------------

Total Energy       :         -345.27432071 Eh           -9395.39192 eV

Components:
Nuclear Repulsion  :          240.62440832 Eh            6547.72303 eV
Electronic Energy  :         -585.89872903 Eh          -15943.11495 eV
One Electron Energy:         -950.52157295 Eh          -25865.00695 eV
Two Electron Energy:          364.62284391 Eh            9921.89200 eV

Virial components:
Potential Energy   :         -689.95722553 Eh          -18774.69059 eV
Kinetic Energy     :          344.68290482 Eh            9379.29867 eV
Virial Ratio       :            2.00171583


---------------
SCF CONVERGENCE
---------------

  Last Energy change         ...   -4.9525e-09  Tolerance :   1.0000e-08
  Last MAX-Density change    ...    5.5541e-06  Tolerance :   1.0000e-07
  Last RMS-Density change    ...    1.6890e-07  Tolerance :   5.0000e-09
  Last Orbital Gradient      ...    1.9561e-06  Tolerance :   1.0000e-05
  Last Orbital Rotation      ...    4.9661e-06  Tolerance :   1.0000e-05

             **** THE GBW FILE WAS UPDATED (12meoh.boyd.etal.mol0,3,5-orca.engrad-mp2.def2tzvp.frozencore.gbw) ****
             **** DENSITY FILE WAS UPDATED (12meoh.boyd.etal.mol0,3,5-orca.engrad-mp2.def2tzvp.frozencore.scfp) ****
             **** ENERGY FILE WAS UPDATED (12meoh.boyd.etal.mol0,3,5-orca.engrad-mp2.def2tzvp.frozencore.en.tmp) ****
             **** THE GBW FILE WAS UPDATED (12meoh.boyd.etal.mol0,3,5-orca.engrad-mp2.def2tzvp.frozencore.gbw) ****
             **** DENSITY FILE WAS UPDATED (12meoh.boyd.etal.mol0,3,5-orca.engrad-mp2.def2tzvp.frozencore.scfp) ****
----------------
ORBITAL ENERGIES
----------------

  NO   OCC          E(Eh)            E(eV) 
   0   2.0000     -20.589269      -560.2625 
   1   2.0000     -20.544711      -559.0500 
   2   2.0000     -20.515858      -558.2649 
   3   2.0000     -11.287370      -307.1449 
   4   2.0000     -11.251896      -306.1797 
   5   2.0000     -11.249215      -306.1067 
   6   2.0000      -1.382531       -37.6206 
   7   2.0000      -1.332567       -36.2610 
   8   2.0000      -1.312888       -35.7255 
   9   2.0000      -0.939192       -25.5567 
  10   2.0000      -0.902413       -24.5559 
  11   2.0000      -0.895557       -24.3693 
  12   2.0000      -0.714717       -19.4484 
  13   2.0000      -0.673519       -18.3274 
  14   2.0000      -0.667005       -18.1501 
  15   2.0000      -0.633048       -17.2261 
  16   2.0000      -0.608024       -16.5452 
  17   2.0000      -0.600909       -16.3516 
  18   2.0000      -0.592067       -16.1110 
  19   2.0000      -0.575584       -15.6624 
  20   2.0000      -0.561298       -15.2737 
  21   2.0000      -0.526933       -14.3386 
  22   2.0000      -0.489501       -13.3200 
  23   2.0000      -0.483091       -13.1456 
  24   2.0000      -0.455705       -12.4004 
  25   2.0000      -0.435498       -11.8505 
  26   2.0000      -0.417602       -11.3635 
  27   0.0000       0.119076         3.2402 
  28   0.0000       0.146368         3.9829 
  29   0.0000       0.163332         4.4445 
  30   0.0000       0.171203         4.6587 
  31   0.0000       0.195639         5.3236 
  32   0.0000       0.212282         5.7765 
  33   0.0000       0.215681         5.8690 
  34   0.0000       0.237053         6.4505 
  35   0.0000       0.238567         6.4917 
  36   0.0000       0.240289         6.5386 
  37   0.0000       0.248514         6.7624 
  38   0.0000       0.265619         7.2279 
  39   0.0000       0.271656         7.3921 
  40   0.0000       0.295488         8.0406 
  41   0.0000       0.317522         8.6402 
  42   0.0000       0.324910         8.8412 
  43   0.0000       0.340152         9.2560 
  44   0.0000       0.358886         9.7658 
  45   0.0000       0.373081        10.1520 
  46   0.0000       0.388715        10.5775 
  47   0.0000       0.442039        12.0285 
  48   0.0000       0.460477        12.5302 
  49   0.0000       0.482430        13.1276 
  50   0.0000       0.497700        13.5431 
  51   0.0000       0.528018        14.3681 
  52   0.0000       0.546073        14.8594 
  53   0.0000       0.559067        15.2130 
  54   0.0000       0.574314        15.6279 
  55   0.0000       0.587052        15.9745 
  56   0.0000       0.595126        16.1942 
  57   0.0000       0.618419        16.8280 
  58   0.0000       0.629292        17.1239 
  59   0.0000       0.635162        17.2836 
  60   0.0000       0.643597        17.5132 
  61   0.0000       0.651561        17.7299 
  62   0.0000       0.665622        18.1125 
  63   0.0000       0.671301        18.2670 
  64   0.0000       0.685762        18.6605 
  65   0.0000       0.694104        18.8875 
  66   0.0000       0.703508        19.1434 
  67   0.0000       0.711645        19.3649 
  68   0.0000       0.739346        20.1186 
  69   0.0000       0.757664        20.6171 
  70   0.0000       0.769161        20.9299 
  71   0.0000       0.779204        21.2032 
  72   0.0000       0.809502        22.0277 
  73   0.0000       0.844369        22.9764 
  74   0.0000       0.884927        24.0801 
  75   0.0000       0.893346        24.3092 
  76   0.0000       0.899567        24.4785 
  77   0.0000       0.926441        25.2097 
  78   0.0000       0.939092        25.5540 
  79   0.0000       0.944910        25.7123 
  80   0.0000       0.982185        26.7266 
  81   0.0000       1.011826        27.5332 
  82   0.0000       1.028178        27.9781 
  83   0.0000       1.065036        28.9811 
  84   0.0000       1.103499        30.0277 
  85   0.0000       1.115343        30.3500 
  86   0.0000       1.134238        30.8642 
  87   0.0000       1.146509        31.1981 
  88   0.0000       1.156888        31.4805 
  89   0.0000       1.216075        33.0911 
  90   0.0000       1.240191        33.7473 
  91   0.0000       1.269711        34.5506 
  92   0.0000       1.285160        34.9710 
  93   0.0000       1.548474        42.1361 
  94   0.0000       1.574967        42.8570 
  95   0.0000       1.596099        43.4321 
  96   0.0000       1.654495        45.0211 
  97   0.0000       1.676377        45.6165 
  98   0.0000       1.697482        46.1908 
  99   0.0000       1.702526        46.3281 
 100   0.0000       1.733093        47.1599 
 101   0.0000       1.752249        47.6811 
 102   0.0000       1.778217        48.3877 
 103   0.0000       1.779839        48.4319 
 104   0.0000       1.786889        48.6237 
 105   0.0000       1.804450        49.1016 
 106   0.0000       1.808460        49.2107 
 107   0.0000       1.813075        49.3363 
 108   0.0000       1.814295        49.3695 
 109   0.0000       1.825167        49.6653 
 110   0.0000       1.842096        50.1260 
 111   0.0000       1.849207        50.3195 
 112   0.0000       1.862397        50.6784 
 113   0.0000       1.871625        50.9295 
 114   0.0000       1.878603        51.1194 
 115   0.0000       1.899671        51.6927 
 116   0.0000       1.962163        53.3932 
 117   0.0000       1.981090        53.9082 
 118   0.0000       1.990350        54.1602 
 119   0.0000       2.097623        57.0792 
 120   0.0000       2.152618        58.5757 
 121   0.0000       2.165840        58.9355 
 122   0.0000       2.192091        59.6498 
 123   0.0000       2.215433        60.2850 
 124   0.0000       2.223125        60.4943 
 125   0.0000       2.245506        61.1033 
 126   0.0000       2.262929        61.5774 
 127   0.0000       2.274378        61.8890 
 128   0.0000       2.284658        62.1687 
 129   0.0000       2.297006        62.5047 
 130   0.0000       2.313716        62.9594 
 131   0.0000       2.322771        63.2058 
 132   0.0000       2.341365        63.7118 
 133   0.0000       2.362334        64.2824 
 134   0.0000       2.394264        65.1512 
 135   0.0000       2.438330        66.3503 
 136   0.0000       2.468672        67.1760 
 137   0.0000       2.514523        68.4236 
 138   0.0000       2.543489        69.2118 
 139   0.0000       2.553372        69.4808 
 140   0.0000       2.562287        69.7234 
 141   0.0000       2.580408        70.2165 
 142   0.0000       2.593396        70.5699 
 143   0.0000       2.608409        70.9784 
 144   0.0000       2.617650        71.2299 
 145   0.0000       2.624498        71.4162 
 146   0.0000       2.631774        71.6142 
 147   0.0000       2.648256        72.0627 
 148   0.0000       2.685140        73.0664 
 149   0.0000       2.686457        73.1022 
 150   0.0000       2.721728        74.0620 
 151   0.0000       2.738262        74.5119 
 152   0.0000       2.753545        74.9278 
 153   0.0000       2.801060        76.2207 
 154   0.0000       2.808008        76.4098 
 155   0.0000       2.823610        76.8343 
 156   0.0000       2.845492        77.4298 
 157   0.0000       2.865856        77.9839 
 158   0.0000       2.867634        78.0323 
 159   0.0000       2.890949        78.6667 
 160   0.0000       2.923959        79.5650 
 161   0.0000       2.955068        80.4115 
 162   0.0000       3.048573        82.9559 
 163   0.0000       3.073849        83.6437 
 164   0.0000       3.078887        83.7808 
 165   0.0000       3.122805        84.9758 
 166   0.0000       3.127785        85.1113 
 167   0.0000       3.128019        85.1177 
 168   0.0000       3.170242        86.2667 
 169   0.0000       3.201439        87.1156 
 170   0.0000       3.213900        87.4547 
 171   0.0000       3.264972        88.8444 
 172   0.0000       3.336380        90.7875 
 173   0.0000       3.344889        91.0191 
 174   0.0000       3.374361        91.8210 
 175   0.0000       3.413616        92.8892 
 176   0.0000       3.431348        93.3717 
 177   0.0000       3.442598        93.6778 
 178   0.0000       3.470748        94.4438 
 179   0.0000       3.494309        95.0850 
 180   0.0000       3.543907        96.4346 
 181   0.0000       3.571115        97.1750 
 182   0.0000       3.584054        97.5271 
 183   0.0000       3.625617        98.6581 
 184   0.0000       3.655498        99.4712 
 185   0.0000       3.659957        99.5925 
 186   0.0000       3.678389       100.0941 
 187   0.0000       3.689036       100.3838 
 188   0.0000       3.720532       101.2408 
 189   0.0000       3.742344       101.8343 
 190   0.0000       3.753259       102.1314 
 191   0.0000       3.774108       102.6987 
 192   0.0000       3.849889       104.7608 
 193   0.0000       3.872399       105.3733 
 194   0.0000       3.880193       105.5854 
 195   0.0000       3.890814       105.8744 
 196   0.0000       3.905547       106.2753 
 197   0.0000       3.910061       106.3982 
 198   0.0000       3.916757       106.5804 
 199   0.0000       3.946960       107.4022 
 200   0.0000       3.952981       107.5661 
 201   0.0000       4.222865       114.9100 
 202   0.0000       4.266093       116.0863 
 203   0.0000       4.413098       120.0865 
 204   0.0000       4.505133       122.5909 
 205   0.0000       4.519753       122.9887 
 206   0.0000       4.528051       123.2145 
 207   0.0000       4.558324       124.0383 
 208   0.0000       4.575294       124.5001 
 209   0.0000       4.601710       125.2189 
 210   0.0000       4.709760       128.1591 
 211   0.0000       4.739945       128.9805 
 212   0.0000       4.749134       129.2305 
 213   0.0000       4.876624       132.6997 
 214   0.0000       4.886902       132.9794 
 215   0.0000       4.923944       133.9873 
 216   0.0000       5.690521       154.8470 
 217   0.0000       5.702595       155.1755 
 218   0.0000       5.735007       156.0575 
 219   0.0000       5.763536       156.8338 
 220   0.0000       5.776250       157.1797 
 221   0.0000       5.820154       158.3744 
 222   0.0000       5.850757       159.2072 
 223   0.0000       5.893350       160.3662 
 224   0.0000       5.927758       161.3025 
 225   0.0000       6.131597       166.8492 
 226   0.0000       6.144903       167.2113 
 227   0.0000       6.177364       168.0946 
 228   0.0000       6.179787       168.1606 
 229   0.0000       6.211458       169.0224 
 230   0.0000       6.215908       169.1434 
 231   0.0000       6.301714       171.4783 
 232   0.0000       6.327446       172.1786 
 233   0.0000       6.373498       173.4317 
 234   0.0000       6.618400       180.0958 
 235   0.0000       6.680121       181.7753 
 236   0.0000       6.761706       183.9954 
 237   0.0000       6.959925       189.3892 
 238   0.0000       6.979512       189.9222 
 239   0.0000       7.079252       192.6362 
 240   0.0000       7.140635       194.3066 
 241   0.0000       7.164365       194.9523 
 242   0.0000       7.218420       196.4232 
 243   0.0000       7.229308       196.7195 
 244   0.0000       7.261492       197.5952 
 245   0.0000       7.280167       198.1034 
 246   0.0000       7.463086       203.0809 
 247   0.0000       7.474428       203.3895 
 248   0.0000       7.538549       205.1343 
 249   0.0000       7.603135       206.8918 
 250   0.0000       7.607600       207.0133 
 251   0.0000       7.764307       211.2775 
 252   0.0000      23.366652       635.8389 
 253   0.0000      23.375139       636.0699 
 254   0.0000      23.408142       636.9679 
 255   0.0000      45.172857      1229.2159 
 256   0.0000      45.189785      1229.6766 
 257   0.0000      45.313981      1233.0561 

                    ********************************
                    * MULLIKEN POPULATION ANALYSIS *
                    ********************************

-----------------------
MULLIKEN ATOMIC CHARGES
-----------------------
   0 O :   -0.597421
   1 H :    0.377373
   2 C :   -0.056962
   3 H :    0.096295
   4 H :    0.077600
   5 H :    0.080051
   6 O :   -0.571613
   7 H :    0.352525
   8 C :   -0.095435
   9 H :    0.122042
  10 H :    0.105266
  11 H :    0.120985
  12 O :   -0.559924
  13 H :    0.325764
  14 C :   -0.080953
  15 H :    0.140122
  16 H :    0.085518
  17 H :    0.078768
Sum of atomic charges:    0.0000000

--------------------------------
MULLIKEN REDUCED ORBITAL CHARGES
--------------------------------
  0 O s       :     3.806501  s :     3.806501
      pz      :     1.654958  p :     4.757980
      px      :     1.631751
      py      :     1.471271
      dz2     :     0.002569  d :     0.031282
      dxz     :     0.008777
      dyz     :     0.004659
      dx2y2   :     0.007913
      dxy     :     0.007363
      f0      :     0.000279  f :     0.001657
      f+1     :     0.000111
      f-1     :     0.000210
      f+2     :     0.000448
      f-2     :     0.000311
      f+3     :     0.000152
      f-3     :     0.000146
  1 H s       :     0.565555  s :     0.565555
      pz      :     0.021119  p :     0.057072
      px      :     0.023884
      py      :     0.012070
  2 C s       :     3.180026  s :     3.180026
      pz      :     0.962251  p :     2.749465
      px      :     1.010345
      py      :     0.776869
      dz2     :     0.013210  d :     0.118351
      dxz     :     0.027298
      dyz     :     0.030008
      dx2y2   :     0.026149
      dxy     :     0.021686
      f0      :     0.000487  f :     0.009120
      f+1     :     0.000245
      f-1     :     0.002097
      f+2     :     0.002341
      f-2     :     0.001502
      f+3     :     0.001149
      f-3     :     0.001300
  3 H s       :     0.882874  s :     0.882874
      pz      :     0.007513  p :     0.020831
      px      :     0.009621
      py      :     0.003697
  4 H s       :     0.902341  s :     0.902341
      pz      :     0.006805  p :     0.020060
      px      :     0.010713
      py      :     0.002541
  5 H s       :     0.899875  s :     0.899875
      pz      :     0.007631  p :     0.020074
      px      :     0.003662
      py      :     0.008781
  6 O s       :     3.798751  s :     3.798751
      pz      :     1.397464  p :     4.739277
      px      :     1.745455
      py      :     1.596357
      dz2     :     0.009618  d :     0.031936
      dxz     :     0.004612
      dyz     :     0.008080
      dx2y2   :     0.002817
      dxy     :     0.006808
      f0      :     0.000378  f :     0.001650
      f+1     :     0.000338
      f-1     :     0.000183
      f+2     :     0.000079
      f-2     :     0.000263
      f+3     :     0.000348
      f-3     :     0.000061
  7 H s       :     0.605595  s :     0.605595
      pz      :     0.010766  p :     0.041880
      px      :     0.015131
      py      :     0.015984
  8 C s       :     3.200904  s :     3.200904
      pz      :     0.694070  p :     2.775634
      px      :     1.026460
      py      :     1.055103
      dz2     :     0.024721  d :     0.109935
      dxz     :     0.034812
      dyz     :     0.023631
      dx2y2   :     0.007477
      dxy     :     0.019293
      f0      :     0.002530  f :     0.008963
      f+1     :     0.002045
      f-1     :     0.001756
      f+2     :     0.000759
      f-2     :     0.000796
      f+3     :     0.001029
      f-3     :     0.000048
  9 H s       :     0.856644  s :     0.856644
      pz      :     0.003896  p :     0.021314
      px      :     0.007366
      py      :     0.010052
 10 H s       :     0.874230  s :     0.874230
      pz      :     0.006760  p :     0.020504
      px      :     0.010259
      py      :     0.003485
 11 H s       :     0.858581  s :     0.858581
      pz      :     0.002058  p :     0.020434
      px      :     0.006866
      py      :     0.011510
 12 O s       :     3.802249  s :     3.802249
      pz      :     1.738142  p :     4.724056
      px      :     1.612504
      py      :     1.373409
      dz2     :     0.005397  d :     0.031900
      dxz     :     0.003662
      dyz     :     0.007471
      dx2y2   :     0.003390
      dxy     :     0.011982
      f0      :     0.000198  f :     0.001719
      f+1     :     0.000163
      f-1     :     0.000323
      f+2     :     0.000274
      f-2     :     0.000190
      f+3     :     0.000218
      f-3     :     0.000352
 13 H s       :     0.631309  s :     0.631309
      pz      :     0.012212  p :     0.042927
      px      :     0.015444
      py      :     0.015271
 14 C s       :     3.195207  s :     3.195207
      pz      :     0.889101  p :     2.764234
      px      :     1.052786
      py      :     0.822346
      dz2     :     0.037768  d :     0.112666
      dxz     :     0.006543
      dyz     :     0.018133
      dx2y2   :     0.017382
      dxy     :     0.032840
      f0      :     0.001284  f :     0.008847
      f+1     :     0.000402
      f-1     :     0.002505
      f+2     :     0.001025
      f-2     :     0.001275
      f+3     :     0.001208
      f-3     :     0.001147
 15 H s       :     0.837927  s :     0.837927
      pz      :     0.003406  p :     0.021951
      px      :     0.008288
      py      :     0.010257
 16 H s       :     0.894253  s :     0.894253
      pz      :     0.003168  p :     0.020229
      px      :     0.012740
      py      :     0.004321
 17 H s       :     0.901190  s :     0.901190
      pz      :     0.013556  p :     0.020042
      px      :     0.003494
      py      :     0.002992


                     *******************************
                     * LOEWDIN POPULATION ANALYSIS *
                     *******************************

----------------------
LOEWDIN ATOMIC CHARGES
----------------------
   0 O :   -0.144787
   1 H :    0.168293
   2 C :   -0.349740
   3 H :    0.095464
   4 H :    0.084008
   5 H :    0.086084
   6 O :   -0.101396
   7 H :    0.200459
   8 C :   -0.327372
   9 H :    0.107051
  10 H :    0.095526
  11 H :    0.097924
  12 O :   -0.140546
  13 H :    0.184690
  14 C :   -0.333921
  15 H :    0.106050
  16 H :    0.088295
  17 H :    0.083918

-------------------------------
LOEWDIN REDUCED ORBITAL CHARGES
-------------------------------
  0 O s       :     3.384909  s :     3.384909
      pz      :     1.590886  p :     4.690884
      px      :     1.600379
      py      :     1.499619
      dz2     :     0.006892  d :     0.065054
      dxz     :     0.014024
      dyz     :     0.014061
      dx2y2   :     0.014412
      dxy     :     0.015665
      f0      :     0.000439  f :     0.003940
      f+1     :     0.000194
      f-1     :     0.000618
      f+2     :     0.000878
      f-2     :     0.000577
      f+3     :     0.000603
      f-3     :     0.000631
  1 H s       :     0.644395  s :     0.644395
      pz      :     0.066165  p :     0.187312
      px      :     0.086378
      py      :     0.034769
  2 C s       :     2.860159  s :     2.860159
      pz      :     1.028539  p :     2.997596
      px      :     1.070446
      py      :     0.898611
      dz2     :     0.042834  d :     0.433741
      dxz     :     0.094169
      dyz     :     0.113737
      dx2y2   :     0.104099
      dxy     :     0.078902
      f0      :     0.005944  f :     0.058244
      f+1     :     0.002338
      f-1     :     0.014375
      f+2     :     0.007818
      f-2     :     0.007576
      f+3     :     0.010150
      f-3     :     0.010044
  3 H s       :     0.846553  s :     0.846553
      pz      :     0.020637  p :     0.057983
      px      :     0.026431
      py      :     0.010915
  4 H s       :     0.858025  s :     0.858025
      pz      :     0.019755  p :     0.057967
      px      :     0.029159
      py      :     0.009054
  5 H s       :     0.855985  s :     0.855985
      pz      :     0.021980  p :     0.057931
      px      :     0.012534
      py      :     0.023417
  6 O s       :     3.385124  s :     3.385124
      pz      :     1.430065  p :     4.643145
      px      :     1.647345
      py      :     1.565735
      dz2     :     0.019765  d :     0.068940
      dxz     :     0.015423
      dyz     :     0.019617
      dx2y2   :     0.003311
      dxy     :     0.010823
      f0      :     0.001061  f :     0.004187
      f+1     :     0.000887
      f-1     :     0.000834
      f+2     :     0.000327
      f-2     :     0.000502
      f+3     :     0.000545
      f-3     :     0.000031
  7 H s       :     0.654553  s :     0.654553
      pz      :     0.030393  p :     0.144988
      px      :     0.049847
      py      :     0.064748
  8 C s       :     2.861659  s :     2.861659
      pz      :     0.831937  p :     2.992265
      px      :     1.070088
      py      :     1.090240
      dz2     :     0.118922  d :     0.416037
      dxz     :     0.124803
      dyz     :     0.086921
      dx2y2   :     0.021068
      dxy     :     0.064322
      f0      :     0.017054  f :     0.057411
      f+1     :     0.011327
      f-1     :     0.014197
      f+2     :     0.006803
      f-2     :     0.004498
      f+3     :     0.002953
      f-3     :     0.000579
  9 H s       :     0.833524  s :     0.833524
      pz      :     0.010861  p :     0.059426
      px      :     0.020749
      py      :     0.027816
 10 H s       :     0.845567  s :     0.845567
      pz      :     0.018194  p :     0.058908
      px      :     0.028446
      py      :     0.012268
 11 H s       :     0.842370  s :     0.842370
      pz      :     0.007661  p :     0.059706
      px      :     0.020498
      py      :     0.031547
 12 O s       :     3.395323  s :     3.395323
      pz      :     1.700340  p :     4.673116
      px      :     1.588827
      py      :     1.383950
      dz2     :     0.013845  d :     0.068048
      dxz     :     0.005523
      dyz     :     0.014868
      dx2y2   :     0.008694
      dxy     :     0.025117
      f0      :     0.000349  f :     0.004059
      f+1     :     0.000356
      f-1     :     0.000809
      f+2     :     0.000608
      f-2     :     0.000612
      f+3     :     0.000432
      f-3     :     0.000893
 13 H s       :     0.670110  s :     0.670110
      pz      :     0.035933  p :     0.145199
      px      :     0.061603
      py      :     0.047664
 14 C s       :     2.863539  s :     2.863539
      pz      :     0.985911  p :     2.997098
      px      :     1.089625
      py      :     0.921562
      dz2     :     0.139202  d :     0.416607
      dxz     :     0.024813
      dyz     :     0.083721
      dx2y2   :     0.058247
      dxy     :     0.110623
      f0      :     0.004826  f :     0.056677
      f+1     :     0.003171
      f-1     :     0.015083
      f+2     :     0.010061
      f-2     :     0.010610
      f+3     :     0.007154
      f-3     :     0.005771
 15 H s       :     0.831686  s :     0.831686
      pz      :     0.011322  p :     0.062264
      px      :     0.024494
      py      :     0.026447
 16 H s       :     0.853086  s :     0.853086
      pz      :     0.010975  p :     0.058618
      px      :     0.033964
      py      :     0.013679
 17 H s       :     0.857927  s :     0.857927
      pz      :     0.035084  p :     0.058155
      px      :     0.012379
      py      :     0.010693


                      *****************************
                      * MAYER POPULATION ANALYSIS *
                      *****************************

  NA   - Mulliken gross atomic population
  ZA   - Total nuclear charge
  QA   - Mulliken gross atomic charge
  VA   - Mayer's total valence
  BVA  - Mayer's bonded valence
  FA   - Mayer's free valence

  ATOM       NA         ZA         QA         VA         BVA        FA
  0 O      8.5974     8.0000    -0.5974     1.7324     1.7324     0.0000
  1 H      0.6226     1.0000     0.3774     0.8887     0.8887    -0.0000
  2 C      6.0570     6.0000    -0.0570     3.9156     3.9156    -0.0000
  3 H      0.9037     1.0000     0.0963     0.9629     0.9629     0.0000
  4 H      0.9224     1.0000     0.0776     0.9649     0.9649    -0.0000
  5 H      0.9199     1.0000     0.0801     0.9621     0.9621    -0.0000
  6 O      8.5716     8.0000    -0.5716     1.7817     1.7817     0.0000
  7 H      0.6475     1.0000     0.3525     0.8824     0.8824    -0.0000
  8 C      6.0954     6.0000    -0.0954     3.8456     3.8456    -0.0000
  9 H      0.8780     1.0000     0.1220     0.9682     0.9682     0.0000
 10 H      0.8947     1.0000     0.1053     0.9637     0.9637    -0.0000
 11 H      0.8790     1.0000     0.1210     0.9628     0.9628    -0.0000
 12 O      8.5599     8.0000    -0.5599     1.7796     1.7796    -0.0000
 13 H      0.6742     1.0000     0.3258     0.9007     0.9007    -0.0000
 14 C      6.0810     6.0000    -0.0810     3.8727     3.8727     0.0000
 15 H      0.8599     1.0000     0.1401     0.9725     0.9725     0.0000
 16 H      0.9145     1.0000     0.0855     0.9666     0.9666     0.0000
 17 H      0.9212     1.0000     0.0788     0.9607     0.9607     0.0000

  Mayer bond orders larger than 0.100000
B(  0-O ,  1-H ) :   0.8168 B(  0-O ,  2-C ) :   0.9465 B(  2-C ,  3-H ) :   0.9877 
B(  2-C ,  4-H ) :   0.9926 B(  2-C ,  5-H ) :   0.9852 B(  6-O ,  7-H ) :   0.8707 
B(  6-O ,  8-C ) :   0.8840 B(  8-C ,  9-H ) :   0.9845 B(  8-C , 10-H ) :   0.9822 
B(  8-C , 11-H ) :   0.9865 B( 12-O , 13-H ) :   0.8911 B( 12-O , 14-C ) :   0.9214 
B( 14-C , 15-H ) :   0.9741 B( 14-C , 16-H ) :   0.9919 B( 14-C , 17-H ) :   0.9887 


-------
TIMINGS
-------

Total SCF time: 0 days 0 hours 0 min 18 sec 

Total time                  ....      18.724 sec
Sum of individual times     ....      18.339 sec  ( 97.9%)

Fock matrix formation       ....      17.814 sec  ( 95.1%)
Diagonalization             ....       0.145 sec  (  0.8%)
Density matrix formation    ....       0.009 sec  (  0.0%)
Population analysis         ....       0.025 sec  (  0.1%)
Initial guess               ....       0.203 sec  (  1.1%)
Orbital Transformation      ....       0.000 sec  (  0.0%)
Orbital Orthonormalization  ....       0.000 sec  (  0.0%)
DIIS solution               ....       0.047 sec  (  0.3%)
SOSCF solution              ....       0.037 sec  (  0.2%)


           ************************************************************
           *        Program running with 6 parallel MPI-processes     *
           *              working on a common directory               *
           ************************************************************

------------------------------------------------------------------------------
                                ORCA  MP2 
------------------------------------------------------------------------------

Freezing NCore=12 chemical core electrons
MP2 will be done in the AO integral direct mode
The Q1-step will be done using symmetric double matrices
Dimension of the basis                    ...  258
Memory devoted for MP2                    ... 8000 MB   
Memory needed for all in one shot         ...  264 MB
Number of MOs that can be treated together...  120      
MP2 density construction                  ... relaxed
The MP2 gradient is requested => amplitudes will be stored on disk
Total number of MOs              ...   21
Number of MOs treated per batch  ...    4 
Number of batches necessary      ...    1 
OPERATORS   0/  0 PASS   0
-----------------------------------------------
 MP2 CORRELATION ENERGY   :     -1.258411766 Eh
-----------------------------------------------


---------------------
MP2 DENSITY FORMATION
---------------------

Completing the external part of the density      ... done
Storing the unrelaxed density                    ... done

Calculating G(D)                                 ... done
Completing the Lagrangian                        ... done
Solving the Z-vector equations                   ... 

------------------------------------------------------------------------------
                           ORCA CP-SCF CALCULATION
------------------------------------------------------------------------------

Input orbitals are from        ... 12meoh.boyd.etal.mol0,3,5-orca.engrad-mp2.def2tzvp.frozencore.gbw
Input Perturbation             ... 12meoh.boyd.etal.mol0,3,5-orca.engrad-mp2.def2tzvp.frozencore.pin.tmp
Wavefunction output            ... 12meoh.boyd.etal.mol0,3,5-orca.engrad-mp2.def2tzvp.frozencore.pout.tmp
Perturbation mode              ... Real perturbation (singlet)
Solver                         ... POPLE
Max. number of iterations      ... 128
Convergence tolerance          ... 1.000e-08
Integral handling              ... Direct
Number of perturbations        ... 1
Number of operators            ... 1
Orbital ranges used for CP-SCF:
 Operator 0:  Orbitals   0... 26  to  27...257
Variables per vector in CP-SCF ... 6237
Number of vectors sought       ... 1
     CP-SCF ITERATION   0: 
     CP-SCF ITERATION   1:      0.000363915628
     CP-SCF ITERATION   2:      0.000024763431
     CP-SCF ITERATION   3:      0.000004020560
     CP-SCF ITERATION   4:      0.000000180502
     CP-SCF ITERATION   5:      0.000000006958
                                                 ... done
Finalizing the relaxed density                   ... done
Transforming P to the AO basis                   ... done
Storing the relaxed density                      ... done

------------------------------------
ENERGY WEIGHTED DENSITY FINALIZATION
------------------------------------

Gathering the parts of the W-matrix              ...                                                      done
Forming the Z-density                            ... done
Transforming Z to the AO basis                   ... done
Calculating G(Z)                                 ... done
Finalizing the W-matrix                          ...                                                      done
Transforming W to the AO basis and storing       ... done

                *********************************************
                * UNRELAXED MP2 DENSITY POPULATION ANALYSIS *
                *********************************************

------------------------------------------------------------------------------
                           ORCA POPULATION ANALYSIS
------------------------------------------------------------------------------
Input electron density              ... 12meoh.boyd.etal.mol0,3,5-orca.engrad-mp2.def2tzvp.frozencore.pmp2ur
BaseName (.gbw .S,...)              ... 12meoh.boyd.etal.mol0,3,5-orca.engrad-mp2.def2tzvp.frozencore

                    ********************************
                    * MULLIKEN POPULATION ANALYSIS *
                    ********************************

-----------------------
MULLIKEN ATOMIC CHARGES
-----------------------
   0 O :   -0.585240
   1 H :    0.372846
   2 C :   -0.073341
   3 H :    0.099150
   4 H :    0.080133
   5 H :    0.082574
   6 O :   -0.559595
   7 H :    0.349758
   8 C :   -0.110974
   9 H :    0.124692
  10 H :    0.107721
  11 H :    0.123315
  12 O :   -0.548817
  13 H :    0.323089
  14 C :   -0.096650
  15 H :    0.142030
  16 H :    0.087985
  17 H :    0.081325
Sum of atomic charges:    0.0000000

--------------------------------
MULLIKEN REDUCED ORBITAL CHARGES
--------------------------------
  0 O s       :     3.801321  s :     3.801321
      pz      :     1.642483  p :     4.720275
      px      :     1.618833
      py      :     1.458959
      dz2     :     0.008384  d :     0.059299
      dxz     :     0.014306
      dyz     :     0.010298
      dx2y2   :     0.013425
      dxy     :     0.012886
      f0      :     0.000650  f :     0.004345
      f+1     :     0.000496
      f-1     :     0.000590
      f+2     :     0.000829
      f-2     :     0.000694
      f+3     :     0.000546
      f-3     :     0.000541
  1 H s       :     0.568296  s :     0.568296
      pz      :     0.021678  p :     0.058858
      px      :     0.024335
      py      :     0.012845
  2 C s       :     3.178096  s :     3.178096
      pz      :     0.959647  p :     2.743597
      px      :     1.006352
      py      :     0.777597
      dz2     :     0.018575  d :     0.139191
      dxz     :     0.031288
      dyz     :     0.033186
      dx2y2   :     0.029788
      dxy     :     0.026352
      f0      :     0.000941  f :     0.012458
      f+1     :     0.000783
      f-1     :     0.002580
      f+2     :     0.002744
      f-2     :     0.002005
      f+3     :     0.001621
      f-3     :     0.001783
  3 H s       :     0.876863  s :     0.876863
      pz      :     0.008565  p :     0.023987
      px      :     0.010578
      py      :     0.004844
  4 H s       :     0.896556  s :     0.896556
      pz      :     0.007888  p :     0.023311
      px      :     0.011700
      py      :     0.003723
  5 H s       :     0.894119  s :     0.894119
      pz      :     0.008671  p :     0.023307
      px      :     0.004821
      py      :     0.009815
  6 O s       :     3.793335  s :     3.793335
      pz      :     1.385268  p :     4.701920
      px      :     1.732388
      py      :     1.584264
      dz2     :     0.015083  d :     0.059999
      dxz     :     0.010445
      dyz     :     0.013560
      dx2y2   :     0.008548
      dxy     :     0.012364
      f0      :     0.000770  f :     0.004340
      f+1     :     0.000724
      f-1     :     0.000582
      f+2     :     0.000464
      f-2     :     0.000643
      f+3     :     0.000716
      f-3     :     0.000441
  7 H s       :     0.606765  s :     0.606765
      pz      :     0.011424  p :     0.043477
      px      :     0.015723
      py      :     0.016330
  8 C s       :     3.198846  s :     3.198846
      pz      :     0.696678  p :     2.769217
      px      :     1.022405
      py      :     1.050134
      dz2     :     0.027645  d :     0.130619
      dxz     :     0.038378
      dyz     :     0.028256
      dx2y2   :     0.012652
      dxy     :     0.023688
      f0      :     0.002930  f :     0.012291
      f+1     :     0.002509
      f-1     :     0.002206
      f+2     :     0.001228
      f-2     :     0.001335
      f+3     :     0.001473
      f-3     :     0.000610
  9 H s       :     0.850962  s :     0.850962
      pz      :     0.005006  p :     0.024346
      px      :     0.008369
      py      :     0.010972
 10 H s       :     0.868647  s :     0.868647
      pz      :     0.007806  p :     0.023633
      px      :     0.011201
      py      :     0.004625
 11 H s       :     0.853162  s :     0.853162
      pz      :     0.003219  p :     0.023524
      px      :     0.007885
      py      :     0.012419
 12 O s       :     3.796950  s :     3.796950
      pz      :     1.724537  p :     4.688256
      px      :     1.600479
      py      :     1.363240
      dz2     :     0.010963  d :     0.059238
      dxz     :     0.009185
      dyz     :     0.012924
      dx2y2   :     0.008964
      dxy     :     0.017202
      f0      :     0.000576  f :     0.004372
      f+1     :     0.000537
      f-1     :     0.000705
      f+2     :     0.000647
      f-2     :     0.000579
      f+3     :     0.000599
      f-3     :     0.000730
 13 H s       :     0.632244  s :     0.632244
      pz      :     0.013143  p :     0.044667
      px      :     0.015897
      py      :     0.015627
 14 C s       :     3.193211  s :     3.193211
      pz      :     0.887428  p :     2.757832
      px      :     1.048038
      py      :     0.822366
      dz2     :     0.041380  d :     0.133435
      dxz     :     0.011806
      dyz     :     0.021634
      dx2y2   :     0.021721
      dxy     :     0.036894
      f0      :     0.001771  f :     0.012172
      f+1     :     0.000909
      f-1     :     0.002971
      f+2     :     0.001433
      f-2     :     0.001753
      f+3     :     0.001710
      f-3     :     0.001626
 15 H s       :     0.833067  s :     0.833067
      pz      :     0.004493  p :     0.024903
      px      :     0.009241
      py      :     0.011169
 16 H s       :     0.888596  s :     0.888596
      pz      :     0.004327  p :     0.023419
      px      :     0.013662
      py      :     0.005430
 17 H s       :     0.895393  s :     0.895393
      pz      :     0.014468  p :     0.023283
      px      :     0.004661
      py      :     0.004154


                     *******************************
                     * LOEWDIN POPULATION ANALYSIS *
                     *******************************

----------------------
LOEWDIN ATOMIC CHARGES
----------------------
   0 O :   -0.136552
   1 H :    0.165615
   2 C :   -0.360722
   3 H :    0.097162
   4 H :    0.085428
   5 H :    0.087518
   6 O :   -0.092505
   7 H :    0.198572
   8 C :   -0.337873
   9 H :    0.108817
  10 H :    0.097074
  11 H :    0.099470
  12 O :   -0.132799
  13 H :    0.182837
  14 C :   -0.344704
  15 H :    0.107537
  16 H :    0.089775
  17 H :    0.085351

-------------------------------
LOEWDIN REDUCED ORBITAL CHARGES
-------------------------------
  0 O s       :     3.381591  s :     3.381591
      pz      :     1.578724  p :     4.653472
      px      :     1.588097
      py      :     1.486651
      dz2     :     0.012609  d :     0.094598
      dxz     :     0.020099
      dyz     :     0.020217
      dx2y2   :     0.020318
      dxy     :     0.021355
      f0      :     0.000852  f :     0.006891
      f+1     :     0.000595
      f-1     :     0.001017
      f+2     :     0.001329
      f-2     :     0.001015
      f+3     :     0.001030
      f-3     :     0.001052
  1 H s       :     0.644268  s :     0.644268
      pz      :     0.067070  p :     0.190117
      px      :     0.087388
      py      :     0.035659
  2 C s       :     2.859083  s :     2.859083
      pz      :     1.023388  p :     2.983756
      px      :     1.064311
      py      :     0.896057
      dz2     :     0.047566  d :     0.454734
      dxz     :     0.098656
      dyz     :     0.117343
      dx2y2   :     0.108072
      dxy     :     0.083098
      f0      :     0.006627  f :     0.063150
      f+1     :     0.002976
      f-1     :     0.014848
      f+2     :     0.008872
      f-2     :     0.008370
      f+3     :     0.010825
      f-3     :     0.010631
  3 H s       :     0.839701  s :     0.839701
      pz      :     0.022402  p :     0.063137
      px      :     0.028348
      py      :     0.012387
  4 H s       :     0.851241  s :     0.851241
      pz      :     0.021504  p :     0.063331
      px      :     0.031395
      py      :     0.010432
  5 H s       :     0.849225  s :     0.849225
      pz      :     0.023803  p :     0.063257
      px      :     0.013857
      py      :     0.025597
  6 O s       :     3.381612  s :     3.381612
      pz      :     1.417148  p :     4.605409
      px      :     1.634429
      py      :     1.553833
      dz2     :     0.025985  d :     0.098348
      dxz     :     0.021302
      dyz     :     0.025156
      dx2y2   :     0.009069
      dxy     :     0.016836
      f0      :     0.001523  f :     0.007135
      f+1     :     0.001323
      f-1     :     0.001268
      f+2     :     0.000723
      f-2     :     0.000926
      f+3     :     0.000955
      f-3     :     0.000417
  7 H s       :     0.653024  s :     0.653024
      pz      :     0.031265  p :     0.148404
      px      :     0.050934
      py      :     0.066206
  8 C s       :     2.860481  s :     2.860481
      pz      :     0.830716  p :     2.978311
      px      :     1.063989
      py      :     1.083606
      dz2     :     0.122340  d :     0.436815
      dxz     :     0.128142
      dyz     :     0.090786
      dx2y2   :     0.026317
      dxy     :     0.069230
      f0      :     0.017790  f :     0.062266
      f+1     :     0.012086
      f-1     :     0.014817
      f+2     :     0.007416
      f-2     :     0.005217
      f+3     :     0.003733
      f-3     :     0.001207
  9 H s       :     0.826819  s :     0.826819
      pz      :     0.012354  p :     0.064364
      px      :     0.022338
      py      :     0.029672
 10 H s       :     0.838872  s :     0.838872
      pz      :     0.020069  p :     0.064054
      px      :     0.030466
      py      :     0.013518
 11 H s       :     0.835747  s :     0.835747
      pz      :     0.009042  p :     0.064783
      px      :     0.022072
      py      :     0.033668
 12 O s       :     3.391866  s :     3.391866
      pz      :     1.686941  p :     4.637198
      px      :     1.577047
      py      :     1.373210
      dz2     :     0.019500  d :     0.096772
      dxz     :     0.011120
      dyz     :     0.021010
      dx2y2   :     0.014266
      dxy     :     0.030876
      f0      :     0.000751  f :     0.006963
      f+1     :     0.000750
      f-1     :     0.001234
      f+2     :     0.001026
      f-2     :     0.001027
      f+3     :     0.000856
      f-3     :     0.001318
 13 H s       :     0.668342  s :     0.668342
      pz      :     0.036821  p :     0.148821
      px      :     0.063111
      py      :     0.048889
 14 C s       :     2.862408  s :     2.862408
      pz      :     0.981578  p :     2.983246
      px      :     1.083123
      py      :     0.918545
      dz2     :     0.142752  d :     0.437500
      dxz     :     0.029780
      dyz     :     0.087747
      dx2y2   :     0.062534
      dxy     :     0.114687
      f0      :     0.005701  f :     0.061550
      f+1     :     0.003828
      f-1     :     0.015725
      f+2     :     0.010691
      f-2     :     0.011190
      f+3     :     0.007881
      f-3     :     0.006533
 15 H s       :     0.825369  s :     0.825369
      pz      :     0.012597  p :     0.067095
      px      :     0.026167
      py      :     0.028330
 16 H s       :     0.846359  s :     0.846359
      pz      :     0.012295  p :     0.063866
      px      :     0.036375
      py      :     0.015196
 17 H s       :     0.851179  s :     0.851179
      pz      :     0.037724  p :     0.063469
      px      :     0.013641
      py      :     0.012104


                      *****************************
                      * MAYER POPULATION ANALYSIS *
                      *****************************

  NA   - Mulliken gross atomic population
  ZA   - Total nuclear charge
  QA   - Mulliken gross atomic charge
  VA   - Mayer's total valence
  BVA  - Mayer's bonded valence
  FA   - Mayer's free valence

  ATOM       NA         ZA         QA         VA         BVA        FA
  0 O      8.5852     8.0000    -0.5852     2.0399     1.6288     0.4111
  1 H      0.6272     1.0000     0.3728     0.8962     0.8467     0.0495
  2 C      6.0733     6.0000    -0.0733     4.0195     3.7382     0.2813
  3 H      0.9009     1.0000     0.0991     0.9722     0.9243     0.0480
  4 H      0.9199     1.0000     0.0801     0.9752     0.9251     0.0501
  5 H      0.9174     1.0000     0.0826     0.9723     0.9223     0.0501
  6 O      8.5596     8.0000    -0.5596     2.0857     1.6772     0.4085
  7 H      0.6502     1.0000     0.3498     0.8886     0.8373     0.0513
  8 C      6.1110     6.0000    -0.1110     3.9537     3.6754     0.2783
  9 H      0.8753     1.0000     0.1247     0.9767     0.9302     0.0464
 10 H      0.8923     1.0000     0.1077     0.9730     0.9247     0.0483
 11 H      0.8767     1.0000     0.1233     0.9716     0.9241     0.0474
 12 O      8.5488     8.0000    -0.5488     2.0812     1.6747     0.4066
 13 H      0.6769     1.0000     0.3231     0.9073     0.8541     0.0532
 14 C      6.0967     6.0000    -0.0967     3.9787     3.7005     0.2782
 15 H      0.8580     1.0000     0.1420     0.9812     0.9344     0.0468
 16 H      0.9120     1.0000     0.0880     0.9766     0.9272     0.0494
 17 H      0.9187     1.0000     0.0813     0.9710     0.9212     0.0498

  Mayer bond orders larger than 0.100000
B(  0-O ,  1-H ) :   0.7773 B(  0-O ,  2-C ) :   0.8854 B(  2-C ,  3-H ) :   0.9498 
B(  2-C ,  4-H ) :   0.9538 B(  2-C ,  5-H ) :   0.9465 B(  6-O ,  7-H ) :   0.8266 
B(  6-O ,  8-C ) :   0.8274 B(  8-C ,  9-H ) :   0.9472 B(  8-C , 10-H ) :   0.9443 
B(  8-C , 11-H ) :   0.9489 B( 12-O , 13-H ) :   0.8454 B( 12-O , 14-C ) :   0.8635 
B( 14-C , 15-H ) :   0.9371 B( 14-C , 16-H ) :   0.9535 B( 14-C , 17-H ) :   0.9502 



                *******************************************
                * RELAXED MP2 DENSITY POPULATION ANALYSIS *
                *******************************************

------------------------------------------------------------------------------
                           ORCA POPULATION ANALYSIS
------------------------------------------------------------------------------
Input electron density              ... 12meoh.boyd.etal.mol0,3,5-orca.engrad-mp2.def2tzvp.frozencore.pmp2re
BaseName (.gbw .S,...)              ... 12meoh.boyd.etal.mol0,3,5-orca.engrad-mp2.def2tzvp.frozencore

                    ********************************
                    * MULLIKEN POPULATION ANALYSIS *
                    ********************************

-----------------------
MULLIKEN ATOMIC CHARGES
-----------------------
   0 O :   -0.535648
   1 H :    0.349218
   2 C :   -0.157454
   3 H :    0.118414
   4 H :    0.096981
   5 H :    0.099009
   6 O :   -0.516382
   7 H :    0.344590
   8 C :   -0.189944
   9 H :    0.142807
  10 H :    0.124448
  11 H :    0.139350
  12 O :   -0.511080
  13 H :    0.317998
  14 C :   -0.178117
  15 H :    0.153917
  16 H :    0.104439
  17 H :    0.097452
Sum of atomic charges:    0.0000000

--------------------------------
MULLIKEN REDUCED ORBITAL CHARGES
--------------------------------
  0 O s       :     3.799816  s :     3.799816
      pz      :     1.628066  p :     4.674014
      px      :     1.603183
      py      :     1.442765
      dz2     :     0.008454  d :     0.057524
      dxz     :     0.013720
      dyz     :     0.010000
      dx2y2   :     0.012777
      dxy     :     0.012572
      f0      :     0.000636  f :     0.004294
      f+1     :     0.000493
      f-1     :     0.000599
      f+2     :     0.000810
      f-2     :     0.000684
      f+3     :     0.000535
      f-3     :     0.000539
  1 H s       :     0.591765  s :     0.591765
      pz      :     0.021744  p :     0.059016
      px      :     0.023831
      py      :     0.013441
  2 C s       :     3.198848  s :     3.198848
      pz      :     0.986242  p :     2.815818
      px      :     1.034389
      py      :     0.795187
      dz2     :     0.020717  d :     0.130867
      dxz     :     0.026985
      dyz     :     0.029353
      dx2y2   :     0.026362
      dxy     :     0.027450
      f0      :     0.000897  f :     0.011921
      f+1     :     0.000759
      f-1     :     0.002465
      f+2     :     0.002570
      f-2     :     0.001944
      f+3     :     0.001587
      f-3     :     0.001699
  3 H s       :     0.858696  s :     0.858696
      pz      :     0.008159  p :     0.022890
      px      :     0.009824
      py      :     0.004907
  4 H s       :     0.880759  s :     0.880759
      pz      :     0.007542  p :     0.022259
      px      :     0.010746
      py      :     0.003971
  5 H s       :     0.878754  s :     0.878754
      pz      :     0.008142  p :     0.022237
      px      :     0.005018
      py      :     0.009077
  6 O s       :     3.797278  s :     3.797278
      pz      :     1.369606  p :     4.656563
      px      :     1.719157
      py      :     1.567800
      dz2     :     0.013932  d :     0.058254
      dxz     :     0.010659
      dyz     :     0.013336
      dx2y2   :     0.008542
      dxy     :     0.011786
      f0      :     0.000752  f :     0.004286
      f+1     :     0.000717
      f-1     :     0.000574
      f+2     :     0.000466
      f-2     :     0.000634
      f+3     :     0.000700
      f-3     :     0.000442
  7 H s       :     0.611419  s :     0.611419
      pz      :     0.011725  p :     0.043992
      px      :     0.016223
      py      :     0.016044
  8 C s       :     3.220484  s :     3.220484
      pz      :     0.713622  p :     2.837758
      px      :     1.047660
      py      :     1.076476
      dz2     :     0.024139  d :     0.120000
      dxz     :     0.035475
      dyz     :     0.029562
      dx2y2   :     0.011485
      dxy     :     0.019339
      f0      :     0.002732  f :     0.011702
      f+1     :     0.002415
      f-1     :     0.002132
      f+2     :     0.001135
      f-2     :     0.001312
      f+3     :     0.001374
      f-3     :     0.000602
  9 H s       :     0.834017  s :     0.834017
      pz      :     0.004971  p :     0.023176
      px      :     0.008031
      py      :     0.010175
 10 H s       :     0.853040  s :     0.853040
      pz      :     0.007336  p :     0.022512
      px      :     0.010315
      py      :     0.004860
 11 H s       :     0.838285  s :     0.838285
      pz      :     0.003460  p :     0.022365
      px      :     0.007549
      py      :     0.011357
 12 O s       :     3.798174  s :     3.798174
      pz      :     1.711732  p :     4.651379
      px      :     1.584294
      py      :     1.355353
      dz2     :     0.010989  d :     0.057207
      dxz     :     0.009262
      dyz     :     0.012002
      dx2y2   :     0.008822
      dxy     :     0.016132
      f0      :     0.000572  f :     0.004319
      f+1     :     0.000531
      f-1     :     0.000701
      f+2     :     0.000633
      f-2     :     0.000574
      f+3     :     0.000591
      f-3     :     0.000716
 13 H s       :     0.636743  s :     0.636743
      pz      :     0.014102  p :     0.045259
      px      :     0.015819
      py      :     0.015338
 14 C s       :     3.215845  s :     3.215845
      pz      :     0.912108  p :     2.827334
      px      :     1.074608
      py      :     0.840618
      dz2     :     0.036955  d :     0.123346
      dxz     :     0.012845
      dyz     :     0.019678
      dx2y2   :     0.019774
      dxy     :     0.034094
      f0      :     0.001687  f :     0.011591
      f+1     :     0.000871
      f-1     :     0.002829
      f+2     :     0.001341
      f-2     :     0.001713
      f+3     :     0.001628
      f-3     :     0.001522
 15 H s       :     0.822247  s :     0.822247
      pz      :     0.004656  p :     0.023837
      px      :     0.008766
      py      :     0.010415
 16 H s       :     0.873252  s :     0.873252
      pz      :     0.004550  p :     0.022309
      px      :     0.012391
      py      :     0.005367
 17 H s       :     0.880314  s :     0.880314
      pz      :     0.013022  p :     0.022234
      px      :     0.004899
      py      :     0.004312


                     *******************************
                     * LOEWDIN POPULATION ANALYSIS *
                     *******************************

----------------------
LOEWDIN ATOMIC CHARGES
----------------------
   0 O :   -0.119767
   1 H :    0.159415
   2 C :   -0.395831
   3 H :    0.104837
   4 H :    0.091610
   5 H :    0.093630
   6 O :   -0.074084
   7 H :    0.201177
   8 C :   -0.371918
   9 H :    0.116207
  10 H :    0.103775
  11 H :    0.105681
  12 O :   -0.119709
  13 H :    0.185596
  14 C :   -0.380337
  15 H :    0.112168
  16 H :    0.096036
  17 H :    0.091515

-------------------------------
LOEWDIN REDUCED ORBITAL CHARGES
-------------------------------
  0 O s       :     3.384080  s :     3.384080
      pz      :     1.572459  p :     4.633961
      px      :     1.581215
      py      :     1.480287
      dz2     :     0.012908  d :     0.094712
      dxz     :     0.020041
      dyz     :     0.020158
      dx2y2   :     0.020152
      dxy     :     0.021453
      f0      :     0.000862  f :     0.007013
      f+1     :     0.000603
      f-1     :     0.001042
      f+2     :     0.001357
      f-2     :     0.001033
      f+3     :     0.001041
      f-3     :     0.001076
  1 H s       :     0.649994  s :     0.649994
      pz      :     0.067193  p :     0.190592
      px      :     0.087279
      py      :     0.036120
  2 C s       :     2.865141  s :     2.865141
      pz      :     1.038249  p :     3.023444
      px      :     1.079732
      py      :     0.905464
      dz2     :     0.048215  d :     0.445679
      dxz     :     0.095490
      dyz     :     0.113139
      dx2y2   :     0.105885
      dxy     :     0.082951
      f0      :     0.006609  f :     0.061567
      f+1     :     0.002892
      f-1     :     0.014408
      f+2     :     0.008575
      f-2     :     0.008078
      f+3     :     0.010701
      f-3     :     0.010305
  3 H s       :     0.831498  s :     0.831498
      pz      :     0.022585  p :     0.063665
      px      :     0.028259
      py      :     0.012821
  4 H s       :     0.844185  s :     0.844185
      pz      :     0.021833  p :     0.064205
      px      :     0.031395
      py      :     0.010977
  5 H s       :     0.842272  s :     0.842272
      pz      :     0.023854  p :     0.064097
      px      :     0.014333
      py      :     0.025911
  6 O s       :     3.384502  s :     3.384502
      pz      :     1.410157  p :     4.583781
      px      :     1.624831
      py      :     1.548794
      dz2     :     0.025595  d :     0.098549
      dxz     :     0.021856
      dyz     :     0.025327
      dx2y2   :     0.009209
      dxy     :     0.016562
      f0      :     0.001565  f :     0.007252
      f+1     :     0.001347
      f-1     :     0.001287
      f+2     :     0.000737
      f-2     :     0.000936
      f+3     :     0.000960
      f-3     :     0.000419
  7 H s       :     0.650033  s :     0.650033
      pz      :     0.031145  p :     0.148790
      px      :     0.051342
      py      :     0.066303
  8 C s       :     2.866576  s :     2.866576
      pz      :     0.840639  p :     3.018606
      px      :     1.079372
      py      :     1.098595
      dz2     :     0.119069  d :     0.426075
      dxz     :     0.125807
      dyz     :     0.090946
      dx2y2   :     0.024457
      dxy     :     0.065796
      f0      :     0.017288  f :     0.060660
      f+1     :     0.011667
      f-1     :     0.014624
      f+2     :     0.007290
      f-2     :     0.004988
      f+3     :     0.003616
      f-3     :     0.001188
  9 H s       :     0.819040  s :     0.819040
      pz      :     0.012719  p :     0.064753
      px      :     0.022514
      py      :     0.029520
 10 H s       :     0.831444  s :     0.831444
      pz      :     0.020458  p :     0.064781
      px      :     0.030320
      py      :     0.014003
 11 H s       :     0.828890  s :     0.828890
      pz      :     0.009678  p :     0.065429
      px      :     0.022275
      py      :     0.033476
 12 O s       :     3.394735  s :     3.394735
      pz      :     1.677394  p :     4.621547
      px      :     1.571343
      py      :     1.372810
      dz2     :     0.019676  d :     0.096351
      dxz     :     0.011394
      dyz     :     0.020623
      dx2y2   :     0.014313
      dxy     :     0.030346
      f0      :     0.000761  f :     0.007075
      f+1     :     0.000756
      f-1     :     0.001263
      f+2     :     0.001051
      f-2     :     0.001041
      f+3     :     0.000871
      f-3     :     0.001332
 13 H s       :     0.664894  s :     0.664894
      pz      :     0.037725  p :     0.149510
      px      :     0.063442
      py      :     0.048344
 14 C s       :     2.868677  s :     2.868677
      pz      :     0.995702  p :     3.024025
      px      :     1.098193
      py      :     0.930130
      dz2     :     0.141697  d :     0.427616
      dxz     :     0.029487
      dyz     :     0.084279
      dx2y2   :     0.059297
      dxy     :     0.112856
      f0      :     0.005434  f :     0.060019
      f+1     :     0.003757
      f-1     :     0.015241
      f+2     :     0.010518
      f-2     :     0.011061
      f+3     :     0.007664
      f-3     :     0.006344
 15 H s       :     0.820407  s :     0.820407
      pz      :     0.013029  p :     0.067425
      px      :     0.026141
      py      :     0.028255
 16 H s       :     0.839324  s :     0.839324
      pz      :     0.012781  p :     0.064640
      px      :     0.036142
      py      :     0.015717
 17 H s       :     0.844166  s :     0.844166
      pz      :     0.037591  p :     0.064319
      px      :     0.014116
      py      :     0.012613


                      *****************************
                      * MAYER POPULATION ANALYSIS *
                      *****************************

  NA   - Mulliken gross atomic population
  ZA   - Total nuclear charge
  QA   - Mulliken gross atomic charge
  VA   - Mayer's total valence
  BVA  - Mayer's bonded valence
  FA   - Mayer's free valence

  ATOM       NA         ZA         QA         VA         BVA        FA
  0 O      8.5356     8.0000    -0.5356     2.1076     1.7037     0.4039
  1 H      0.6508     1.0000     0.3492     0.9262     0.8775     0.0486
  2 C      6.1575     6.0000    -0.1575     4.0387     3.7595     0.2791
  3 H      0.8816     1.0000     0.1184     0.9642     0.9169     0.0473
  4 H      0.9030     1.0000     0.0970     0.9684     0.9189     0.0495
  5 H      0.9010     1.0000     0.0990     0.9644     0.9150     0.0494
  6 O      8.5164     8.0000    -0.5164     2.1593     1.7585     0.4008
  7 H      0.6554     1.0000     0.3446     0.8916     0.8402     0.0514
  8 C      6.1899     6.0000    -0.1899     3.9645     3.6884     0.2761
  9 H      0.8572     1.0000     0.1428     0.9697     0.9240     0.0458
 10 H      0.8756     1.0000     0.1244     0.9664     0.9188     0.0476
 11 H      0.8606     1.0000     0.1394     0.9645     0.9177     0.0468
 12 O      8.5111     8.0000    -0.5111     2.1355     1.7355     0.4000
 13 H      0.6820     1.0000     0.3180     0.9094     0.8561     0.0533
 14 C      6.1781     6.0000    -0.1781     3.9963     3.7202     0.2761
 15 H      0.8461     1.0000     0.1539     0.9836     0.9378     0.0458
 16 H      0.8956     1.0000     0.1044     0.9702     0.9215     0.0487
 17 H      0.9025     1.0000     0.0975     0.9629     0.9138     0.0492

  Mayer bond orders larger than 0.100000
B(  0-O ,  1-H ) :   0.7750 B(  0-O ,  2-C ) :   0.9364 B(  1-H ,  6-O ) :   0.1010 
B(  2-C ,  3-H ) :   0.9418 B(  2-C ,  4-H ) :   0.9434 B(  2-C ,  5-H ) :   0.9343 
B(  6-O ,  7-H ) :   0.8263 B(  6-O ,  8-C ) :   0.8662 B(  8-C ,  9-H ) :   0.9388 
B(  8-C , 10-H ) :   0.9335 B(  8-C , 11-H ) :   0.9383 B( 12-O , 13-H ) :   0.8454 
B( 12-O , 14-C ) :   0.9168 B( 14-C , 15-H ) :   0.9267 B( 14-C , 16-H ) :   0.9440 
B( 14-C , 17-H ) :   0.9387 


----------------------------------
MP2 DERIVATIVE INTEGRAL GENERATION
----------------------------------


Input Wavefunction Amplitudes       ... 12meoh.boyd.etal.mol0,3,5-orca.engrad-mp2.def2tzvp.frozencore.mp2tsaa.tmp
Input Correlated Electron Density   ... 12meoh.boyd.etal.mol0,3,5-orca.engrad-mp2.def2tzvp.frozencore.pmp2re
Input Energy Weighted Density       ... 12meoh.boyd.etal.mol0,3,5-orca.engrad-mp2.def2tzvp.frozencore.wmp2.tmp
Input SCF Electron Density          ... 12meoh.boyd.etal.mol0,3,5-orca.engrad-mp2.def2tzvp.frozencore.scfp

One-Electron Terms    ...
                        ... One-Electron Terms done
Prescreening matrices              ... done

Batch handling in the gradient evaluation:
Memory available                      ... 8000.0 MB
Memory per occupied orbital in Q2     ...   10.7 MB
Memory per occupied orbital in Q3     ...    0.1 MB
Total memory requirement per |i>      ...   10.8 MB
Max. Number of orbitals possible      ...    743
Number of orbitals treated per batch  ...     21
Number of batches to be done          ...      1
Batch   0: i=    6 ...    26

---------------------------------------
MP2 TOTAL ENERGY:     -346.532732481 Eh
---------------------------------------

The final MP2 gradient
  0:   0.00868050  -0.00164171  -0.00620925
  1:  -0.01397718   0.00860223   0.01256967
  2:   0.00087935  -0.00364961  -0.00183485
  3:   0.00228100  -0.00120847  -0.00228888
  4:  -0.00169714   0.00184706  -0.00060196
  5:  -0.00072787  -0.00204783   0.00206385
  6:   0.01816682  -0.02298408   0.00777437
  7:  -0.01350664   0.02095508  -0.00862884
  8:  -0.00087192  -0.00157001  -0.01069285
  9:   0.00220531  -0.00292038   0.00377825
 10:  -0.00337144   0.00030148   0.00312619
 11:   0.00168172   0.00375296   0.00147386
 12:  -0.01685640  -0.01558598  -0.00036977
 13:   0.01916328   0.01966149  -0.00025667
 14:  -0.00199628  -0.00192074   0.00324532
 15:  -0.00288769  -0.00315388  -0.00102463
 16:   0.00356592  -0.00025696   0.00023974
 17:  -0.00073135   0.00181934  -0.00236357

-----------------------------------
NORM OF THE MP2 GRADIENT:  0.061075
-----------------------------------

-------------------------   --------------------
FINAL SINGLE POINT ENERGY      -346.532732480709
-------------------------   --------------------


                            ***************************************
                            *     ORCA property calculations      *
                            ***************************************

                                    ---------------------
                                    Active property flags
                                    ---------------------
   (+) Dipole Moment


------------------------------------------------------------------------------
                       ORCA ELECTRIC PROPERTIES CALCULATION
------------------------------------------------------------------------------

Dipole Moment Calculation                       ... on
Quadrupole Moment Calculation                   ... off
Polarizability Calculation                      ... off
GBWName                                         ... 12meoh.boyd.etal.mol0,3,5-orca.engrad-mp2.def2tzvp.frozencore.gbw
Electron density file                           ... 12meoh.boyd.etal.mol0,3,5-orca.engrad-mp2.def2tzvp.frozencore.scfp
The origin for moment calculation is the CENTER OF MASS  = (-3.863819, -2.741576 -1.176491)

-------------
DIPOLE MOMENT
-------------
                                X             Y             Z
Electronic contribution:     -0.51961       2.35607       0.51102
Nuclear contribution   :      0.05994      -2.06455      -0.09995
                        -----------------------------------------
Total Dipole Moment    :     -0.45966       0.29152       0.41107
                        -----------------------------------------
Magnitude (a.u.)       :      0.68210
Magnitude (Debye)      :      1.73375



--------------------
Rotational spectrum 
--------------------
 
Rotational constants in cm-1:     0.075643     0.034002     0.024548 
Rotational constants in MHz :  2267.724454  1019.355396   735.933243 

 Dipole components along the rotational axes: 
x,y,z [a.u.] :     0.230276     0.609001     0.203333 
x,y,z [Debye]:     0.585315     1.547959     0.516832 

 

                         *** MP2 UNRELAXED DENSITY ***

------------------------------------------------------------------------------
                       ORCA ELECTRIC PROPERTIES CALCULATION
------------------------------------------------------------------------------

Dipole Moment Calculation                       ... on
Quadrupole Moment Calculation                   ... off
Polarizability Calculation                      ... off
GBWName                                         ... 12meoh.boyd.etal.mol0,3,5-orca.engrad-mp2.def2tzvp.frozencore.gbw
Electron density file                           ... 12meoh.boyd.etal.mol0,3,5-orca.engrad-mp2.def2tzvp.frozencore.pmp2ur
The origin for moment calculation is the CENTER OF MASS  = (-3.863819, -2.741576 -1.176491)

-------------
DIPOLE MOMENT
-------------
                                X             Y             Z
Electronic contribution:     -0.51969       2.35911       0.51465
Nuclear contribution   :      0.05994      -2.06455      -0.09995
                        -----------------------------------------
Total Dipole Moment    :     -0.45974       0.29456       0.41471
                        -----------------------------------------
Magnitude (a.u.)       :      0.68565
Magnitude (Debye)      :      1.74278



--------------------
Rotational spectrum 
--------------------
 
Rotational constants in cm-1:     0.075643     0.034002     0.024548 
Rotational constants in MHz :  2267.724454  1019.355396   735.933243 

 Dipole components along the rotational axes: 
x,y,z [a.u.] :     0.229814     0.613556     0.202106 
x,y,z [Debye]:     0.584142     1.559536     0.513713 

 

                           *** MP2 RELAXED DENSITY ***

------------------------------------------------------------------------------
                       ORCA ELECTRIC PROPERTIES CALCULATION
------------------------------------------------------------------------------

Dipole Moment Calculation                       ... on
Quadrupole Moment Calculation                   ... off
Polarizability Calculation                      ... off
GBWName                                         ... 12meoh.boyd.etal.mol0,3,5-orca.engrad-mp2.def2tzvp.frozencore.gbw
Electron density file                           ... 12meoh.boyd.etal.mol0,3,5-orca.engrad-mp2.def2tzvp.frozencore.pmp2re
The origin for moment calculation is the CENTER OF MASS  = (-3.863819, -2.741576 -1.176491)

-------------
DIPOLE MOMENT
-------------
                                X             Y             Z
Electronic contribution:     -0.52639       2.36547       0.52858
Nuclear contribution   :      0.05994      -2.06455      -0.09995
                        -----------------------------------------
Total Dipole Moment    :     -0.46645       0.30092       0.42863
                        -----------------------------------------
Magnitude (a.u.)       :      0.70132
Magnitude (Debye)      :      1.78262



--------------------
Rotational spectrum 
--------------------
 
Rotational constants in cm-1:     0.075643     0.034002     0.024548 
Rotational constants in MHz :  2267.724454  1019.355396   735.933243 

 Dipole components along the rotational axes: 
x,y,z [a.u.] :     0.235263     0.629325     0.201131 
x,y,z [Debye]:     0.597992     1.599616     0.511233 

 

Timings for individual modules:

Sum of individual times         ...      103.172 sec (=   1.720 min)
GTO integral calculation        ...        1.396 sec (=   0.023 min)   1.4 %
SCF iterations                  ...       19.505 sec (=   0.325 min)  18.9 %
MP2 module                      ...       82.271 sec (=   1.371 min)  79.7 %
                             ****ORCA TERMINATED NORMALLY****
TOTAL RUN TIME: 0 days 0 hours 1 minutes 44 seconds 69 msec
