
                                 *****************
                                 * O   R   C   A *
                                 *****************

           --- An Ab Initio, DFT and Semiempirical electronic structure package ---

                  #######################################################
                  #                        -***-                        #
                  #          Department of theory and spectroscopy      #
                  #               Directorship: Frank Neese             #
                  #        Max Planck Institute fuer Kohlenforschung    #
                  #                Kaiser Wilhelm Platz 1               #
                  #                 D-45470 Muelheim/Ruhr               #
                  #                      Germany                        #
                  #                                                     #
                  #                  All rights reserved                #
                  #                        -***-                        #
                  #######################################################


                         Program Version 4.2.0 -  RELEASE  -


 With contributions from (in alphabetic order):
   Daniel Aravena         : Magnetic Suceptibility
   Michael Atanasov       : Ab Initio Ligand Field Theory (pilot matlab implementation)
   Alexander A. Auer      : GIAO ZORA, VPT2
   Ute Becker             : Parallelization
   Giovanni Bistoni       : ED, misc. LED, open-shell LED, HFLED
   Martin Brehm           : Molecular dynamics
   Dmytro Bykov           : SCF Hessian
   Vijay G. Chilkuri      : MRCI spin determinant printing, contributions to CSF-ICE
   Dipayan Datta          : RHF DLPNO-CCSD density
   Achintya Kumar Dutta   : EOM-CC, STEOM-CC
   Dmitry Ganyushin       : Spin-Orbit,Spin-Spin,Magnetic field MRCI
   Miquel Garcia          : C-PCM Hessian, Gaussian charge scheme
   Yang Guo               : DLPNO-NEVPT2, CIM, IAO-localization
   Andreas Hansen         : Spin unrestricted coupled pair/coupled cluster methods
   Benjamin Helmich-Paris : CASSCF linear response (MC-RPA)
   Lee Huntington         : MR-EOM, pCC
   Robert Izsak           : Overlap fitted RIJCOSX, COSX-SCS-MP3, EOM
   Christian Kollmar      : KDIIS, OOCD, Brueckner-CCSD(T), CCSD density
   Simone Kossmann        : Meta GGA functionals, TD-DFT gradient, OOMP2, MP2 Hessian
   Martin Krupicka        : AUTO-CI
   Lucas Lang             : DCDCAS
   Dagmar Lenk            : GEPOL surface, SMD
   Dimitrios Liakos       : Extrapolation schemes; Compound Job, initial MDCI parallelization
   Dimitrios Manganas     : Further ROCIS development; embedding schemes
   Dimitrios Pantazis     : SARC Basis sets
   Taras Petrenko         : DFT Hessian,TD-DFT gradient, ASA, ECA, R-Raman, ABS, FL, XAS/XES, NRVS
   Peter Pinski           : DLPNO-MP2, DLPNO-MP2 Gradient
   Christoph Reimann      : Effective Core Potentials
   Marius Retegan         : Local ZFS, SOC
   Christoph Riplinger    : Optimizer, TS searches, QM/MM, DLPNO-CCSD(T), (RO)-DLPNO pert. Triples
   Tobias Risthaus        : Range-separated hybrids, TD-DFT gradient, RPA, STAB
   Michael Roemelt        : Original ROCIS implementation
   Masaaki Saitow         : Open-shell DLPNO-CCSD energy and density
   Barbara Sandhoefer     : DKH picture change effects
   Avijit Sen             : IP-ROCIS
   Kantharuban Sivalingam : CASSCF convergence, NEVPT2, FIC-MRCI
   Bernardo de Souza      : ESD, SOC TD-DFT
   Georgi Stoychev        : AutoAux, RI-MP2 NMR
   Willem Van den Heuvel  : Paramagnetic NMR
   Boris Wezisla          : Elementary symmetry handling
   Frank Wennmohs         : Technical directorship


 We gratefully acknowledge several colleagues who have allowed us to
 interface, adapt or use parts of their codes:
   Stefan Grimme, W. Hujo, H. Kruse,             : VdW corrections, initial TS optimization,
                  C. Bannwarth                     DFT functionals, gCP, sTDA/sTD-DF
   Ed Valeev, F. Pavosevic, A. Kumar             : LibInt (2-el integral package), F12 methods
   Garnet Chan, S. Sharma, J. Yang, R. Olivares  : DMRG
   Ulf Ekstrom                                   : XCFun DFT Library
   Mihaly Kallay                                 : mrcc  (arbitrary order and MRCC methods)
   Andreas Klamt, Michael Diedenhofen            : otool_cosmo (COSMO solvation model)
   Jiri Pittner, Ondrej Demel                    : Mk-CCSD
   Frank Weinhold                                : gennbo (NPA and NBO analysis)
   Christopher J. Cramer and Donald G. Truhlar   : smd solvation model
   Lars Goerigk                                  : TD-DFT with DH, B97 family of functionals
   V. Asgeirsson, H. Jonsson                     : NEB implementation
   FAccTs GmbH                                   : IRC, NEB, NEB-TS, Multilevel, MM, QM/MM, CI optimization
   S Lehtola, MJT Oliveira, MAL Marques          : LibXC Library


 Your calculation uses the libint2 library for the computation of 2-el integrals
 For citations please refer to: http://libint.valeyev.net

 Your ORCA version has been built with support for libXC version: 4.2.3
 For citations please refer to: https://tddft.org/programs/libxc/

 This ORCA versions uses:
   CBLAS   interface :  Fast vector & matrix operations
   LAPACKE interface :  Fast linear algebra routines
   SCALAPACK package :  Parallel linear algebra routines


----- Orbital basis set information -----
Your calculation utilizes the basis: def2-TZVP
   F. Weigend and R. Ahlrichs, Phys. Chem. Chem. Phys. 7, 3297 (2005).

================================================================================
                                        WARNINGS
                       Please study these warnings very carefully!
================================================================================


WARNING: The frozen-core approximation for MP2-gradient calculations is turned on by default.

INFO   : the flag for use of LIBINT has been found!

================================================================================
                                       INPUT FILE
================================================================================
NAME = 12meoh.boyd.etal.mol3,6,9-orca.engrad-mp2.def2tzvp.frozencore.inp
|  1> # 12meoh.boyd.etal.mol3,6,9
|  2> ! MP2 def2-TZVP EnGrad TightSCF
|  3> 
|  4> %pal
|  5>     nprocs 6
|  6> end
|  7> 
|  8> %maxcore 8000
|  9> 
| 10> %scf
| 11>     ConvForced true
| 12> end
| 13> 
| 14> *xyz 0 1
| 15> O  -3.821405976  -2.118091637   0.596795346
| 16> H  -4.342989117  -1.344303030   0.251966383
| 17> C  -3.443883586  -1.809641231   1.934889393
| 18> H  -2.831494349  -2.637429600   2.305201764
| 19> H  -4.325601146  -1.719364371   2.585074667
| 20> H  -2.858527126  -0.882644791   1.996110694
| 21> O   2.622209273  -1.703002590  -1.445859723
| 22> H   1.828551432  -1.986513781  -0.909754968
| 23> C   2.781117675  -2.615822239  -2.525472890
| 24> H   3.691063626  -2.339003544  -3.065143454
| 25> H   1.934727323  -2.559520367  -3.223226661
| 26> H   2.879948338  -3.653846211  -2.177750170
| 27> O   1.390610024   3.194080770  -1.536658882
| 28> H   2.162932299   2.881562730  -0.993525056
| 29> C   1.202977189   4.580367182  -1.302880219
| 30> H   0.374773115   4.915764831  -1.934164643
| 31> H   2.098649340   5.157710875  -1.570472348
| 32> H   0.950320401   4.800436015  -0.254328827
| 33> *
| 34> 
| 35>                          ****END OF INPUT****
================================================================================

                     *******************************
                     * Energy+Gradient Calculation *
                     *******************************

---------------------------------
CARTESIAN COORDINATES (ANGSTROEM)
---------------------------------
  O     -3.821406   -2.118092    0.596795
  H     -4.342989   -1.344303    0.251966
  C     -3.443884   -1.809641    1.934889
  H     -2.831494   -2.637430    2.305202
  H     -4.325601   -1.719364    2.585075
  H     -2.858527   -0.882645    1.996111
  O      2.622209   -1.703003   -1.445860
  H      1.828551   -1.986514   -0.909755
  C      2.781118   -2.615822   -2.525473
  H      3.691064   -2.339004   -3.065143
  H      1.934727   -2.559520   -3.223227
  H      2.879948   -3.653846   -2.177750
  O      1.390610    3.194081   -1.536659
  H      2.162932    2.881563   -0.993525
  C      1.202977    4.580367   -1.302880
  H      0.374773    4.915765   -1.934165
  H      2.098649    5.157711   -1.570472
  H      0.950320    4.800436   -0.254329

----------------------------
CARTESIAN COORDINATES (A.U.)
----------------------------
  NO LB      ZA    FRAG     MASS         X           Y           Z
   0 O     8.0000    0    15.999   -7.221411   -4.002613    1.127780
   1 H     1.0000    0     1.008   -8.207060   -2.540365    0.476147
   2 C     6.0000    0    12.011   -6.507997   -3.419726    3.656411
   3 H     1.0000    0     1.008   -5.350749   -4.984020    4.356200
   4 H     1.0000    0     1.008   -8.174202   -3.249128    4.885083
   5 H     1.0000    0     1.008   -5.401833   -1.667957    3.772103
   6 O     8.0000    0    15.999    4.955257   -3.218209   -2.732279
   7 H     1.0000    0     1.008    3.455461   -3.753967   -1.719188
   8 C     6.0000    0    12.011    5.255551   -4.943188   -4.772452
   9 H     1.0000    0     1.008    6.975099   -4.420076   -5.792282
  10 H     1.0000    0     1.008    3.656105   -4.836793   -6.091016
  11 H     1.0000    0     1.008    5.442314   -6.904769   -4.115351
  12 O     8.0000    0    15.999    2.627872    6.035938   -2.903864
  13 H     1.0000    0     1.008    4.087350    5.445364   -1.877490
  14 C     6.0000    0    12.011    2.273297    8.655640   -2.462087
  15 H     1.0000    0     1.008    0.708219    9.289449   -3.655041
  16 H     1.0000    0     1.008    3.965873    9.746661   -2.967763
  17 H     1.0000    0     1.008    1.795845    9.071509   -0.480612

--------------------------------
INTERNAL COORDINATES (ANGSTROEM)
--------------------------------
 O      0   0   0     0.000000000000     0.00000000     0.00000000
 H      1   0   0     0.994839079963     0.00000000     0.00000000
 C      1   2   0     1.424134995894   107.22932759     0.00000000
 H      3   1   2     1.094251074279   107.60656698   182.49646734
 H      3   1   2     1.099234578054   111.15598505    64.29876054
 H      3   1   2     1.098049467343   112.12012929   302.03562973
 O      6   3   1     6.523696708555   108.19690197   298.34607252
 H      7   6   3     0.998839162396    23.78877432   335.08414091
 C      7   6   3     1.422693284649   125.09260887    25.08963134
 H      9   7   6     1.093560488172   107.75927006   164.87912608
 H      9   7   6     1.098365537375   111.29143095    46.22634952
 H      9   7   6     1.099168938972   112.08005485   284.41255192
 O      7   6   3     5.050396680678    71.49892626   150.83623401
 H     13   7   6     0.994556974101    59.74307291   107.32210485
 C     13   7   6     1.418325971045   167.69767018    86.88481796
 H     15  13  14     1.094044603812   107.73887728   177.96250212
 H     15  13  14     1.098708282224   111.44548874    59.17672919
 H     15  13  14     1.100784159336   112.50562595   297.30766712

---------------------------
INTERNAL COORDINATES (A.U.)
---------------------------
 O      0   0   0     0.000000000000     0.00000000     0.00000000
 H      1   0   0     1.879973408453     0.00000000     0.00000000
 C      1   2   0     2.691225119973   107.22932759     0.00000000
 H      3   1   2     2.067834852136   107.60656698   182.49646734
 H      3   1   2     2.077252309459   111.15598505    64.29876054
 H      3   1   2     2.075012774777   112.12012929   302.03562973
 O      6   3   1    12.328000159932   108.19690197   298.34607252
 H      7   6   3     1.887532468764    23.78877432   335.08414091
 C      7   6   3     2.688500680556   125.09260887    25.08963134
 H      9   7   6     2.066529833522   107.75927006   164.87912608
 H      9   7   6     2.075610060577   111.29143095    46.22634952
 H      9   7   6     2.077128269569   112.08005485   284.41255192
 O      7   6   3     9.543866594146    71.49892626   150.83623401
 H     13   7   6     1.879440305631    59.74307291   107.32210485
 C     13   7   6     2.680247653903   167.69767018    86.88481796
 H     15  13  14     2.067444679499   107.73887728   177.96250212
 H     15  13  14     2.076257754474   111.44548874    59.17672919
 H     15  13  14     2.080180593704   112.50562595   297.30766712

---------------------
BASIS SET INFORMATION
---------------------
There are 3 groups of distinct atoms

 Group   1 Type O   : 11s6p2d1f contracted to 5s3p2d1f pattern {62111/411/11/1}
 Group   2 Type H   : 5s1p contracted to 3s1p pattern {311/1}
 Group   3 Type C   : 11s6p2d1f contracted to 5s3p2d1f pattern {62111/411/11/1}

Atom   0O    basis set group =>   1
Atom   1H    basis set group =>   2
Atom   2C    basis set group =>   3
Atom   3H    basis set group =>   2
Atom   4H    basis set group =>   2
Atom   5H    basis set group =>   2
Atom   6O    basis set group =>   1
Atom   7H    basis set group =>   2
Atom   8C    basis set group =>   3
Atom   9H    basis set group =>   2
Atom  10H    basis set group =>   2
Atom  11H    basis set group =>   2
Atom  12O    basis set group =>   1
Atom  13H    basis set group =>   2
Atom  14C    basis set group =>   3
Atom  15H    basis set group =>   2
Atom  16H    basis set group =>   2
Atom  17H    basis set group =>   2


           ************************************************************
           *        Program running with 6 parallel MPI-processes     *
           *              working on a common directory               *
           ************************************************************
------------------------------------------------------------------------------
                           ORCA GTO INTEGRAL CALCULATION
------------------------------------------------------------------------------

                         BASIS SET STATISTICS AND STARTUP INFO

 # of primitive gaussian shells          ...  192
 # of primitive gaussian functions       ...  372
 # of contracted shells                  ...  114
 # of contracted basis functions         ...  258
 Highest angular momentum                ...    3
 Maximum contraction depth               ...    6
 Integral package used                   ... LIBINT
 Integral threshhold            Thresh   ...  2.500e-11
 Primitive cut-off              TCut     ...  2.500e-12


------------------------------ INTEGRAL EVALUATION ----------------------------


 * One electron integrals 
 Pre-screening matrix                    ... done
 Shell pair data                         ... done (   0.001 sec)



           ************************************************************
           *        Program running with 6 parallel MPI-processes     *
           *              working on a common directory               *
           ************************************************************
-------------------------------------------------------------------------------
                                 ORCA SCF
-------------------------------------------------------------------------------

------------
SCF SETTINGS
------------
Hamiltonian:
 Ab initio Hamiltonian  Method          .... Hartree-Fock(GTOs)


General Settings:
 Integral files         IntName         .... 12meoh.boyd.etal.mol3,6,9-orca.engrad-mp2.def2tzvp.frozencore
 Hartree-Fock type      HFTyp           .... RHF
 Total Charge           Charge          ....    0
 Multiplicity           Mult            ....    1
 Number of Electrons    NEL             ....   54
 Basis Dimension        Dim             ....  258
 Nuclear Repulsion      ENuc            ....    192.5904378952 Eh

Convergence Acceleration:
 DIIS                   CNVDIIS         .... on
   Start iteration      DIISMaxIt       ....    12
   Startup error        DIISStart       ....  0.200000
   # of expansion vecs  DIISMaxEq       ....     5
   Bias factor          DIISBfac        ....   1.050
   Max. coefficient     DIISMaxC        ....  10.000
 Newton-Raphson         CNVNR           .... off
 SOSCF                  CNVSOSCF        .... on
   Start iteration      SOSCFMaxIt      ....   150
   Startup grad/error   SOSCFStart      ....  0.003300
 Level Shifting         CNVShift        .... on
   Level shift para.    LevelShift      ....    0.2500
   Turn off err/grad.   ShiftErr        ....    0.0010
 Zerner damping         CNVZerner       .... off
 Static damping         CNVDamp         .... on
   Fraction old density DampFac         ....    0.7000
   Max. Damping (<1)    DampMax         ....    0.9800
   Min. Damping (>=0)   DampMin         ....    0.0000
   Turn off err/grad.   DampErr         ....    0.1000
 Fernandez-Rico         CNVRico         .... off

SCF Procedure:
 Maximum # iterations   MaxIter         ....   125
 SCF integral mode      SCFMode         .... Direct
   Integral package                     .... LIBINT
 Reset frequency        DirectResetFreq ....    20
 Integral Threshold     Thresh          ....  2.500e-11 Eh
 Primitive CutOff       TCut            ....  2.500e-12 Eh

Convergence Tolerance:
 Convergence Check Mode ConvCheckMode   .... Total+1el-Energy
 Convergence forced     ConvForced      .... 1
 Energy Change          TolE            ....  1.000e-08 Eh
 1-El. energy change                    ....  1.000e-05 Eh
 Orbital Gradient       TolG            ....  1.000e-05
 Orbital Rotation angle TolX            ....  1.000e-05
 DIIS Error             TolErr          ....  5.000e-07


Diagonalization of the overlap matrix:
Smallest eigenvalue                        ... 1.674e-03
Time for diagonalization                   ...    0.010 sec
Threshold for overlap eigenvalues          ... 1.000e-08
Number of eigenvalues below threshold      ... 0
Time for construction of square roots      ...    0.005 sec
Total time needed                          ...    0.015 sec

-------------------
DFT GRID GENERATION
-------------------

General Integration Accuracy     IntAcc      ...  4.340
Radial Grid Type                 RadialGrid  ... Gauss-Chebyshev
Angular Grid (max. acc.)         AngularGrid ... Lebedev-110
Angular grid pruning method      GridPruning ... 3 (G Style)
Weight generation scheme         WeightScheme... Becke
Basis function cutoff            BFCut       ...    1.0000e-11
Integration weight cutoff        WCut        ...    1.0000e-14
Grids for H and He will be reduced by one unit

# of grid points (after initial pruning)     ...  19644 (   0.0 sec)
# of grid points (after weights+screening)   ...  18897 (   0.0 sec)
nearest neighbour list constructed           ...    0.0 sec
Grid point re-assignment to atoms done       ...    0.0 sec
Grid point division into batches done        ...    0.0 sec
Reduced shell lists constructed in    0.0 sec

Total number of grid points                  ...    18897
Total number of batches                      ...      303
Average number of points per batch           ...       62
Average number of grid points per atom       ...     1050
Average number of shells per batch           ...    44.33 (38.88%)
Average number of basis functions per batch  ...    93.60 (36.28%)
Average number of large shells per batch     ...    31.88 (71.93%)
Average number of large basis fcns per batch ...    74.12 (79.19%)
Maximum spatial batch extension              ...  14.96, 20.95, 13.37 au
Average spatial batch extension              ...   0.58,  0.64,  0.57 au

Time for grid setup =    0.053 sec

------------------------------
INITIAL GUESS: MODEL POTENTIAL
------------------------------
Loading Hartree-Fock densities                     ... done
Calculating cut-offs                               ... done
Setting up the integral package                    ... done
Initializing the effective Hamiltonian             ... done
Starting the Coulomb interaction                   ... done (   0.0 sec)
Reading the grid                                   ... done
Mapping shells                                     ... done
Starting the XC term evaluation                    ... done (   0.0 sec)
Transforming the Hamiltonian                       ... done (   0.0 sec)
Diagonalizing the Hamiltonian                      ... done (   0.0 sec)
Back transforming the eigenvectors                 ... done (   0.0 sec)
Now organizing SCF variables                       ... done
                      ------------------
                      INITIAL GUESS DONE (   0.2 sec)
                      ------------------
--------------
SCF ITERATIONS
--------------
ITER       Energy         Delta-E        Max-DP      RMS-DP      [F,P]     Damp
               ***  Starting incremental Fock matrix formation  ***
  0   -344.9075973397   0.000000000000 0.03661595  0.00076875  0.2886674 0.7000
  1   -345.0390124112  -0.131415071551 0.02502506  0.00056893  0.2178334 0.7000
                               ***Turning on DIIS***
  2   -345.1147641431  -0.075751731891 0.01459390  0.00035045  0.1628353 0.7000
  3   -345.9934698597  -0.878705716585 0.00760690  0.00019445  0.1199632 0.7000
  4   -345.8406580942   0.152811765467 0.01625758  0.00046250  0.0845654 0.0000
  5   -345.2991006632   0.541557431011 0.00184831  0.00006092  0.0054809 0.0000
                      *** Initiating the SOSCF procedure ***
                           *** Shutting down DIIS ***
                      *** Re-Reading the Fockian *** 
                      *** Removing any level shift *** 
ITER      Energy       Delta-E        Grad      Rot      Max-DP    RMS-DP
  6   -345.27384533   0.0252553380  0.000797  0.000797  0.000785  0.000031
               *** Restarting incremental Fock matrix formation ***
  7   -345.26855668   0.0052886465  0.000351  0.000263  0.000451  0.000017
  8   -345.26856358  -0.0000069028  0.000197  0.000195  0.000307  0.000012
  9   -345.26856528  -0.0000016981  0.000028  0.000028  0.000052  0.000002
 10   -345.26856533  -0.0000000496  0.000006  0.000011  0.000016  0.000001
                 **** Energy Check signals convergence ****
              ***Rediagonalizing the Fockian in SOSCF/NRSCF***

               *****************************************************
               *                     SUCCESS                       *
               *           SCF CONVERGED AFTER  11 CYCLES          *
               *****************************************************


----------------
TOTAL SCF ENERGY
----------------

Total Energy       :         -345.26856533 Eh           -9395.23531 eV

Components:
Nuclear Repulsion  :          192.59043790 Eh            5240.65224 eV
Electronic Energy  :         -537.85900323 Eh          -14635.88755 eV
One Electron Energy:         -854.24239711 Eh          -23245.11738 eV
Two Electron Energy:          316.38339388 Eh            8609.22983 eV

Virial components:
Potential Energy   :         -689.87946348 Eh          -18772.57458 eV
Kinetic Energy     :          344.61089814 Eh            9377.33927 eV
Virial Ratio       :            2.00190843


---------------
SCF CONVERGENCE
---------------

  Last Energy change         ...   -4.0613e-09  Tolerance :   1.0000e-08
  Last MAX-Density change    ...    4.2102e-06  Tolerance :   1.0000e-07
  Last RMS-Density change    ...    1.3027e-07  Tolerance :   5.0000e-09
  Last Orbital Gradient      ...    2.0029e-06  Tolerance :   1.0000e-05
  Last Orbital Rotation      ...    3.9886e-06  Tolerance :   1.0000e-05

             **** THE GBW FILE WAS UPDATED (12meoh.boyd.etal.mol3,6,9-orca.engrad-mp2.def2tzvp.frozencore.gbw) ****
             **** DENSITY FILE WAS UPDATED (12meoh.boyd.etal.mol3,6,9-orca.engrad-mp2.def2tzvp.frozencore.scfp) ****
             **** ENERGY FILE WAS UPDATED (12meoh.boyd.etal.mol3,6,9-orca.engrad-mp2.def2tzvp.frozencore.en.tmp) ****
             **** THE GBW FILE WAS UPDATED (12meoh.boyd.etal.mol3,6,9-orca.engrad-mp2.def2tzvp.frozencore.gbw) ****
             **** DENSITY FILE WAS UPDATED (12meoh.boyd.etal.mol3,6,9-orca.engrad-mp2.def2tzvp.frozencore.scfp) ****
----------------
ORBITAL ENERGIES
----------------

  NO   OCC          E(Eh)            E(eV) 
   0   2.0000     -20.558535      -559.4262 
   1   2.0000     -20.553505      -559.2893 
   2   2.0000     -20.552794      -559.2700 
   3   2.0000     -11.272617      -306.7435 
   4   2.0000     -11.268471      -306.6307 
   5   2.0000     -11.267282      -306.5983 
   6   2.0000      -1.347635       -36.6710 
   7   2.0000      -1.343599       -36.5612 
   8   2.0000      -1.341596       -36.5067 
   9   2.0000      -0.920123       -25.0378 
  10   2.0000      -0.916113       -24.9287 
  11   2.0000      -0.914999       -24.8984 
  12   2.0000      -0.682067       -18.5600 
  13   2.0000      -0.678643       -18.4668 
  14   2.0000      -0.676581       -18.4107 
  15   2.0000      -0.618436       -16.8285 
  16   2.0000      -0.613544       -16.6954 
  17   2.0000      -0.612532       -16.6678 
  18   2.0000      -0.591076       -16.0840 
  19   2.0000      -0.588345       -16.0097 
  20   2.0000      -0.587022       -15.9737 
  21   2.0000      -0.501726       -13.6527 
  22   2.0000      -0.495669       -13.4878 
  23   2.0000      -0.495454       -13.4820 
  24   2.0000      -0.450369       -12.2552 
  25   2.0000      -0.444591       -12.0979 
  26   2.0000      -0.444476       -12.0948 
  27   0.0000       0.132508         3.6057 
  28   0.0000       0.136568         3.7162 
  29   0.0000       0.144422         3.9299 
  30   0.0000       0.174892         4.7590 
  31   0.0000       0.176374         4.7994 
  32   0.0000       0.183750         5.0001 
  33   0.0000       0.227808         6.1990 
  34   0.0000       0.229834         6.2541 
  35   0.0000       0.231540         6.3005 
  36   0.0000       0.232754         6.3336 
  37   0.0000       0.232939         6.3386 
  38   0.0000       0.235992         6.4217 
  39   0.0000       0.251734         6.8500 
  40   0.0000       0.257974         7.0198 
  41   0.0000       0.261059         7.1038 
  42   0.0000       0.330615         8.9965 
  43   0.0000       0.333224         9.0675 
  44   0.0000       0.336861         9.1664 
  45   0.0000       0.341376         9.2893 
  46   0.0000       0.341708         9.2983 
  47   0.0000       0.345647         9.4055 
  48   0.0000       0.459186        12.4951 
  49   0.0000       0.463258        12.6059 
  50   0.0000       0.466073        12.6825 
  51   0.0000       0.519529        14.1371 
  52   0.0000       0.524554        14.2738 
  53   0.0000       0.528464        14.3802 
  54   0.0000       0.566546        15.4165 
  55   0.0000       0.571605        15.5542 
  56   0.0000       0.581594        15.8260 
  57   0.0000       0.607635        16.5346 
  58   0.0000       0.611873        16.6499 
  59   0.0000       0.617884        16.8135 
  60   0.0000       0.620026        16.8718 
  61   0.0000       0.622868        16.9491 
  62   0.0000       0.626556        17.0495 
  63   0.0000       0.656020        17.8512 
  64   0.0000       0.661671        18.0050 
  65   0.0000       0.662746        18.0342 
  66   0.0000       0.682409        18.5693 
  67   0.0000       0.687313        18.7027 
  68   0.0000       0.688148        18.7255 
  69   0.0000       0.704417        19.1682 
  70   0.0000       0.708185        19.2707 
  71   0.0000       0.711851        19.3704 
  72   0.0000       0.763018        20.7628 
  73   0.0000       0.768789        20.9198 
  74   0.0000       0.774145        21.0655 
  75   0.0000       0.881295        23.9813 
  76   0.0000       0.885779        24.1033 
  77   0.0000       0.887489        24.1498 
  78   0.0000       0.920788        25.0559 
  79   0.0000       0.926340        25.2070 
  80   0.0000       0.929662        25.2974 
  81   0.0000       0.950333        25.8599 
  82   0.0000       0.957174        26.0460 
  83   0.0000       0.958695        26.0874 
  84   0.0000       1.090113        29.6635 
  85   0.0000       1.094634        29.7865 
  86   0.0000       1.095323        29.8053 
  87   0.0000       1.115517        30.3548 
  88   0.0000       1.117840        30.4180 
  89   0.0000       1.119758        30.4702 
  90   0.0000       1.244297        33.8590 
  91   0.0000       1.250290        34.0221 
  92   0.0000       1.250788        34.0357 
  93   0.0000       1.532826        41.7103 
  94   0.0000       1.539424        41.8899 
  95   0.0000       1.541313        41.9413 
  96   0.0000       1.656090        45.0645 
  97   0.0000       1.663195        45.2578 
  98   0.0000       1.664912        45.3046 
  99   0.0000       1.705549        46.4103 
 100   0.0000       1.709542        46.5190 
 101   0.0000       1.711076        46.5607 
 102   0.0000       1.775602        48.3166 
 103   0.0000       1.779363        48.4189 
 104   0.0000       1.780152        48.4404 
 105   0.0000       1.789922        48.7062 
 106   0.0000       1.794266        48.8245 
 107   0.0000       1.794457        48.8297 
 108   0.0000       1.796246        48.8783 
 109   0.0000       1.796584        48.8875 
 110   0.0000       1.797489        48.9122 
 111   0.0000       1.835607        49.9494 
 112   0.0000       1.839664        50.0598 
 113   0.0000       1.857036        50.5325 
 114   0.0000       1.860511        50.6271 
 115   0.0000       1.865569        50.7647 
 116   0.0000       1.866838        50.7992 
 117   0.0000       1.964177        53.4480 
 118   0.0000       1.964799        53.4649 
 119   0.0000       1.966555        53.5127 
 120   0.0000       2.137328        58.1596 
 121   0.0000       2.138683        58.1965 
 122   0.0000       2.146364        58.4055 
 123   0.0000       2.209311        60.1184 
 124   0.0000       2.209423        60.1215 
 125   0.0000       2.210911        60.1619 
 126   0.0000       2.242228        61.0141 
 127   0.0000       2.247894        61.1683 
 128   0.0000       2.247962        61.1702 
 129   0.0000       2.285255        62.1849 
 130   0.0000       2.289970        62.3132 
 131   0.0000       2.295327        62.4590 
 132   0.0000       2.301577        62.6291 
 133   0.0000       2.308655        62.8217 
 134   0.0000       2.313626        62.9570 
 135   0.0000       2.442522        66.4644 
 136   0.0000       2.447945        66.6120 
 137   0.0000       2.448819        66.6357 
 138   0.0000       2.550569        69.4045 
 139   0.0000       2.551807        69.4382 
 140   0.0000       2.552619        69.4603 
 141   0.0000       2.559255        69.6409 
 142   0.0000       2.559825        69.6564 
 143   0.0000       2.566540        69.8391 
 144   0.0000       2.590828        70.5000 
 145   0.0000       2.596977        70.6673 
 146   0.0000       2.599424        70.7339 
 147   0.0000       2.627165        71.4888 
 148   0.0000       2.636096        71.7318 
 149   0.0000       2.637568        71.7719 
 150   0.0000       2.696078        73.3640 
 151   0.0000       2.697914        73.4140 
 152   0.0000       2.701020        73.4985 
 153   0.0000       2.778985        75.6200 
 154   0.0000       2.782304        75.7103 
 155   0.0000       2.783370        75.7393 
 156   0.0000       2.840008        77.2806 
 157   0.0000       2.841952        77.3334 
 158   0.0000       2.844099        77.3919 
 159   0.0000       2.901493        78.9536 
 160   0.0000       2.901715        78.9597 
 161   0.0000       2.905558        79.0642 
 162   0.0000       3.043325        82.8131 
 163   0.0000       3.049510        82.9814 
 164   0.0000       3.054551        83.1185 
 165   0.0000       3.107925        84.5709 
 166   0.0000       3.112708        84.7011 
 167   0.0000       3.117901        84.8424 
 168   0.0000       3.135747        85.3280 
 169   0.0000       3.140775        85.4648 
 170   0.0000       3.143608        85.5419 
 171   0.0000       3.243997        88.2736 
 172   0.0000       3.249568        88.4252 
 173   0.0000       3.251148        88.4682 
 174   0.0000       3.355147        91.2982 
 175   0.0000       3.359316        91.4116 
 176   0.0000       3.360740        91.4504 
 177   0.0000       3.419600        93.0520 
 178   0.0000       3.424154        93.1760 
 179   0.0000       3.425002        93.1990 
 180   0.0000       3.538800        96.2956 
 181   0.0000       3.540444        96.3404 
 182   0.0000       3.541834        96.3782 
 183   0.0000       3.637802        98.9896 
 184   0.0000       3.639355        99.0319 
 185   0.0000       3.643214        99.1369 
 186   0.0000       3.663233        99.6816 
 187   0.0000       3.676064       100.0308 
 188   0.0000       3.682069       100.1942 
 189   0.0000       3.720022       101.2270 
 190   0.0000       3.727972       101.4433 
 191   0.0000       3.728960       101.4701 
 192   0.0000       3.861258       105.0702 
 193   0.0000       3.866658       105.2171 
 194   0.0000       3.868789       105.2751 
 195   0.0000       3.887928       105.7959 
 196   0.0000       3.894539       105.9758 
 197   0.0000       3.895239       105.9948 
 198   0.0000       3.900976       106.1510 
 199   0.0000       3.907178       106.3197 
 200   0.0000       3.908749       106.3625 
 201   0.0000       4.250481       115.6615 
 202   0.0000       4.252328       115.7117 
 203   0.0000       4.255582       115.8003 
 204   0.0000       4.491385       122.2168 
 205   0.0000       4.498618       122.4136 
 206   0.0000       4.500549       122.4662 
 207   0.0000       4.535855       123.4269 
 208   0.0000       4.537569       123.4735 
 209   0.0000       4.539030       123.5133 
 210   0.0000       4.707652       128.1017 
 211   0.0000       4.711398       128.2037 
 212   0.0000       4.713338       128.2565 
 213   0.0000       4.864939       132.3817 
 214   0.0000       4.869960       132.5184 
 215   0.0000       4.875905       132.6801 
 216   0.0000       5.693994       154.9414 
 217   0.0000       5.696483       155.0092 
 218   0.0000       5.697641       155.0407 
 219   0.0000       5.770678       157.0281 
 220   0.0000       5.771535       157.0515 
 221   0.0000       5.773513       157.1053 
 222   0.0000       5.874706       159.8589 
 223   0.0000       5.880996       160.0300 
 224   0.0000       5.886535       160.1808 
 225   0.0000       6.154534       167.4734 
 226   0.0000       6.169800       167.8888 
 227   0.0000       6.170836       167.9170 
 228   0.0000       6.177559       168.0999 
 229   0.0000       6.181987       168.2204 
 230   0.0000       6.184900       168.2997 
 231   0.0000       6.323595       172.0738 
 232   0.0000       6.326136       172.1429 
 233   0.0000       6.330102       172.2508 
 234   0.0000       6.654545       181.0794 
 235   0.0000       6.657518       181.1603 
 236   0.0000       6.670129       181.5034 
 237   0.0000       6.947522       189.0517 
 238   0.0000       6.951681       189.1649 
 239   0.0000       6.953005       189.2009 
 240   0.0000       7.152894       194.6402 
 241   0.0000       7.153676       194.6614 
 242   0.0000       7.154831       194.6928 
 243   0.0000       7.216375       196.3676 
 244   0.0000       7.222740       196.5408 
 245   0.0000       7.224816       196.5972 
 246   0.0000       7.454491       202.8470 
 247   0.0000       7.462181       203.0563 
 248   0.0000       7.465248       203.1397 
 249   0.0000       7.589756       206.5278 
 250   0.0000       7.590347       206.5439 
 251   0.0000       7.600275       206.8140 
 252   0.0000      23.357291       635.5842 
 253   0.0000      23.366927       635.8464 
 254   0.0000      23.373484       636.0248 
 255   0.0000      45.144462      1228.4433 
 256   0.0000      45.152608      1228.6649 
 257   0.0000      45.155981      1228.7567 

                    ********************************
                    * MULLIKEN POPULATION ANALYSIS *
                    ********************************

-----------------------
MULLIKEN ATOMIC CHARGES
-----------------------
   0 O :   -0.544493
   1 H :    0.330367
   2 C :   -0.077856
   3 H :    0.106562
   4 H :    0.091501
   5 H :    0.093920
   6 O :   -0.549189
   7 H :    0.331842
   8 C :   -0.072737
   9 H :    0.106357
  10 H :    0.094003
  11 H :    0.089858
  12 O :   -0.544210
  13 H :    0.333842
  14 C :   -0.073212
  15 H :    0.106106
  16 H :    0.089867
  17 H :    0.087471
Sum of atomic charges:    0.0000000

--------------------------------
MULLIKEN REDUCED ORBITAL CHARGES
--------------------------------
  0 O s       :     3.806439  s :     3.806439
      pz      :     1.388551  p :     4.703613
      px      :     1.741046
      py      :     1.574016
      dz2     :     0.010692  d :     0.032719
      dxz     :     0.003839
      dyz     :     0.007992
      dx2y2   :     0.002701
      dxy     :     0.007496
      f0      :     0.000396  f :     0.001722
      f+1     :     0.000370
      f-1     :     0.000183
      f+2     :     0.000089
      f-2     :     0.000280
      f+3     :     0.000350
      f-3     :     0.000054
  1 H s       :     0.626943  s :     0.626943
      pz      :     0.011250  p :     0.042690
      px      :     0.015717
      py      :     0.015724
  2 C s       :     3.195075  s :     3.195075
      pz      :     0.707169  p :     2.759116
      px      :     1.015047
      py      :     1.036899
      dz2     :     0.026950  d :     0.114772
      dxz     :     0.035294
      dyz     :     0.026156
      dx2y2   :     0.007527
      dxy     :     0.018845
      f0      :     0.002572  f :     0.008894
      f+1     :     0.001997
      f-1     :     0.001755
      f+2     :     0.000722
      f-2     :     0.000789
      f+3     :     0.001016
      f-3     :     0.000041
  3 H s       :     0.872318  s :     0.872318
      pz      :     0.003900  p :     0.021120
      px      :     0.007219
      py      :     0.010001
  4 H s       :     0.888372  s :     0.888372
      pz      :     0.006514  p :     0.020126
      px      :     0.010206
      py      :     0.003407
  5 H s       :     0.886013  s :     0.886013
      pz      :     0.002135  p :     0.020066
      px      :     0.006743
      py      :     0.011188
  6 O s       :     3.804700  s :     3.804700
      pz      :     1.471375  p :     4.710345
      px      :     1.580066
      py      :     1.658904
      dz2     :     0.003450  d :     0.032415
      dxz     :     0.006482
      dyz     :     0.010742
      dx2y2   :     0.006837
      dxy     :     0.004904
      f0      :     0.000218  f :     0.001729
      f+1     :     0.000180
      f-1     :     0.000374
      f+2     :     0.000465
      f-2     :     0.000282
      f+3     :     0.000045
      f-3     :     0.000164
  7 H s       :     0.625814  s :     0.625814
      pz      :     0.014106  p :     0.042344
      px      :     0.017137
      py      :     0.011102
  8 C s       :     3.193390  s :     3.193390
      pz      :     0.824454  p :     2.755507
      px      :     1.052573
      py      :     0.878480
      dz2     :     0.024439  d :     0.114913
      dxz     :     0.035402
      dyz     :     0.018442
      dx2y2   :     0.027513
      dxy     :     0.009117
      f0      :     0.001605  f :     0.008927
      f+1     :     0.000567
      f-1     :     0.001695
      f+2     :     0.002457
      f-2     :     0.001465
      f+3     :     0.000454
      f-3     :     0.000683
  9 H s       :     0.872511  s :     0.872511
      pz      :     0.005915  p :     0.021132
      px      :     0.011627
      py      :     0.003591
 10 H s       :     0.885789  s :     0.885789
      pz      :     0.007593  p :     0.020208
      px      :     0.009753
      py      :     0.002862
 11 H s       :     0.890146  s :     0.890146
      pz      :     0.003358  p :     0.019996
      px      :     0.003504
      py      :     0.013134
 12 O s       :     3.804681  s :     3.804681
      pz      :     1.747285  p :     4.705151
      px      :     1.595335
      py      :     1.362531
      dz2     :     0.003185  d :     0.032628
      dxz     :     0.007709
      dyz     :     0.005871
      dx2y2   :     0.011841
      dxy     :     0.004022
      f0      :     0.000243  f :     0.001751
      f+1     :     0.000122
      f-1     :     0.000228
      f+2     :     0.000347
      f-2     :     0.000203
      f+3     :     0.000235
      f-3     :     0.000372
 13 H s       :     0.623388  s :     0.623388
      pz      :     0.014870  p :     0.042771
      px      :     0.017194
      py      :     0.010706
 14 C s       :     3.191850  s :     3.191850
      pz      :     1.029496  p :     2.756216
      px      :     1.045630
      py      :     0.681090
      dz2     :     0.018723  d :     0.116142
      dxz     :     0.010172
      dyz     :     0.030629
      dx2y2   :     0.019645
      dxy     :     0.036972
      f0      :     0.001547  f :     0.009004
      f+1     :     0.000547
      f-1     :     0.001083
      f+2     :     0.001546
      f-2     :     0.000383
      f+3     :     0.001843
      f-3     :     0.002055
 15 H s       :     0.872782  s :     0.872782
      pz      :     0.007342  p :     0.021112
      px      :     0.010251
      py      :     0.003518
 16 H s       :     0.890066  s :     0.890066
      pz      :     0.004106  p :     0.020067
      px      :     0.010454
      py      :     0.005507
 17 H s       :     0.892534  s :     0.892534
      pz      :     0.013356  p :     0.019995
      px      :     0.004072
      py      :     0.002568


                     *******************************
                     * LOEWDIN POPULATION ANALYSIS *
                     *******************************

----------------------
LOEWDIN ATOMIC CHARGES
----------------------
   0 O :   -0.131084
   1 H :    0.190521
   2 C :   -0.336715
   3 H :    0.100761
   4 H :    0.088234
   5 H :    0.088283
   6 O :   -0.132994
   7 H :    0.192782
   8 C :   -0.336656
   9 H :    0.100642
  10 H :    0.088863
  11 H :    0.087449
  12 O :   -0.125077
  13 H :    0.191828
  14 C :   -0.341711
  15 H :    0.100664
  16 H :    0.087419
  17 H :    0.086790

-------------------------------
LOEWDIN REDUCED ORBITAL CHARGES
-------------------------------
  0 O s       :     3.396824  s :     3.396824
      pz      :     1.435366  p :     4.661613
      px      :     1.667664
      py      :     1.558583
      dz2     :     0.021166  d :     0.068521
      dxz     :     0.013920
      dyz     :     0.019205
      dx2y2   :     0.002793
      dxy     :     0.011437
      f0      :     0.001059  f :     0.004126
      f+1     :     0.000875
      f-1     :     0.000834
      f+2     :     0.000302
      f-2     :     0.000490
      f+3     :     0.000543
      f-3     :     0.000024
  1 H s       :     0.665603  s :     0.665603
      pz      :     0.030311  p :     0.143876
      px      :     0.049391
      py      :     0.064174
  2 C s       :     2.862788  s :     2.862788
      pz      :     0.843765  p :     2.993181
      px      :     1.066007
      py      :     1.083409
      dz2     :     0.119311  d :     0.423431
      dxz     :     0.127885
      dyz     :     0.088821
      dx2y2   :     0.020902
      dxy     :     0.066512
      f0      :     0.016868  f :     0.057315
      f+1     :     0.011182
      f-1     :     0.014141
      f+2     :     0.006982
      f-2     :     0.004547
      f+3     :     0.003000
      f-3     :     0.000594
  3 H s       :     0.840632  s :     0.840632
      pz      :     0.010851  p :     0.058607
      px      :     0.020300
      py      :     0.027456
  4 H s       :     0.853338  s :     0.853338
      pz      :     0.018078  p :     0.058428
      px      :     0.028251
      py      :     0.012098
  5 H s       :     0.853006  s :     0.853006
      pz      :     0.007945  p :     0.058711
      px      :     0.020074
      py      :     0.030693
  6 O s       :     3.396123  s :     3.396123
      pz      :     1.470661  p :     4.664390
      px      :     1.540784
      py      :     1.652945
      dz2     :     0.011345  d :     0.068390
      dxz     :     0.018288
      dyz     :     0.018879
      dx2y2   :     0.012450
      dxy     :     0.007428
      f0      :     0.000713  f :     0.004091
      f+1     :     0.000294
      f-1     :     0.000842
      f+2     :     0.000710
      f-2     :     0.000896
      f+3     :     0.000192
      f-3     :     0.000444
  7 H s       :     0.664876  s :     0.664876
      pz      :     0.040925  p :     0.142342
      px      :     0.064375
      py      :     0.037041
  8 C s       :     2.862186  s :     2.862186
      pz      :     0.925209  p :     2.992597
      px      :     1.088645
      py      :     0.978743
      dz2     :     0.086160  d :     0.424317
      dxz     :     0.115514
      dyz     :     0.093341
      dx2y2   :     0.099830
      dxy     :     0.029473
      f0      :     0.013445  f :     0.057556
      f+1     :     0.003461
      f-1     :     0.012604
      f+2     :     0.009846
      f-2     :     0.009666
      f+3     :     0.004264
      f-3     :     0.004271
  9 H s       :     0.840654  s :     0.840654
      pz      :     0.015924  p :     0.058704
      px      :     0.030948
      py      :     0.011831
 10 H s       :     0.852522  s :     0.852522
      pz      :     0.021115  p :     0.058615
      px      :     0.027401
      py      :     0.010098
 11 H s       :     0.854157  s :     0.854157
      pz      :     0.011379  p :     0.058394
      px      :     0.012564
      py      :     0.034451
 12 O s       :     3.391239  s :     3.391239
      pz      :     1.686146  p :     4.660487
      px      :     1.550673
      py      :     1.423669
      dz2     :     0.005757  d :     0.069199
      dxz     :     0.010281
      dyz     :     0.015927
      dx2y2   :     0.021164
      dxy     :     0.016069
      f0      :     0.000398  f :     0.004153
      f+1     :     0.000149
      f-1     :     0.000545
      f+2     :     0.001043
      f-2     :     0.000356
      f+3     :     0.000944
      f-3     :     0.000717
 13 H s       :     0.664068  s :     0.664068
      pz      :     0.051970  p :     0.144104
      px      :     0.063703
      py      :     0.028431
 14 C s       :     2.861231  s :     2.861231
      pz      :     1.081008  p :     2.993628
      px      :     1.083912
      py      :     0.828709
      dz2     :     0.072101  d :     0.428596
      dxz     :     0.034959
      dyz     :     0.107104
      dx2y2   :     0.091645
      dxy     :     0.122788
      f0      :     0.007620  f :     0.058255
      f+1     :     0.001633
      f-1     :     0.007438
      f+2     :     0.011806
      f-2     :     0.004407
      f+3     :     0.011572
      f-3     :     0.013780
 15 H s       :     0.840783  s :     0.840783
      pz      :     0.021101  p :     0.058553
      px      :     0.027554
      py      :     0.009899
 16 H s       :     0.854181  s :     0.854181
      pz      :     0.013757  p :     0.058400
      px      :     0.028966
      py      :     0.015676
 17 H s       :     0.855126  s :     0.855126
      pz      :     0.035652  p :     0.058083
      px      :     0.013746
      py      :     0.008686


                      *****************************
                      * MAYER POPULATION ANALYSIS *
                      *****************************

  NA   - Mulliken gross atomic population
  ZA   - Total nuclear charge
  QA   - Mulliken gross atomic charge
  VA   - Mayer's total valence
  BVA  - Mayer's bonded valence
  FA   - Mayer's free valence

  ATOM       NA         ZA         QA         VA         BVA        FA
  0 O      8.5445     8.0000    -0.5445     1.7946     1.7946     0.0000
  1 H      0.6696     1.0000     0.3304     0.8978     0.8978    -0.0000
  2 C      6.0779     6.0000    -0.0779     3.9001     3.9001    -0.0000
  3 H      0.8934     1.0000     0.1066     0.9623     0.9623    -0.0000
  4 H      0.9085     1.0000     0.0915     0.9616     0.9616     0.0000
  5 H      0.9061     1.0000     0.0939     0.9609     0.9609    -0.0000
  6 O      8.5492     8.0000    -0.5492     1.7912     1.7912    -0.0000
  7 H      0.6682     1.0000     0.3318     0.8967     0.8967    -0.0000
  8 C      6.0727     6.0000    -0.0727     3.8998     3.8998    -0.0000
  9 H      0.8936     1.0000     0.1064     0.9620     0.9620    -0.0000
 10 H      0.9060     1.0000     0.0940     0.9614     0.9614    -0.0000
 11 H      0.9101     1.0000     0.0899     0.9611     0.9611    -0.0000
 12 O      8.5442     8.0000    -0.5442     1.7952     1.7952     0.0000
 13 H      0.6662     1.0000     0.3338     0.8959     0.8959    -0.0000
 14 C      6.0732     6.0000    -0.0732     3.9063     3.9063    -0.0000
 15 H      0.8939     1.0000     0.1061     0.9616     0.9616    -0.0000
 16 H      0.9101     1.0000     0.0899     0.9614     0.9614    -0.0000
 17 H      0.9125     1.0000     0.0875     0.9600     0.9600     0.0000

  Mayer bond orders larger than 0.100000
B(  0-O ,  1-H ) :   0.8875 B(  0-O ,  2-C ) :   0.9342 B(  2-C ,  3-H ) :   0.9833 
B(  2-C ,  4-H ) :   0.9882 B(  2-C ,  5-H ) :   0.9868 B(  6-O ,  7-H ) :   0.8855 
B(  6-O ,  8-C ) :   0.9328 B(  8-C ,  9-H ) :   0.9830 B(  8-C , 10-H ) :   0.9882 
B(  8-C , 11-H ) :   0.9875 B( 12-O , 13-H ) :   0.8839 B( 12-O , 14-C ) :   0.9387 
B( 14-C , 15-H ) :   0.9833 B( 14-C , 16-H ) :   0.9888 B( 14-C , 17-H ) :   0.9866 


-------
TIMINGS
-------

Total SCF time: 0 days 0 hours 0 min 8 sec 

Total time                  ....       8.552 sec
Sum of individual times     ....       8.309 sec  ( 97.2%)

Fock matrix formation       ....       7.976 sec  ( 93.3%)
Diagonalization             ....       0.074 sec  (  0.9%)
Density matrix formation    ....       0.009 sec  (  0.1%)
Population analysis         ....       0.008 sec  (  0.1%)
Initial guess               ....       0.129 sec  (  1.5%)
Orbital Transformation      ....       0.000 sec  (  0.0%)
Orbital Orthonormalization  ....       0.000 sec  (  0.0%)
DIIS solution               ....       0.027 sec  (  0.3%)
SOSCF solution              ....       0.032 sec  (  0.4%)


           ************************************************************
           *        Program running with 6 parallel MPI-processes     *
           *              working on a common directory               *
           ************************************************************

------------------------------------------------------------------------------
                                ORCA  MP2 
------------------------------------------------------------------------------

Freezing NCore=12 chemical core electrons
MP2 will be done in the AO integral direct mode
The Q1-step will be done using symmetric double matrices
Dimension of the basis                    ...  258
Memory devoted for MP2                    ... 8000 MB   
Memory needed for all in one shot         ...  264 MB
Number of MOs that can be treated together...  120      
MP2 density construction                  ... relaxed
The MP2 gradient is requested => amplitudes will be stored on disk
Total number of MOs              ...   21
Number of MOs treated per batch  ...    4 
Number of batches necessary      ...    1 
OPERATORS   0/  0 PASS   0
-----------------------------------------------
 MP2 CORRELATION ENERGY   :     -1.251725909 Eh
-----------------------------------------------


---------------------
MP2 DENSITY FORMATION
---------------------

Completing the external part of the density      ... done
Storing the unrelaxed density                    ... done

Calculating G(D)                                 ... done
Completing the Lagrangian                        ... done
Solving the Z-vector equations                   ... 

------------------------------------------------------------------------------
                           ORCA CP-SCF CALCULATION
------------------------------------------------------------------------------

Input orbitals are from        ... 12meoh.boyd.etal.mol3,6,9-orca.engrad-mp2.def2tzvp.frozencore.gbw
Input Perturbation             ... 12meoh.boyd.etal.mol3,6,9-orca.engrad-mp2.def2tzvp.frozencore.pin.tmp
Wavefunction output            ... 12meoh.boyd.etal.mol3,6,9-orca.engrad-mp2.def2tzvp.frozencore.pout.tmp
Perturbation mode              ... Real perturbation (singlet)
Solver                         ... POPLE
Max. number of iterations      ... 128
Convergence tolerance          ... 1.000e-08
Integral handling              ... Direct
Number of perturbations        ... 1
Number of operators            ... 1
Orbital ranges used for CP-SCF:
 Operator 0:  Orbitals   0... 26  to  27...257
Variables per vector in CP-SCF ... 6237
Number of vectors sought       ... 1
     CP-SCF ITERATION   0: 
     CP-SCF ITERATION   1:      0.000358497800
     CP-SCF ITERATION   2:      0.000016754056
     CP-SCF ITERATION   3:      0.000002334395
     CP-SCF ITERATION   4:      0.000000152957
     CP-SCF ITERATION   5:      0.000000004545
                                                 ... done
Finalizing the relaxed density                   ... done
Transforming P to the AO basis                   ... done
Storing the relaxed density                      ... done

------------------------------------
ENERGY WEIGHTED DENSITY FINALIZATION
------------------------------------

Gathering the parts of the W-matrix              ...                                                      done
Forming the Z-density                            ... done
Transforming Z to the AO basis                   ... done
Calculating G(Z)                                 ... done
Finalizing the W-matrix                          ...                                                      done
Transforming W to the AO basis and storing       ... done

                *********************************************
                * UNRELAXED MP2 DENSITY POPULATION ANALYSIS *
                *********************************************

------------------------------------------------------------------------------
                           ORCA POPULATION ANALYSIS
------------------------------------------------------------------------------
Input electron density              ... 12meoh.boyd.etal.mol3,6,9-orca.engrad-mp2.def2tzvp.frozencore.pmp2ur
BaseName (.gbw .S,...)              ... 12meoh.boyd.etal.mol3,6,9-orca.engrad-mp2.def2tzvp.frozencore

                    ********************************
                    * MULLIKEN POPULATION ANALYSIS *
                    ********************************

-----------------------
MULLIKEN ATOMIC CHARGES
-----------------------
   0 O :   -0.533422
   1 H :    0.327671
   2 C :   -0.093850
   3 H :    0.109351
   4 H :    0.093931
   5 H :    0.096321
   6 O :   -0.538122
   7 H :    0.329117
   8 C :   -0.088688
   9 H :    0.109143
  10 H :    0.096421
  11 H :    0.092272
  12 O :   -0.533257
  13 H :    0.331176
  14 C :   -0.089149
  15 H :    0.108898
  16 H :    0.092294
  17 H :    0.089894
Sum of atomic charges:   -0.0000000

--------------------------------
MULLIKEN REDUCED ORBITAL CHARGES
--------------------------------
  0 O s       :     3.801176  s :     3.801176
      pz      :     1.377098  p :     4.667918
      px      :     1.728616
      py      :     1.562205
      dz2     :     0.015963  d :     0.059950
      dxz     :     0.009461
      dyz     :     0.013332
      dx2y2   :     0.008308
      dxy     :     0.012885
      f0      :     0.000784  f :     0.004378
      f+1     :     0.000750
      f-1     :     0.000579
      f+2     :     0.000465
      f-2     :     0.000654
      f+3     :     0.000715
      f-3     :     0.000431
  1 H s       :     0.627918  s :     0.627918
      pz      :     0.011941  p :     0.044410
      px      :     0.016365
      py      :     0.016104
  2 C s       :     3.193169  s :     3.193169
      pz      :     0.709405  p :     2.753040
      px      :     1.011174
      py      :     1.032461
      dz2     :     0.029964  d :     0.135415
      dxz     :     0.038850
      dyz     :     0.030780
      dx2y2   :     0.012643
      dxy     :     0.023178
      f0      :     0.002974  f :     0.012226
      f+1     :     0.002468
      f-1     :     0.002208
      f+2     :     0.001193
      f-2     :     0.001329
      f+3     :     0.001456
      f-3     :     0.000598
  3 H s       :     0.866440  s :     0.866440
      pz      :     0.005024  p :     0.024209
      px      :     0.008250
      py      :     0.010936
  4 H s       :     0.882752  s :     0.882752
      pz      :     0.007582  p :     0.023317
      px      :     0.011171
      py      :     0.004565
  5 H s       :     0.880434  s :     0.880434
      pz      :     0.003311  p :     0.023245
      px      :     0.007798
      py      :     0.012136
  6 O s       :     3.799442  s :     3.799442
      pz      :     1.460296  p :     4.674607
      px      :     1.568872
      py      :     1.645439
      dz2     :     0.009101  d :     0.059691
      dxz     :     0.011947
      dyz     :     0.016004
      dx2y2   :     0.012287
      dxy     :     0.010352
      f0      :     0.000597  f :     0.004382
      f+1     :     0.000556
      f-1     :     0.000756
      f+2     :     0.000840
      f-2     :     0.000666
      f+3     :     0.000427
      f-3     :     0.000541
  7 H s       :     0.626835  s :     0.626835
      pz      :     0.014638  p :     0.044048
      px      :     0.017436
      py      :     0.011974
  8 C s       :     3.191498  s :     3.191498
      pz      :     0.824468  p :     2.749418
      px      :     1.048044
      py      :     0.876906
      dz2     :     0.028973  d :     0.135515
      dxz     :     0.039185
      dyz     :     0.021727
      dx2y2   :     0.031282
      dxy     :     0.014350
      f0      :     0.002066  f :     0.012256
      f+1     :     0.001129
      f-1     :     0.002101
      f+2     :     0.002855
      f-2     :     0.001963
      f+3     :     0.000971
      f-3     :     0.001171
  9 H s       :     0.866637  s :     0.866637
      pz      :     0.006990  p :     0.024220
      px      :     0.012531
      py      :     0.004699
 10 H s       :     0.880186  s :     0.880186
      pz      :     0.008631  p :     0.023393
      px      :     0.010734
      py      :     0.004028
 11 H s       :     0.884542  s :     0.884542
      pz      :     0.004503  p :     0.023186
      px      :     0.004652
      py      :     0.014031
 12 O s       :     3.799465  s :     3.799465
      pz      :     1.734332  p :     4.669479
      px      :     1.584051
      py      :     1.351096
      dz2     :     0.008810  d :     0.059904
      dxz     :     0.013055
      dyz     :     0.011387
      dx2y2   :     0.017059
      dxy     :     0.009593
      f0      :     0.000614  f :     0.004409
      f+1     :     0.000496
      f-1     :     0.000608
      f+2     :     0.000733
      f-2     :     0.000577
      f+3     :     0.000628
      f-3     :     0.000752
 13 H s       :     0.624362  s :     0.624362
      pz      :     0.015539  p :     0.044461
      px      :     0.017519
      py      :     0.011403
 14 C s       :     3.189974  s :     3.189974
      pz      :     1.025187  p :     2.750114
      px      :     1.041225
      py      :     0.683702
      dz2     :     0.022562  d :     0.136725
      dxz     :     0.015051
      dyz     :     0.035147
      dx2y2   :     0.023124
      dxy     :     0.040842
      f0      :     0.002007  f :     0.012336
      f+1     :     0.001065
      f-1     :     0.001553
      f+2     :     0.002015
      f-2     :     0.000901
      f+3     :     0.002364
      f-3     :     0.002430
 15 H s       :     0.866899  s :     0.866899
      pz      :     0.008354  p :     0.024203
      px      :     0.011198
      py      :     0.004651
 16 H s       :     0.884441  s :     0.884441
      pz      :     0.005241  p :     0.023265
      px      :     0.011422
      py      :     0.006602
 17 H s       :     0.886908  s :     0.886908
      pz      :     0.014250  p :     0.023198
      px      :     0.005207
      py      :     0.003741


                     *******************************
                     * LOEWDIN POPULATION ANALYSIS *
                     *******************************

----------------------
LOEWDIN ATOMIC CHARGES
----------------------
   0 O :   -0.123252
   1 H :    0.188662
   2 C :   -0.347379
   3 H :    0.102520
   4 H :    0.089693
   5 H :    0.089757
   6 O :   -0.125197
   7 H :    0.190886
   8 C :   -0.347236
   9 H :    0.102401
  10 H :    0.090326
  11 H :    0.088914
  12 O :   -0.117371
  13 H :    0.190005
  14 C :   -0.352252
  15 H :    0.102417
  16 H :    0.088872
  17 H :    0.088234

-------------------------------
LOEWDIN REDUCED ORBITAL CHARGES
-------------------------------
  0 O s       :     3.393341  s :     3.393341
      pz      :     1.423111  p :     4.625715
      px      :     1.655618
      py      :     1.546986
      dz2     :     0.027202  d :     0.097163
      dxz     :     0.019647
      dyz     :     0.024626
      dx2y2   :     0.008410
      dxy     :     0.017277
      f0      :     0.001517  f :     0.007033
      f+1     :     0.001301
      f-1     :     0.001265
      f+2     :     0.000689
      f-2     :     0.000905
      f+3     :     0.000950
      f-3     :     0.000406
  1 H s       :     0.663886  s :     0.663886
      pz      :     0.031199  p :     0.147452
      px      :     0.050516
      py      :     0.065737
  2 C s       :     2.861645  s :     2.861645
      pz      :     0.842295  p :     2.979367
      px      :     1.060068
      py      :     1.077005
      dz2     :     0.122824  d :     0.444173
      dxz     :     0.131212
      dyz     :     0.092676
      dx2y2   :     0.026104
      dxy     :     0.071357
      f0      :     0.017615  f :     0.062194
      f+1     :     0.011951
      f-1     :     0.014767
      f+2     :     0.007594
      f-2     :     0.005268
      f+3     :     0.003780
      f-3     :     0.001219
  3 H s       :     0.833856  s :     0.833856
      pz      :     0.012353  p :     0.063625
      px      :     0.021923
      py      :     0.029349
  4 H s       :     0.846640  s :     0.846640
      pz      :     0.019994  p :     0.063667
      px      :     0.030309
      py      :     0.013364
  5 H s       :     0.846312  s :     0.846312
      pz      :     0.009337  p :     0.063931
      px      :     0.021695
      py      :     0.032899
  6 O s       :     3.392654  s :     3.392654
      pz      :     1.459158  p :     4.628489
      px      :     1.529812
      py      :     1.639519
      dz2     :     0.016901  d :     0.097057
      dxz     :     0.024013
      dyz     :     0.025044
      dx2y2   :     0.018090
      dxy     :     0.013008
      f0      :     0.001117  f :     0.006997
      f+1     :     0.000688
      f-1     :     0.001289
      f+2     :     0.001169
      f-2     :     0.001309
      f+3     :     0.000582
      f-3     :     0.000843
  7 H s       :     0.663213  s :     0.663213
      pz      :     0.041970  p :     0.145901
      px      :     0.065881
      py      :     0.038050
  8 C s       :     2.861043  s :     2.861043
      pz      :     0.922103  p :     2.978762
      px      :     1.082189
      py      :     0.974470
      dz2     :     0.090038  d :     0.444998
      dxz     :     0.119225
      dyz     :     0.097333
      dx2y2   :     0.104049
      dxy     :     0.034353
      f0      :     0.013936  f :     0.062432
      f+1     :     0.004155
      f-1     :     0.013395
      f+2     :     0.010901
      f-2     :     0.010214
      f+3     :     0.004870
      f-3     :     0.004961
  9 H s       :     0.833880  s :     0.833880
      pz      :     0.017552  p :     0.063718
      px      :     0.033013
      py      :     0.013153
 10 H s       :     0.845834  s :     0.845834
      pz      :     0.023031  p :     0.063840
      px      :     0.029409
      py      :     0.011400
 11 H s       :     0.847452  s :     0.847452
      pz      :     0.012811  p :     0.063634
      px      :     0.013819
      py      :     0.037004
 12 O s       :     3.387808  s :     3.387808
      pz      :     1.673689  p :     4.624648
      px      :     1.539652
      py      :     1.411307
      dz2     :     0.011520  d :     0.097848
      dxz     :     0.016217
      dyz     :     0.021411
      dx2y2   :     0.027216
      dxy     :     0.021484
      f0      :     0.000803  f :     0.007067
      f+1     :     0.000534
      f-1     :     0.000960
      f+2     :     0.001471
      f-2     :     0.000760
      f+3     :     0.001359
      f-3     :     0.001180
 13 H s       :     0.662372  s :     0.662372
      pz      :     0.053175  p :     0.147623
      px      :     0.065160
      py      :     0.029288
 14 C s       :     2.860098  s :     2.860098
      pz      :     1.074734  p :     2.979761
      px      :     1.077549
      py      :     0.827478
      dz2     :     0.076544  d :     0.449251
      dxz     :     0.040212
      dyz     :     0.110749
      dx2y2   :     0.095739
      dxy     :     0.126006
      f0      :     0.008348  f :     0.063141
      f+1     :     0.002329
      f-1     :     0.008209
      f+2     :     0.012348
      f-2     :     0.005075
      f+3     :     0.012146
      f-3     :     0.014688
 15 H s       :     0.834008  s :     0.834008
      pz      :     0.022711  p :     0.063575
      px      :     0.029482
      py      :     0.011382
 16 H s       :     0.847470  s :     0.847470
      pz      :     0.015070  p :     0.063657
      px      :     0.031079
      py      :     0.017508
 17 H s       :     0.848432  s :     0.848432
      pz      :     0.038115  p :     0.063334
      px      :     0.015060
      py      :     0.010159


                      *****************************
                      * MAYER POPULATION ANALYSIS *
                      *****************************

  NA   - Mulliken gross atomic population
  ZA   - Total nuclear charge
  QA   - Mulliken gross atomic charge
  VA   - Mayer's total valence
  BVA  - Mayer's bonded valence
  FA   - Mayer's free valence

  ATOM       NA         ZA         QA         VA         BVA        FA
  0 O      8.5334     8.0000    -0.5334     2.0931     1.6884     0.4047
  1 H      0.6723     1.0000     0.3277     0.9043     0.8513     0.0529
  2 C      6.0939     6.0000    -0.0939     4.0051     3.7264     0.2787
  3 H      0.8906     1.0000     0.1094     0.9712     0.9242     0.0470
  4 H      0.9061     1.0000     0.0939     0.9715     0.9224     0.0492
  5 H      0.9037     1.0000     0.0963     0.9708     0.9218     0.0490
  6 O      8.5381     8.0000    -0.5381     2.0907     1.6853     0.4054
  7 H      0.6709     1.0000     0.3291     0.9031     0.8501     0.0531
  8 C      6.0887     6.0000    -0.0887     4.0045     3.7265     0.2780
  9 H      0.8909     1.0000     0.1091     0.9710     0.9240     0.0470
 10 H      0.9036     1.0000     0.0964     0.9712     0.9222     0.0490
 11 H      0.9077     1.0000     0.0923     0.9711     0.9219     0.0493
 12 O      8.5333     8.0000    -0.5333     2.0933     1.6897     0.4036
 13 H      0.6688     1.0000     0.3312     0.9023     0.8500     0.0524
 14 C      6.0891     6.0000    -0.0891     4.0107     3.7325     0.2782
 15 H      0.8911     1.0000     0.1089     0.9706     0.9236     0.0471
 16 H      0.9077     1.0000     0.0923     0.9714     0.9222     0.0493
 17 H      0.9101     1.0000     0.0899     0.9701     0.9206     0.0495

  Mayer bond orders larger than 0.100000
B(  0-O ,  1-H ) :   0.8420 B(  0-O ,  2-C ) :   0.8750 B(  2-C ,  3-H ) :   0.9458 
B(  2-C ,  4-H ) :   0.9499 B(  2-C ,  5-H ) :   0.9487 B(  6-O ,  7-H ) :   0.8399 
B(  6-O ,  8-C ) :   0.8741 B(  8-C ,  9-H ) :   0.9456 B(  8-C , 10-H ) :   0.9500 
B(  8-C , 11-H ) :   0.9493 B( 12-O , 13-H ) :   0.8389 B( 12-O , 14-C ) :   0.8798 
B( 14-C , 15-H ) :   0.9459 B( 14-C , 16-H ) :   0.9505 B( 14-C , 17-H ) :   0.9482 



                *******************************************
                * RELAXED MP2 DENSITY POPULATION ANALYSIS *
                *******************************************

------------------------------------------------------------------------------
                           ORCA POPULATION ANALYSIS
------------------------------------------------------------------------------
Input electron density              ... 12meoh.boyd.etal.mol3,6,9-orca.engrad-mp2.def2tzvp.frozencore.pmp2re
BaseName (.gbw .S,...)              ... 12meoh.boyd.etal.mol3,6,9-orca.engrad-mp2.def2tzvp.frozencore

                    ********************************
                    * MULLIKEN POPULATION ANALYSIS *
                    ********************************

-----------------------
MULLIKEN ATOMIC CHARGES
-----------------------
   0 O :   -0.496057
   1 H :    0.322430
   2 C :   -0.175945
   3 H :    0.127489
   4 H :    0.110079
   5 H :    0.112007
   6 O :   -0.501033
   7 H :    0.323880
   8 C :   -0.170662
   9 H :    0.127258
  10 H :    0.112450
  11 H :    0.108313
  12 O :   -0.495772
  13 H :    0.325517
  14 C :   -0.171406
  15 H :    0.127100
  16 H :    0.108510
  17 H :    0.105842
Sum of atomic charges:   -0.0000000

--------------------------------
MULLIKEN REDUCED ORBITAL CHARGES
--------------------------------
  0 O s       :     3.802972  s :     3.802972
      pz      :     1.369431  p :     4.630966
      px      :     1.716362
      py      :     1.545173
      dz2     :     0.014694  d :     0.057797
      dxz     :     0.009548
      dyz     :     0.013061
      dx2y2   :     0.008263
      dxy     :     0.012231
      f0      :     0.000767  f :     0.004322
      f+1     :     0.000744
      f-1     :     0.000570
      f+2     :     0.000467
      f-2     :     0.000646
      f+3     :     0.000698
      f-3     :     0.000431
  1 H s       :     0.632579  s :     0.632579
      pz      :     0.012242  p :     0.044992
      px      :     0.016882
      py      :     0.015868
  2 C s       :     3.215236  s :     3.215236
      pz      :     0.726005  p :     2.823189
      px      :     1.037627
      py      :     1.059557
      dz2     :     0.027318  d :     0.125853
      dxz     :     0.035814
      dyz     :     0.032350
      dx2y2   :     0.011467
      dxy     :     0.018903
      f0      :     0.002812  f :     0.011668
      f+1     :     0.002355
      f-1     :     0.002147
      f+2     :     0.001104
      f-2     :     0.001302
      f+3     :     0.001358
      f-3     :     0.000589
  3 H s       :     0.849455  s :     0.849455
      pz      :     0.005001  p :     0.023055
      px      :     0.007925
      py      :     0.010129
  4 H s       :     0.867706  s :     0.867706
      pz      :     0.007149  p :     0.022215
      px      :     0.010269
      py      :     0.004797
  5 H s       :     0.865867  s :     0.865867
      pz      :     0.003561  p :     0.022126
      px      :     0.007476
      py      :     0.011089
  6 O s       :     3.800919  s :     3.800919
      pz      :     1.452230  p :     4.638209
      px      :     1.554449
      py      :     1.631530
      dz2     :     0.009158  d :     0.057577
      dxz     :     0.011676
      dyz     :     0.014676
      dx2y2   :     0.011881
      dxy     :     0.010185
      f0      :     0.000597  f :     0.004328
      f+1     :     0.000558
      f-1     :     0.000735
      f+2     :     0.000815
      f-2     :     0.000664
      f+3     :     0.000426
      f-3     :     0.000533
  7 H s       :     0.631527  s :     0.631527
      pz      :     0.014730  p :     0.044593
      px      :     0.017152
      py      :     0.012711
  8 C s       :     3.213587  s :     3.213587
      pz      :     0.844393  p :     2.819481
      px      :     1.074821
      py      :     0.900266
      dz2     :     0.029454  d :     0.125900
      dxz     :     0.035026
      dyz     :     0.019665
      dx2y2   :     0.026819
      dxy     :     0.014935
      f0      :     0.001921  f :     0.011695
      f+1     :     0.001105
      f-1     :     0.002017
      f+2     :     0.002724
      f-2     :     0.001878
      f+3     :     0.000919
      f-3     :     0.001130
  9 H s       :     0.849676  s :     0.849676
      pz      :     0.006745  p :     0.023066
      px      :     0.011520
      py      :     0.004801
 10 H s       :     0.865263  s :     0.865263
      pz      :     0.008081  p :     0.022286
      px      :     0.009915
      py      :     0.004291
 11 H s       :     0.869606  s :     0.869606
      pz      :     0.004612  p :     0.022081
      px      :     0.004863
      py      :     0.012606
 12 O s       :     3.800786  s :     3.800786
      pz      :     1.718907  p :     4.632862
      px      :     1.569684
      py      :     1.344270
      dz2     :     0.008678  d :     0.057772
      dxz     :     0.012288
      dyz     :     0.011426
      dx2y2   :     0.015492
      dxy     :     0.009889
      f0      :     0.000608  f :     0.004353
      f+1     :     0.000495
      f-1     :     0.000599
      f+2     :     0.000721
      f-2     :     0.000571
      f+3     :     0.000633
      f-3     :     0.000725
 13 H s       :     0.629462  s :     0.629462
      pz      :     0.016042  p :     0.045021
      px      :     0.017287
      py      :     0.011691
 14 C s       :     3.211971  s :     3.211971
      pz      :     1.053242  p :     2.820447
      px      :     1.068233
      py      :     0.698972
      dz2     :     0.017911  d :     0.127209
      dxz     :     0.012756
      dyz     :     0.036425
      dx2y2   :     0.021448
      dxy     :     0.038669
      f0      :     0.001894  f :     0.011779
      f+1     :     0.001022
      f-1     :     0.001491
      f+2     :     0.001954
      f-2     :     0.000847
      f+3     :     0.002278
      f-3     :     0.002292
 15 H s       :     0.849851  s :     0.849851
      pz      :     0.007992  p :     0.023049
      px      :     0.010401
      py      :     0.004656
 16 H s       :     0.869327  s :     0.869327
      pz      :     0.005369  p :     0.022163
      px      :     0.010486
      py      :     0.006307
 17 H s       :     0.872057  s :     0.872057
      pz      :     0.012863  p :     0.022101
      px      :     0.005329
      py      :     0.003909


                     *******************************
                     * LOEWDIN POPULATION ANALYSIS *
                     *******************************

----------------------
LOEWDIN ATOMIC CHARGES
----------------------
   0 O :   -0.110218
   1 H :    0.191319
   2 C :   -0.382377
   3 H :    0.109791
   4 H :    0.095741
   5 H :    0.095743
   6 O :   -0.112364
   7 H :    0.193548
   8 C :   -0.382077
   9 H :    0.109667
  10 H :    0.096294
  11 H :    0.095068
  12 O :   -0.104505
  13 H :    0.192463
  14 C :   -0.387075
  15 H :    0.109712
  16 H :    0.095003
  17 H :    0.094267

-------------------------------
LOEWDIN REDUCED ORBITAL CHARGES
-------------------------------
  0 O s       :     3.396315  s :     3.396315
      pz      :     1.418958  p :     4.610140
      px      :     1.649721
      py      :     1.541461
      dz2     :     0.026609  d :     0.096619
      dxz     :     0.019881
      dyz     :     0.024691
      dx2y2   :     0.008505
      dxy     :     0.016933
      f0      :     0.001556  f :     0.007144
      f+1     :     0.001328
      f-1     :     0.001282
      f+2     :     0.000700
      f-2     :     0.000917
      f+3     :     0.000954
      f-3     :     0.000407
  1 H s       :     0.660603  s :     0.660603
      pz      :     0.031171  p :     0.148078
      px      :     0.050968
      py      :     0.065939
  2 C s       :     2.867577  s :     2.867577
      pz      :     0.851870  p :     3.019327
      px      :     1.075408
      py      :     1.092049
      dz2     :     0.119975  d :     0.434800
      dxz     :     0.129477
      dyz     :     0.093029
      dx2y2   :     0.024185
      dxy     :     0.068133
      f0      :     0.017142  f :     0.060673
      f+1     :     0.011542
      f-1     :     0.014590
      f+2     :     0.007502
      f-2     :     0.005033
      f+3     :     0.003664
      f-3     :     0.001200
  3 H s       :     0.826224  s :     0.826224
      pz      :     0.012715  p :     0.063984
      px      :     0.022094
      py      :     0.029176
  4 H s       :     0.839843  s :     0.839843
      pz      :     0.020429  p :     0.064416
      px      :     0.030148
      py      :     0.013839
  5 H s       :     0.839601  s :     0.839601
      pz      :     0.009987  p :     0.064655
      px      :     0.021922
      py      :     0.032747
  6 O s       :     3.395584  s :     3.395584
      pz      :     1.456694  p :     4.613130
      px      :     1.526641
      py      :     1.629794
      dz2     :     0.017242  d :     0.096541
      dxz     :     0.023912
      dyz     :     0.024349
      dx2y2   :     0.017862
      dxy     :     0.013176
      f0      :     0.001140  f :     0.007110
      f+1     :     0.000694
      f-1     :     0.001316
      f+2     :     0.001195
      f-2     :     0.001331
      f+3     :     0.000590
      f-3     :     0.000843
  7 H s       :     0.659937  s :     0.659937
      pz      :     0.041795  p :     0.146515
      px      :     0.065833
      py      :     0.038887
  8 C s       :     2.866978  s :     2.866978
      pz      :     0.933798  p :     3.018723
      px      :     1.097449
      py      :     0.987476
      dz2     :     0.090693  d :     0.435483
      dxz     :     0.115962
      dyz     :     0.093754
      dx2y2   :     0.100943
      dxy     :     0.034131
      f0      :     0.013665  f :     0.060894
      f+1     :     0.003986
      f-1     :     0.013103
      f+2     :     0.010619
      f-2     :     0.009915
      f+3     :     0.004758
      f-3     :     0.004847
  9 H s       :     0.826253  s :     0.826253
      pz      :     0.017784  p :     0.064080
      px      :     0.032757
      py      :     0.013539
 10 H s       :     0.839131  s :     0.839131
      pz      :     0.023330  p :     0.064575
      px      :     0.029325
      py      :     0.011920
 11 H s       :     0.840545  s :     0.840545
      pz      :     0.013259  p :     0.064387
      px      :     0.014282
      py      :     0.036846
 12 O s       :     3.390716  s :     3.390716
      pz      :     1.665752  p :     4.609288
      px      :     1.536332
      py      :     1.407204
      dz2     :     0.011436  d :     0.097321
      dxz     :     0.015907
      dyz     :     0.021751
      dx2y2   :     0.026382
      dxy     :     0.021846
      f0      :     0.000819  f :     0.007180
      f+1     :     0.000535
      f-1     :     0.000975
      f+2     :     0.001487
      f-2     :     0.000771
      f+3     :     0.001384
      f-3     :     0.001208
 13 H s       :     0.659342  s :     0.659342
      pz      :     0.053832  p :     0.148195
      px      :     0.065100
      py      :     0.029263
 14 C s       :     2.865985  s :     2.865985
      pz      :     1.090524  p :     3.019597
      px      :     1.092999
      py      :     0.836075
      dz2     :     0.072617  d :     0.439906
      dxz     :     0.037736
      dyz     :     0.112230
      dx2y2   :     0.092716
      dxy     :     0.124607
      f0      :     0.008140  f :     0.061586
      f+1     :     0.002253
      f-1     :     0.007946
      f+2     :     0.012107
      f-2     :     0.004960
      f+3     :     0.011684
      f-3     :     0.014497
 15 H s       :     0.826351  s :     0.826351
      pz      :     0.022823  p :     0.063938
      px      :     0.029357
      py      :     0.011758
 16 H s       :     0.840570  s :     0.840570
      pz      :     0.015466  p :     0.064427
      px      :     0.030935
      py      :     0.018026
 17 H s       :     0.841642  s :     0.841642
      pz      :     0.037811  p :     0.064091
      px      :     0.015480
      py      :     0.010800


                      *****************************
                      * MAYER POPULATION ANALYSIS *
                      *****************************

  NA   - Mulliken gross atomic population
  ZA   - Total nuclear charge
  QA   - Mulliken gross atomic charge
  VA   - Mayer's total valence
  BVA  - Mayer's bonded valence
  FA   - Mayer's free valence

  ATOM       NA         ZA         QA         VA         BVA        FA
  0 O      8.4961     8.0000    -0.4961     2.1471     1.7489     0.3982
  1 H      0.6776     1.0000     0.3224     0.9067     0.8536     0.0530
  2 C      6.1759     6.0000    -0.1759     4.0267     3.7503     0.2765
  3 H      0.8725     1.0000     0.1275     0.9628     0.9163     0.0465
  4 H      0.8899     1.0000     0.1101     0.9640     0.9155     0.0486
  5 H      0.8880     1.0000     0.1120     0.9638     0.9154     0.0484
  6 O      8.5010     8.0000    -0.5010     2.1449     1.7460     0.3989
  7 H      0.6761     1.0000     0.3239     0.9055     0.8524     0.0532
  8 C      6.1707     6.0000    -0.1707     4.0262     3.7504     0.2758
  9 H      0.8727     1.0000     0.1273     0.9626     0.9161     0.0464
 10 H      0.8875     1.0000     0.1125     0.9635     0.9151     0.0484
 11 H      0.8917     1.0000     0.1083     0.9642     0.9156     0.0487
 12 O      8.4958     8.0000    -0.4958     2.1482     1.7512     0.3971
 13 H      0.6745     1.0000     0.3255     0.9052     0.8527     0.0525
 14 C      6.1714     6.0000    -0.1714     4.0322     3.7562     0.2760
 15 H      0.8729     1.0000     0.1271     0.9622     0.9157     0.0465
 16 H      0.8915     1.0000     0.1085     0.9644     0.9157     0.0487
 17 H      0.8942     1.0000     0.1058     0.9625     0.9136     0.0489

  Mayer bond orders larger than 0.100000
B(  0-O ,  1-H ) :   0.8422 B(  0-O ,  2-C ) :   0.9266 B(  2-C ,  3-H ) :   0.9377 
B(  2-C ,  4-H ) :   0.9393 B(  2-C ,  5-H ) :   0.9383 B(  6-O ,  7-H ) :   0.8401 
B(  6-O ,  8-C ) :   0.9257 B(  8-C ,  9-H ) :   0.9376 B(  8-C , 10-H ) :   0.9393 
B(  8-C , 11-H ) :   0.9390 B( 12-O , 13-H ) :   0.8393 B( 12-O , 14-C ) :   0.9317 
B( 14-C , 15-H ) :   0.9378 B( 14-C , 16-H ) :   0.9401 B( 14-C , 17-H ) :   0.9372 



----------------------------------
MP2 DERIVATIVE INTEGRAL GENERATION
----------------------------------


Input Wavefunction Amplitudes       ... 12meoh.boyd.etal.mol3,6,9-orca.engrad-mp2.def2tzvp.frozencore.mp2tsaa.tmp
Input Correlated Electron Density   ... 12meoh.boyd.etal.mol3,6,9-orca.engrad-mp2.def2tzvp.frozencore.pmp2re
Input Energy Weighted Density       ... 12meoh.boyd.etal.mol3,6,9-orca.engrad-mp2.def2tzvp.frozencore.wmp2.tmp
Input SCF Electron Density          ... 12meoh.boyd.etal.mol3,6,9-orca.engrad-mp2.def2tzvp.frozencore.scfp

One-Electron Terms    ...
                        ... One-Electron Terms done
Prescreening matrices              ... done

Batch handling in the gradient evaluation:
Memory available                      ... 8000.0 MB
Memory per occupied orbital in Q2     ...   10.7 MB
Memory per occupied orbital in Q3     ...    0.1 MB
Total memory requirement per |i>      ...   10.8 MB
Max. Number of orbitals possible      ...    743
Number of orbitals treated per batch  ...     21
Number of batches to be done          ...      1
Batch   0: i=    6 ...    26

---------------------------------------
MP2 TOTAL ENERGY:     -346.520291242 Eh
---------------------------------------

The final MP2 gradient
  0:   0.01201183  -0.02105843   0.00819819
  1:  -0.01488267   0.02205602  -0.01022578
  2:   0.00294550  -0.00080876  -0.00216936
  3:   0.00217605  -0.00282238   0.00322005
  4:  -0.00361069  -0.00031105   0.00099403
  5:   0.00123316   0.00295531  -0.00000204
  6:   0.02055602   0.00796736  -0.01658754
  7:  -0.02463629  -0.00775168   0.01901613
  8:   0.00455276   0.00263609   0.00090733
  9:   0.00291949  -0.00031532  -0.00359562
 10:  -0.00281689   0.00074115  -0.00116305
 11:  -0.00058351  -0.00348534   0.00129158
 12:  -0.01792159   0.00997776  -0.01349819
 13:   0.02197726  -0.01055017   0.01500939
 14:  -0.00365815  -0.00427664  -0.00308351
 15:  -0.00302421   0.00315972  -0.00181437
 16:   0.00319583   0.00042544  -0.00043781
 17:  -0.00043391   0.00146093   0.00394056

-----------------------------------
NORM OF THE MP2 GRADIENT:  0.070053
-----------------------------------

-------------------------   --------------------
FINAL SINGLE POINT ENERGY      -346.520291241808
-------------------------   --------------------


                            ***************************************
                            *     ORCA property calculations      *
                            ***************************************

                                    ---------------------
                                    Active property flags
                                    ---------------------
   (+) Dipole Moment


------------------------------------------------------------------------------
                       ORCA ELECTRIC PROPERTIES CALCULATION
------------------------------------------------------------------------------

Dipole Moment Calculation                       ... on
Quadrupole Moment Calculation                   ... off
Polarizability Calculation                      ... off
GBWName                                         ... 12meoh.boyd.etal.mol3,6,9-orca.engrad-mp2.def2tzvp.frozencore.gbw
Electron density file                           ... 12meoh.boyd.etal.mol3,6,9-orca.engrad-mp2.def2tzvp.frozencore.scfp
The origin for moment calculation is the CENTER OF MASS  = ( 0.218719, -0.148093 -1.335966)

-------------
DIPOLE MOMENT
-------------
                                X             Y             Z
Electronic contribution:     -0.35351      -1.03653      -0.72606
Nuclear contribution   :      0.16043       1.47020       1.39729
                        -----------------------------------------
Total Dipole Moment    :     -0.19308       0.43367       0.67123
                        -----------------------------------------
Magnitude (a.u.)       :      0.82213
Magnitude (Debye)      :      2.08969



--------------------
Rotational spectrum 
--------------------
 
Rotational constants in cm-1:     0.026564     0.015148     0.009974 
Rotational constants in MHz :   796.380561   454.138912   299.011143 

 Dipole components along the rotational axes: 
x,y,z [a.u.] :    -0.125373    -0.636290     0.505286 
x,y,z [Debye]:    -0.318673    -1.617320     1.284336 

 

                         *** MP2 UNRELAXED DENSITY ***

------------------------------------------------------------------------------
                       ORCA ELECTRIC PROPERTIES CALCULATION
------------------------------------------------------------------------------

Dipole Moment Calculation                       ... on
Quadrupole Moment Calculation                   ... off
Polarizability Calculation                      ... off
GBWName                                         ... 12meoh.boyd.etal.mol3,6,9-orca.engrad-mp2.def2tzvp.frozencore.gbw
Electron density file                           ... 12meoh.boyd.etal.mol3,6,9-orca.engrad-mp2.def2tzvp.frozencore.pmp2ur
The origin for moment calculation is the CENTER OF MASS  = ( 0.218719, -0.148093 -1.335966)

-------------
DIPOLE MOMENT
-------------
                                X             Y             Z
Electronic contribution:     -0.35138      -1.04687      -0.73941
Nuclear contribution   :      0.16043       1.47020       1.39729
                        -----------------------------------------
Total Dipole Moment    :     -0.19095       0.42333       0.65788
                        -----------------------------------------
Magnitude (a.u.)       :      0.80528
Magnitude (Debye)      :      2.04685



--------------------
Rotational spectrum 
--------------------
 
Rotational constants in cm-1:     0.026564     0.015148     0.009974 
Rotational constants in MHz :   796.380561   454.138912   299.011143 

 Dipole components along the rotational axes: 
x,y,z [a.u.] :    -0.125122    -0.623179     0.494433 
x,y,z [Debye]:    -0.318034    -1.583995     1.256750 

 

                           *** MP2 RELAXED DENSITY ***

------------------------------------------------------------------------------
                       ORCA ELECTRIC PROPERTIES CALCULATION
------------------------------------------------------------------------------

Dipole Moment Calculation                       ... on
Quadrupole Moment Calculation                   ... off
Polarizability Calculation                      ... off
GBWName                                         ... 12meoh.boyd.etal.mol3,6,9-orca.engrad-mp2.def2tzvp.frozencore.gbw
Electron density file                           ... 12meoh.boyd.etal.mol3,6,9-orca.engrad-mp2.def2tzvp.frozencore.pmp2re
The origin for moment calculation is the CENTER OF MASS  = ( 0.218719, -0.148093 -1.335966)

-------------
DIPOLE MOMENT
-------------
                                X             Y             Z
Electronic contribution:     -0.35113      -1.06234      -0.75688
Nuclear contribution   :      0.16043       1.47020       1.39729
                        -----------------------------------------
Total Dipole Moment    :     -0.19070       0.40785       0.64041
                        -----------------------------------------
Magnitude (a.u.)       :      0.78284
Magnitude (Debye)      :      1.98982



--------------------
Rotational spectrum 
--------------------
 
Rotational constants in cm-1:     0.026564     0.015148     0.009974 
Rotational constants in MHz :   796.380561   454.138912   299.011143 

 Dipole components along the rotational axes: 
x,y,z [a.u.] :    -0.127757    -0.605825     0.479052 
x,y,z [Debye]:    -0.324733    -1.539886     1.217655 

 

Timings for individual modules:

Sum of individual times         ...       39.600 sec (=   0.660 min)
GTO integral calculation        ...        1.099 sec (=   0.018 min)   2.8 %
SCF iterations                  ...        9.274 sec (=   0.155 min)  23.4 %
MP2 module                      ...       29.227 sec (=   0.487 min)  73.8 %
                             ****ORCA TERMINATED NORMALLY****
TOTAL RUN TIME: 0 days 0 hours 0 minutes 40 seconds 583 msec
