25
Energy:   -469.00999908
O    0.54557215   0.63619834  -2.57890558
H   -0.39126811   0.83212752  -2.56571732
H    0.83358910   0.89974384  -3.45287460
O   -1.73971664  -1.80567790  -1.67949195
H   -2.41278364  -2.40967840  -1.99317341
H   -2.08144943  -0.93622503  -1.88806391
O   -0.48190372  -0.94082751   1.81412998
H    0.30720460  -0.61928500   2.25019227
H   -0.86985671  -1.55219552   2.44019186
O   -1.63244690   1.33666282   0.70589527
H   -2.11349279   1.88527157   1.32545571
H   -1.44085035   0.53546001   1.19333416
O    1.07749510   1.27947591   0.13545239
H    0.18175321   1.53921817   0.35088747
H    1.17818966   1.50862631  -0.78844293
O    2.77375362  -1.97035222   0.85237348
H    3.56181232  -2.47479525   1.05419660
H    2.71676961  -1.32285974   1.55503852
O    1.98947862   0.13043419   2.48284876
H    1.87984488   0.74222860   1.75489279
H    2.42033302   0.64461074   3.16565093
O   -2.14978639   0.91566852  -1.98222991
H   -2.11557499   1.15715672  -1.05662477
H   -2.86335484   1.44285218  -2.34157558
K    0.69694195  -1.38221754  -0.69594337
