25
Energy:   -466.40099146
O   -0.03546884   2.10710645  -1.79987805
H    0.26713384   2.63024694  -2.54216336
H    0.13652050   1.20167297  -2.05841572
O    0.11482424  -0.61292443  -1.88731592
H   -0.65865961  -1.12541614  -2.12248995
H    0.71828449  -1.25052728  -1.50583174
O    1.28832381  -2.13605146   0.12324793
H    1.89798865  -1.62965582   0.66000121
H    1.64196953  -3.02547655   0.13271199
O   -2.44763673   1.30547093  -0.68541599
H   -3.12847630   1.97456767  -0.61471326
H   -1.73479212   1.73725249  -1.15621223
O    0.75970758   1.63304899   0.79497102
H    0.70522746   2.43213231   1.31911758
H    0.62968200   1.92791721  -0.10634909
O    0.15496541  -0.85431878   3.14462310
H    0.14168052  -1.08363332   4.07385407
H    1.08148935  -0.72352212   2.94293652
O    2.52125396  -0.29146834   1.76277336
H    2.12052790   0.50122568   1.40600080
H    3.42782004  -0.04217608   1.94228150
O   -2.54431751  -1.44979018  -1.35503138
H   -2.87026373  -0.55322154  -1.43348890
H   -3.23331207  -1.99030906  -1.74149960
K   -0.96064071  -0.58534593   0.73635079
