25
Energy:   -465.24418695
O   -0.99584580   1.23721853  -0.19605166
H   -1.20361089   1.06202956   0.72175788
H   -1.81227750   1.06307524  -0.66439474
O   -1.78262245  -1.91494017  -1.04115203
H   -2.22390429  -2.69477429  -1.37784318
H   -2.36971541  -1.19227795  -1.26321740
O   -0.73401812   0.13302305   2.33069947
H    0.14331018   0.49522113   2.45455204
H   -1.11690059   0.12625007   3.20796055
O    1.44321744   2.48434197  -0.45249154
H    1.46722215   3.42238283  -0.64152847
H    0.51224764   2.26190004  -0.45932363
O    2.10238013   0.07610367  -1.66063251
H    2.03014222   0.99886151  -1.41664173
H    2.67281704   0.07505948  -2.42928881
O    1.68953280  -3.42558830   0.91314347
H    2.56512912  -3.72599104   0.66958417
H    1.33948662  -4.12677499   1.46272216
O    1.87130156   0.80215682   1.70078764
H    1.86613372   1.50450218   1.05046761
H    2.70444729   0.90670945   2.16031869
O   -3.27623479   0.38457454  -1.55713946
H   -3.37130268   0.67809575  -2.46325162
H   -4.14559182   0.50231101  -1.17427091
K    0.50892165  -1.14114030   0.11837420
