300
 energy: -411.926162373741 gnorm: 0.004000366057 xtb: 6.3.3 (5b13467)
O         4.73456523153743   12.14107055446548    9.33714421632642
H         4.95072178765913   11.19338235844110    9.43660827478205
C         4.17698177845658   12.60487755284141   10.54047180777436
H         3.94850060203343   13.66173388811973   10.40120424128992
H         4.87545257190634   12.50174618177194   11.37621194132699
H         3.25057654203018   12.07309915929645   10.78326460971686
O         5.58615969452302    3.31780342236480    6.42572974264457
H         4.96847977229906    4.02637903323352    6.69684347783380
C         4.82464876597685    2.24480548813942    5.88661536287997
H         5.51497453457064    1.41912644344084    5.71832147661792
H         4.37153195793710    2.53623565740687    4.93628169508517
H         4.04466215609069    1.93203758413518    6.58708548778236
O        12.09774386628071    5.29544567772475   13.36248938266188
H        11.83235198639314    6.01109421336768   13.97036853519360
C        12.44057853533895    5.87888351498495   12.13376414672392
H        12.68174740150257    5.06405029926555   11.45070250136388
H        13.32007888920696    6.52775663296849   12.22926384297780
H        11.61017892497445    6.45970665207620   11.71844752594633
O        10.63631063897926    5.43469507663966    7.71320738954868
H        10.88629753192034    5.00287582561156    6.87132968048709
C        10.85283266346902    4.53643216994873    8.79033652054710
H        10.54340656632406    5.05189658136851    9.69738502092313
H        11.90993826959879    4.27279767669128    8.87011288938643
H        10.26737904726853    3.62406037426062    8.67597131694078
O         4.75838066251922    1.50123309903141   10.20828258780165
H         5.45809800771500    1.96629292347291    9.67402350761839
C         4.95961496350186    0.11076819694278   10.07086901981869
H         4.19633450389791   -0.39083471824813   10.66493651450271
H         5.94661233710115   -0.18056839237175   10.43745540738866
H         4.86151828792296   -0.19789400405136    9.02720063387298
O         3.58607178753211    3.64848861684691    3.21900693892588
H         4.07465858696221    4.24862675356787    2.62373676590624
C         2.45195351921295    4.33259022196695    3.68099247259144
H         1.88803536346622    3.63885486691679    4.30483684733100
H         1.81464909136011    4.66349309898049    2.85339984189904
H         2.73007360299910    5.20734009088489    4.28064076713843
O         5.37474145407055   12.92974122246492   13.84563330211426
H         6.18164601192395   13.15691786729613   14.32123902018691
C         4.32311676893972   13.75572710621849   14.30328330516967
H         3.44124335603836   13.48527984422038   13.72612798315122
H         4.54747654981598   14.81190356815517   14.13620495055802
H         4.12358703727826   13.59066087960528   15.36530111897229
O        15.79882710728931    9.26634820160053    8.46499982813097
H        15.14391975598147    9.91835636466717    8.15326020979570
C        16.18592124955402    9.63766280097960    9.76084788541725
H        16.90873435975726    8.89865762189799   10.10724510211445
H        15.33264148928372    9.64847843450150   10.44833784303714
H        16.65589752957724   10.62641500549959    9.77190385817434
O        11.12682390656586    7.57084673180859   14.69306338694847
H        11.31899099049346    8.35884056594737   14.15547931118393
C         9.74422516548439    7.29455830410562   14.58721338087494
H         9.54643187576239    6.42298742150779   15.20805483508585
H         9.46281302143569    7.06456693541594   13.55681251203394
H         9.14093291440506    8.13250095327843   14.94389181735754
O        15.69038246020860    4.92532106368191    2.61821420518055
H        16.20047730990852    5.43008116493374    1.97879106440900
C        15.13004560644021    5.82023950539638    3.56570110932135
H        14.57693759403227    5.21596595258592    4.27955405911752
H        14.44618349169953    6.52523307075752    3.08979997079037
H        15.90842063673461    6.37315000588947    4.09392466960445
O        10.59651025641126   14.00708074729816    4.36521454518772
H        10.25204342117409   14.79757327032497    4.79163617138950
C        10.02743721679382   12.87615476041199    5.01367986727908
H        10.48159243154044   11.99327164514572    4.56853941725334
H         8.94714925571914   12.84934848981351    4.85964907964422
H        10.23727378940821   12.89724478588114    6.08537240588146
O        15.61198414218290    2.38244574511122    3.79522382501962
H        15.80704889912987    3.25114765123528    3.40134678868180
C        16.07101535700561    1.37589345456934    2.92156773618972
H        15.80666411718950    0.41994583060329    3.37131652756510
H        17.15652599049690    1.42310452050017    2.80027498557342
H        15.59817552788345    1.45305607839176    1.93806577428269
O         9.32224938775074   11.70696674192381   10.05527333441122
H         9.49171518726938   11.81706413956339   11.01403890223398
C         7.94608227064681   11.40864005812948    9.90927045093772
H         7.76705620921206   11.19170506847768    8.85904584792384
H         7.32866352833047   12.25995604577955   10.20875952641160
H         7.67407461427405   10.53742711548563   10.50692925634953
O         3.80108046649851    4.88991768771751    7.79139850192206
H         3.32029020376664    4.11576342455624    8.14669927177639
C         2.86032387083566    5.87394947998365    7.41460405106383
H         3.40179441758517    6.65954772132113    6.88883904555315
H         2.37297578950561    6.30236485423722    8.29494634831077
H         2.09678916501957    5.45776691126069    6.75143967411875
O         5.69213295851974    2.77918640370069   12.52438138134495
H         5.32090992298626    2.30094404000921   11.75920278917182
C         5.06979860743315    2.31634079859265   13.69788203354373
H         5.47800006865680    2.89406377267839   14.52598313553733
H         5.27579661797668    1.25432974437596   13.86775046852757
H         3.98615225926477    2.46623287976377   13.66152416574151
O         3.79812770324053    8.47784879130798    5.43325250550428
H         4.70225446387886    8.66777686228487    5.11060789696788
C         2.95996931887513    8.36206073635165    4.30791824826293
H         1.97179756872158    8.07879958370860    4.67011111679453
H         3.32126511725897    7.59772656786507    3.61466402776226
H         2.88018870262762    9.31469744135633    3.77252106921946
O        11.40035710749573    9.68566311907947   12.82039532162745
H        10.86892280303311    9.12513026950243   12.19681834384310
C        12.64340733623352    9.95974310001966   12.20827136745334
H        13.21500368143004   10.57905314897902   12.89835458878015
H        12.50792771250668   10.49793522429251   11.26696625291618
H        13.19451654339281    9.03601740752412   12.01750733160511
O         7.64297177432596   10.21528414536740    6.46866886156896
H         7.54762282107446   11.17370736911845    6.28611267681120
C         9.01337157652471    9.85920232018589    6.53549384854585
H         9.04690508897023    8.83358616736377    6.89661158320969
H         9.55351399206992   10.49749654671808    7.23495994071930
H         9.49496900794806    9.91995629556239    5.55772612730045
O         8.81793204601188    1.37727186620525    5.01015508277318
H         9.74401381184034    1.06382514139024    5.07703682105349
C         8.73678809842441    2.60506120997844    5.71771771197281
H         7.70627653628251    2.94516814574847    5.64914412756505
H         9.39912097365846    3.35395531831803    5.27806913455646
H         9.00253390777005    2.45603032043074    6.76528225574328
O         2.66116640886897    2.56465602220862    8.77011070724203
H         3.35275211616516    2.15781912877840    9.33215841550586
C         1.43211613246085    2.50943212474782    9.45282766470092
H         0.68697703552318    2.98197532819950    8.81389914200329
H         1.48137044729381    3.04637361935397   10.40479212812121
H         1.12983409379088    1.47525924141099    9.64206070296624
O         6.61432065540398    2.75570459748386    8.80257403483902
H         6.32166765093533    2.87177396931512    7.86162619720581
C         6.72139699764414    4.06507670397574    9.35470378424426
H         6.86748377779463    3.96206434012680   10.42663937760909
H         5.81243747234625    4.63249960660288    9.16205052707060
H         7.57013247457472    4.59077266445140    8.92127674672136
O        11.39354078821301    4.63673997075805    5.22993536756787
H        11.96755313984924    4.00713828951224    4.75563740721413
C        11.16916067311217    5.75580238824903    4.39015663306687
H        10.48118887677979    6.41449513304623    4.91741148209544
H        10.72116959230176    5.44755952828516    3.44252011210489
H        12.09933357857262    6.29808911334387    4.20787647687331
O         8.11464111788072    6.63549556806216    7.69755949786011
H         8.98234655699735    6.18966798624385    7.69950998250353
C         7.48646101742931    6.38197700121478    6.46116099237932
H         6.52738371311543    6.89561922745813    6.47829735273603
H         7.31819347013099    5.31245492507827    6.31094777444265
H         8.08241068854202    6.77433037038144    5.63338301239000
O         7.98560864200930    4.50010690753800   12.87848020866000
H         7.18558197023323    3.96026706229205   12.78248633231395
C         9.11078778372986    3.65921683203736   12.73764168117198
H         9.99576796718962    4.25955920972044   12.94184045536042
H         9.17896156185726    3.25275348762847   11.72302861683566
H         9.07906555991396    2.83054732582630   13.45144752099956
O         4.08688472789004   12.59371522401300    5.46036390606462
H         3.81467498541973   13.49709210819580    5.65185707878538
C         3.40193256264315   11.72432992279175    6.35432234141157
H         3.66928589425599   10.70810053739920    6.07261316387669
H         2.32007244263140   11.84630532935786    6.26120018970362
H         3.70930095990542   11.91101204334113    7.38544432290025
O         9.17302708833323    1.68947666910808    9.00693933485695
H         8.26357254324628    2.04384633287445    8.95620858334799
C         9.11716469214060    0.40587572425063    9.56858999633191
H        10.14223433251376    0.04686645308239    9.65298986940943
H         8.55045227902952   -0.28511934555034    8.93385253103805
H         8.67095197264638    0.42434374712119   10.56859619512540
O         9.93388031430858    8.20828506042363   11.15262533371872
H         8.96605825499685    8.31815564250965   11.23818932938832
C        10.27842908012601    8.49433314482204    9.80553195346607
H        11.32731580077361    8.23711876987265    9.67745216436560
H        10.14035504725729    9.55450392897499    9.58639122659576
H         9.67336977298968    7.90163903626930    9.12137260865761
O         6.72675495449292    7.25677641072442    2.45035496334087
H         6.53454325399234    7.83613654225586    3.20941316968413
C         7.95323700888388    6.60102269860357    2.69588503064422
H         8.26065552589997    6.11685238445938    1.77190954246536
H         7.84368532837168    5.83996469481791    3.47347996354215
H         8.72542461705996    7.31254365400607    2.99399561311685
O         4.86209123799740    5.46102925015419    1.54549793625342
H         5.47160500016012    6.13449753264365    1.91494154613179
C         5.53481217421280    4.80829125974974    0.49574626408468
H         4.84971934930363    4.07023185387149    0.07921996279207
H         6.43174629618148    4.29741161748855    0.85826265222219
H         5.81975293825614    5.51455262150759   -0.28891164018775
O        13.40159740661058    8.21431193161360    5.08590323308550
H        13.09880032321917    7.96500680558603    5.98601908519611
C        14.58574529615517    8.97684677786335    5.22512936525083
H        14.92973503246516    9.22249176491793    4.22047241597408
H        15.36061439982727    8.41000246251597    5.74557323051491
H        14.40233728012782    9.89909770649851    5.77790770654304
O         2.59643147956452    8.50759773011609   10.07335870711064
H         3.51063243271515    8.83066261592346    9.94225876284686
C         1.75693906423385    9.18211625600854    9.16828013817826
H         0.74458347903879    8.81442674295643    9.33297612604509
H         2.04550643632232    8.98588884564881    8.13160224037720
H         1.77255852242295   10.26260582673647    9.34177382921860
O         9.57452561279287   11.71417992060302   12.79751677536752
H        10.33100418517352   11.10408821697833   12.92565392950207
C         8.47233464139132   11.18031960359870   13.49958578069756
H         8.59430804908970   11.32027815890875   14.57830970057775
H         8.33896598796606   10.11615339454186   13.29933629870219
H         7.58485355041154   11.71672833090675   13.16602819658124
O        13.34090909152907   13.62994936886365    4.23223711379030
H        12.37929225041751   13.80385637347731    4.21198809833548
C        13.58143942307329   12.41809646713346    3.55117581028447
H        14.64052634737880   12.19022652466917    3.66831268964743
H        13.35299313973133   12.51905332879097    2.48591061727623
H        12.98700582749757   11.60186677073265    3.96802300940878
O         9.99902427289534   13.77730312454602    8.36203428976182
H         9.79871894400797   12.97991279852686    8.89549014932620
C         9.97735112792923   14.88159285696130    9.22933568177434
H        10.21436744804869   15.76585639390907    8.63742503027938
H        10.72341249961907   14.78021710698798   10.02458297165361
H         8.98992493612455   15.01374265934437    9.68446721248017
O         6.61217188867365    8.32917427974547   13.97045298199612
H         5.90366325732091    8.98410630772362   14.13263651842768
C         6.11075172207110    7.04399569162406   14.30682105678037
H         6.89392955781142    6.32344821912426   14.07779752589578
H         5.21834923987972    6.81004925258193   13.72271677369913
H         5.87192045026897    6.99412444144287   15.37180483802396
O         8.32413314275862    1.79516458495332    2.42869095584609
H         8.47820980235909    1.64879172216784    3.39766151564125
C         6.97713518086384    1.48392432941835    2.14507512735307
H         6.83736190160248    1.59678633241908    1.07025671821067
H         6.29486753078453    2.15631996620414    2.67089061012284
H         6.74750697018148    0.45316683722636    2.42654250942131
O        12.91861060663578    2.78426364354501    3.83395845940225
H        13.86781855142513    2.55404082218568    3.93680870566390
C        12.64732848346813    2.91978475257188    2.44438341667911
H        11.64613544076509    3.33395545066021    2.34741467269591
H        12.67782952550486    1.94985290401649    1.94504408480815
H        13.36604932516220    3.59589870503255    1.97892709951104
O         4.59787126425638   10.20492308989255   14.13281944129914
H         4.86951237906157   11.12988044522263   14.00858944815321
C         3.73788398878356    9.84203868403136   13.06910923312082
H         3.48544819705536    8.79221891521137   13.20153827502609
H         4.23046131205374    9.96803257214738   12.10296358524523
H         2.81982721141606   10.43535098226091   13.08746457472308
O        10.57829648876268    0.54031778386998    1.26412630757750
H         9.77440731256783    0.97484522869050    1.60119350127141
C        10.82328087300493   -0.59428513879188    2.05840322667658
H        11.71072844671387   -1.08100406915198    1.65316806425104
H         9.98804757942312   -1.30230909769903    2.01837669714107
H        11.00819552931302   -0.32602387715539    3.10377716672494
O         7.16170970665575    8.33338936694566   11.33928859428777
H         6.95674077031526    8.36583015209323   12.30480742158751
C         6.97894722243403    6.97487254861549   10.92858546375580
H         7.27333004778582    6.91337872763123    9.88246692508939
H         5.93406661301747    6.68893307637736   11.04450075785074
H         7.59602632305947    6.30516278654779   11.52719923806320
O        11.50440411196442    0.87085421068966    5.21668664877023
H        11.96729456214017    1.50144155553252    4.62815600858682
C        11.93240468340467    1.12495560967421    6.53767194946416
H        11.32811818742486    0.50659501248637    7.19814812277555
H        11.78984817241236    2.17445880597589    6.80429829214583
H        12.98660397876537    0.86327857426592    6.66434679124131
O        13.89529232441205   11.17988885105486    7.77322661365399
H        14.05118621836632   12.11213645383141    7.51161661125037
C        12.51733447147940   10.89917078014365    7.65223125780296
H        12.38242951739810    9.84118669903510    7.87231943943517
H        12.15634357113813   11.09284402594482    6.63846263911447
H        11.92973080109179   11.49428564097330    8.35779602147730
O        12.58532815410268    7.42364422515981    7.59504444760676
H        11.82761933985368    6.80674886373116    7.62097530610944
C        13.67757562389151    6.81575886260277    8.25873904465628
H        14.49375918554394    7.53781737453107    8.26713955798822
H        14.00067682491501    5.91034644581821    7.73506173181430
H        13.41625426843214    6.55704276310110    9.28835435706821
O         9.66912663404238    4.08204003082408    1.60129203983073
H         9.13822812126632    3.33629008387921    1.94205446113007
C         9.84988213085888    3.87945836665448    0.21971516381738
H        10.48673438726862    4.68665585922880   -0.14141785549812
H         8.89502468875430    3.91654621802264   -0.31634569689176
H        10.33475477060987    2.92036233610100    0.01851364306515
O        14.13549616185319   13.74826479292137    6.84969473498499
H        13.94138657835801   13.69309311935352    5.88942642127777
C        13.21259420148956   14.64129324571984    7.43001008113313
H        13.49474016181419   14.75880831556193    8.47605424962492
H        12.19192281884938   14.25175417011735    7.37847455633265
H        13.25061284399281   15.61918892338850    6.94178023635924
O        11.36755031254272    9.78977097630774    4.08787970349702
H        12.07389840036499    9.23434719149613    4.48240317176647
C        11.20858600013586    9.40206111559111    2.74722878286696
H        10.39707176690509    9.99880898916333    2.33076160700862
H        10.95227736690160    8.34090911538103    2.66385416035148
H        12.11756440872447    9.59084770081039    2.16536573833992
O         5.18834933960272    9.40035212882203    9.69191122160851
H         5.88164146492756    9.07363706901607   10.30359889756983
C         5.42674084991436    8.78721067472713    8.42593963573698
H         4.66337199635198    9.14552537084843    7.73857080378320
H         5.35389156958442    7.70275845951072    8.50973151237499
H         6.40935587008544    9.05907077187858    8.04539903787473
O         6.27200499999265    9.17875538109804    4.41364207800957
H         6.78782747472557    9.45452834217940    5.21251537625061
C         6.11920514862089   10.31643721326315    3.58152069689270
H         5.68230405727827    9.97609058999057    2.64335589895592
H         7.08524272940640   10.78182064410049    3.37652300029030
H         5.45834080799481   11.05325224097726    4.04126839626828
O         6.85091373369596   12.78176203816819    5.94073529398913
H         5.91808489678712   12.62354237789249    5.70435830611649
C         6.87674006168648   13.64662265543620    7.06239264012239
H         7.91635874787750   13.72927413207066    7.37437795879608
H         6.27474870801606   13.24554332861353    7.88066812477939
H         6.50501815003063   14.64050413688043    6.79220970885497
O         3.65837578532448    6.63206496094931   11.90395993264288
H         3.13254005827142    7.22632111520180   11.34678301343694
C         3.47173006826450    5.31096701368856   11.45469796002927
H         4.17382351916502    4.68573748486839   12.00415695436817
H         3.67855283445397    5.21881352653168   10.38576548733371
H         2.44913493279987    4.96927289798547   11.65308519370088
