741
 energy: -1051.541580708700 gnorm: 0.002408052573 xtb: 6.4.1 (afa7bdf)
O         6.89689419834878    1.41216228117458    1.00459438593070
H         6.66904985146599    2.24795397993865    0.56525897877736
H         7.80505086389669    1.52509752977675    1.32455927236008
O        -1.08674429008403    5.11876740178065   -8.99633777455410
H        -0.36615594287404    5.75490419104828   -9.11145010922064
H        -0.75073219658941    4.47610301877873   -8.34314927048196
O        -5.91595309427145    1.82748456281365   -7.89838418162553
H        -6.58736724421664    1.13860230282773   -8.06292580012834
H        -5.82761584781837    2.33341853466334   -8.71170613780983
O        -4.52163611648357    7.14781672140302    6.76932262814787
H        -5.10625437750333    7.79879598089521    7.15836956848188
H        -4.61382894832356    7.24727887010580    5.78407392669006
O        -4.35365523225471    5.64355562989966   -2.61562381354138
H        -3.65355136089941    5.06345937263570   -2.25625724512616
H        -5.15994368336732    5.41079322875106   -2.13648847503382
O         1.63525577633573   -8.29658678218589    3.88066145247525
H         1.45490851140409   -7.45571899931658    3.42396560895938
H         1.26175890187794   -8.99197293262450    3.32235326694066
O         5.01606063903162    1.96330378125354    7.03683256854690
H         4.28457378276874    2.60724164468513    7.05177025502797
H         5.25668738145993    1.89770314761827    6.09172216052422
O         4.51383729194936   -5.99770392002476   -3.66585064800558
H         5.22577867790293   -5.33930196020327   -3.62391314679833
H         4.47558876255541   -6.27439633022044   -4.59152051976806
O        -7.96942143291067   -3.51874010741764    4.44318787675892
H        -7.68037410209000   -4.37809133810695    4.84579286318929
H        -8.68847414075013   -3.20119539068054    4.99063417657572
O         6.44900306785351    5.97769648475011   -3.33184313270571
H         5.88748619923250    5.42284535077807   -3.90001386732747
H         7.26815788151730    5.48107400951386   -3.20034809328840
O         0.99019524261792   -5.98565713021012    2.54021680065875
H         1.51031695162929   -5.65444217153247    1.79037029272665
H         0.62147066757613   -5.22073739789230    3.02953577199658
O        -5.68603574598859   -1.92064432591659    4.47762955695215
H        -5.29549342723418   -2.06462252886918    3.59919993436286
H        -6.51109835120067   -2.43285696857804    4.46703081921904
O         8.61926080339914   -4.46387112419757    3.98499880343897
H         8.09661878601637   -4.99292437343584    4.60143109414843
H         9.06110787743543   -3.79588120943560    4.53624780157993
O        -4.68447153366812    7.49866581946496    4.16999356020928
H        -4.64228497984486    6.74142910262905    3.55663099358183
H        -3.83188091571747    7.96942910916223    4.05195764926628
O         5.36554489320106   -2.52713706137745    0.53263771738921
H         5.64473144743198   -1.78060907436932   -0.01967094285808
H         5.97041513925452   -2.52939198640921    1.28887099143620
O        -2.28778764348554   -4.30293974238447   -7.23099313919632
H        -2.86865876963530   -5.02276635785004   -6.90494914774009
H        -1.78261478993779   -4.04286783903065   -6.44099858008549
O        -7.44621336142171    2.16764259635796   -2.18197167169672
H        -6.94853233053814    1.52529404093790   -1.63441213890892
H        -7.70551277198556    1.64168645529101   -2.97183983576504
O         2.15247899845241    2.68073559730571   -1.49493241477946
H         1.18394263017115    2.60319800231605   -1.50165664815117
H         2.34997060269970    3.63389955641622   -1.46860479880569
O        -3.64876742391283   -5.77195093776733   -1.47350966649648
H        -2.87228185527395   -5.35295672954492   -1.87671739817918
H        -3.64496309563745   -5.50974990030301   -0.54288492175071
O        -7.53822775852324   -1.93084436046006   -2.57121994790405
H        -8.31923785024805   -2.48990872363346   -2.43763843312454
H        -6.95414589563537   -2.10130171622332   -1.81741990551974
O         5.54781632632585    6.16743417540834   -0.86710715853233
H         5.18124763482471    7.04570512085080   -0.66552684402097
H         5.84809613057222    6.18682305553673   -1.81384229040792
O        -2.05787481930204   -2.38307315307135   -9.27705746675359
H        -2.93253842213822   -2.06289054028713   -9.53441367411321
H        -2.21477574424298   -2.98840973029226   -8.53847356479867
O         1.63501923253158   -2.41236305819567    5.63435269563006
H         2.24443816954246   -2.16522221735038    4.89731386025985
H         1.29039461766676   -1.58575300590259    6.00177774603015
O        -1.50652065535381   -4.31890815205239   -2.41683823366529
H        -0.61122142947477   -4.21123496943239   -2.04898057122571
H        -1.40002796218692   -4.27350037516355   -3.38745356144477
O        -7.52016342808919   -6.87081633308745    0.92226264788343
H        -7.64027017495545   -6.74656590543533   -0.02128430070214
H        -7.97907624182372   -6.12975583567813    1.35698137227843
O         8.32939084197808    1.87830711236082    4.60977283139914
H         8.74822726497013    1.72948623890126    3.74604996987965
H         8.37717773976934    1.05480339161286    5.11451266635852
O        -2.34571031080094   -1.88776061539927   11.80574160052621
H        -2.85138921710588   -2.02485738873230   10.98140876669732
H        -2.84153266833961   -2.33561906153988   12.49207421422483
O        -1.75763989145856    7.57314341207802    6.66887664017240
H        -1.40159330111057    6.67451613157772    6.76046529250652
H        -2.70449551555598    7.49474872958742    6.86821200080884
O        -3.77134092944551   -6.12839389582591   -5.98199826091015
H        -4.27462412447360   -5.37802690538836   -5.59727474884989
H        -4.43764130826933   -6.77024086606805   -6.23152279965468
O        -2.08129856458673    1.48560246217342    8.59579035951624
H        -1.46702784969280    2.22981305943362    8.73611880033992
H        -2.07315183327551    1.29173846463847    7.63813886917211
O        -2.98744595493418   -2.48567061883289   -1.20193878207089
H        -2.50945549773258   -3.15339188541508   -1.74316246754356
H        -3.94003932275274   -2.65083420727127   -1.30288574641655
O        -2.61517138655382   -1.02217296760698   -3.55116142133297
H        -2.60360763009429   -1.37435918779798   -2.65238425824453
H        -1.69181232974888   -0.91328130387534   -3.82070671413547
O        -2.43004741541205    4.22340920465951   -1.39905539963630
H        -1.76324167880838    3.55054612680530   -1.59288510392515
H        -1.95550760917975    4.90183610353364   -0.89188189396857
O         6.35062195905186   -0.37311752470955   -0.96146565747978
H         7.19785144328176   -0.57733215343533   -1.38770324257221
H         6.54417253283797    0.24526584784831   -0.22699233927489
O        -0.86650047195398   -7.70571504796158    1.54871698500922
H        -0.66234046981424   -7.81816382041644    0.59997361214937
H        -0.22674292791294   -7.05379487949265    1.89710704357211
O        -3.02207160923111   -4.18179694699429    0.85794344812255
H        -2.90274423627286   -3.49612998909612    0.15918864355978
C        -1.74196409203206   -4.56710873010032    1.31597179270023
H        -1.89708263016900   -5.35638885198142    2.04513523380419
H        -1.22510631405253   -3.73112382764209    1.79134854587054
H        -1.13465176653586   -4.94620691618943    0.49099604059443
O        -6.58447988038711   -6.55416394529762   -5.38215845881643
H        -6.05570200161349   -6.72191583488748   -4.57503858239883
C        -7.91979200239454   -6.37996685886677   -4.97649586090214
H        -8.51348083226509   -6.22085276881543   -5.87581321971315
H        -8.02108712629503   -5.51079521706230   -4.31974305561546
H        -8.29363528096914   -7.26550414285016   -4.45328420694828
O        -3.43683414027080    1.18910765550312   -9.81903355951920
H        -3.92222969337718    2.02282086648602   -9.69937182726149
C        -2.19807632511361    1.29001835614567   -9.14179658223006
H        -1.69811351015734    0.32967745226930   -9.25967216013227
H        -2.34621313042030    1.49900385573090   -8.08010996191631
H        -1.58178476219362    2.07740478630473   -9.58318052395559
O         4.94039843945152   -0.15969956974522   -3.29516074341963
H         5.33958129974548   -0.21597966398444   -2.40157717313924
C         3.53995887603094    0.00543069083744   -3.16946818883931
H         3.13162922362220    0.02906483199077   -4.17802832346274
H         3.29024068186983    0.93813915668684   -2.66051419113480
H         3.09711136706135   -0.83140366566719   -2.62573280879194
O        -0.76916711515036    3.16394480419052    1.77280995579606
H        -1.53179601589703    3.31918596718328    2.37457438463077
C         0.41123483562894    3.15807554394876    2.55548290630740
H         0.67395648736378    4.17350287760276    2.86627145828657
H         1.20771500302422    2.74339988987396    1.94119104130822
H         0.28610398698104    2.54303162448773    3.44660585714396
O         0.75950791730962    7.12570285648413   -8.19395929273609
H        -0.02880418916866    7.38774938613504   -7.69630042367924
C         1.64659926160240    6.48979113508321   -7.29786653630649
H         2.51929576910762    6.19226525797975   -7.87784717634052
H         1.18664983084977    5.60471057611186   -6.85113898246154
H         1.96303188636406    7.17273866550370   -6.50421679091163
O         0.06667089675869   -0.74764799111976   -4.38381611069397
H         0.65939017521223   -1.49495777457899   -4.18785239701184
C        -0.13078296549846   -0.72947059628756   -5.78726580907349
H        -0.80601227360503    0.09372407070375   -6.00659847719969
H        -0.57975966523398   -1.66240990767982   -6.13203952967407
H         0.81461556463086   -0.57578557854866   -6.31162710031679
O         2.31580652653235   -8.24462321761902   -0.49410955965403
H         1.44770429363072   -8.33185195720806   -0.93351445125441
C         2.54544243617022   -9.38074109426108    0.30611206063070
H         3.46385997990125   -9.19998556047500    0.86269551977587
H         2.67299824353137  -10.27494854496584   -0.31030010733604
H         1.72658414310511   -9.55273815532384    1.00698451482804
O         0.40928206017001   -0.58188267267988    1.49341833365636
H         1.04212758380556    0.12875757061644    1.27205404824316
C         0.06164344155413   -0.47344225015644    2.85339938945086
H        -0.36532466861805   -1.43164815780078    3.14996533758684
H        -0.68098160216479    0.31656234963623    3.00645873543866
H         0.93555953832251   -0.26965111702428    3.47617781115548
O        -3.54407597234810   -6.21168127495726    3.87850462361095
H        -4.03756742922587   -6.30272855647117    3.03799296691858
C        -2.91398832432803   -7.44826432365610    4.15285676224011
H        -2.26727863049641   -7.74265225739452    3.32749526068682
H        -3.65352502888168   -8.23403546633799    4.33323971961055
H        -2.30734536584843   -7.31504501059011    5.04581524697445
O        -0.89585629755990  -10.97096652014886   -0.13466893542413
H        -0.55492766954889  -10.79978256991647    0.76848166963862
C        -2.25048573056559  -11.34693494807327   -0.04876235038244
H        -2.59422834520329  -11.54079995997440   -1.06420246904007
H        -2.86022938126201  -10.54866520048354    0.38680440705862
H        -2.37367542159936  -12.25733792957093    0.54394216752461
O         9.48640520387434   -6.72186331765360    2.58169870276051
H         9.30380902716753   -5.85153376744177    2.98432564924142
C         8.87357971919215   -7.69586177347589    3.39988639283041
H         9.02331905397764   -8.66143785364378    2.91859380851037
H         7.80348137914611   -7.50304595352916    3.50493345814909
H         9.33318160643723   -7.71910185268788    4.39239126963892
O        -0.50914821638420    2.22542374958571   -0.96621295350165
H        -0.64403380764800    2.39217280137646   -0.01866027330388
C        -0.84103442299618    0.87321068304845   -1.26079595980249
H        -0.34469314553398    0.61558959509952   -2.19481432163722
H        -1.91872985434161    0.77217363379617   -1.39735319244443
H        -0.50289735929928    0.20272546490096   -0.47201212522978
O         3.34187985036783   -1.99770098736782    3.65336101918800
H         4.10488914265575   -2.48621481704381    4.01705370324340
C         2.87900582945515   -2.76188987993065    2.54335161351221
H         1.96913673509863   -2.29288672666110    2.18086100357062
H         2.66571816964213   -3.78604612700762    2.85152486943651
H         3.63097582377100   -2.76358032117223    1.75585700064559
O         1.91755606876234   -6.81632865789605   -3.11871951837413
H         2.82144063112212   -6.45965973927421   -3.10835090302595
C         1.98415105535181   -8.06962691227375   -3.76058168494226
H         0.96620749251542   -8.43982971207421   -3.85518518406378
H         2.58252979132468   -8.77620862953316   -3.17836719313903
H         2.41875560625491   -7.98154844115325   -4.76021549954084
O        -2.67756798412358    7.78056178829289   -2.69429476806984
H        -3.35089959214764    7.06686160073083   -2.75583869226851
C        -2.73971729241979    8.33131787911601   -1.39590082940369
H        -2.04628914028772    9.17076625511276   -1.36634916841289
H        -2.44925195576446    7.59230582176572   -0.64577530618034
H        -3.74517687065293    8.69501174359337   -1.17112089409314
O         9.39734750520774    1.93551894773656    2.02872067745890
H         9.34790833178200    2.92167422293216    1.95660003363956
C        10.68408683822289    1.51804338003970    1.63163016596067
H        10.70788331091157    0.43142723003996    1.70640878734337
H        11.45146265112126    1.94193707256837    2.28348011560956
H        10.89236887488361    1.81470024965195    0.60063684022181
O        -0.71865887768634   -4.24844596812761   -4.99331211926977
H         0.09497224354372   -3.72448564695309   -4.84652418048406
C        -0.31268487213914   -5.61017481226264   -5.14487718594743
H        -1.21658730265397   -6.21150759848654   -5.20618949292179
H         0.28188339910717   -5.93030119523435   -4.29123464902559
H         0.27371085988456   -5.72865193122339   -6.05497454723258
O        -7.89769070201093    0.33220636499500   -4.07724450382116
H        -7.81493689276812   -0.47748091623538   -3.53097463955572
C        -6.84148658011179    0.32447723955224   -5.02393659254572
H        -5.87076809041059    0.42245431219711   -4.53207073074259
H        -6.99793634781171    1.17460219715035   -5.68367131020874
H        -6.83961279307688   -0.59045556638285   -5.61342328050998
O         6.67509910795300   -4.23803530289084   -3.44818387270727
H         7.24731238052767   -4.95175781047302   -3.07368551087601
C         6.28988938546305   -3.37920856914209   -2.38167892501675
H         5.74363549349317   -2.54683721664843   -2.82015658117944
H         7.16419601277065   -2.99698603203678   -1.85638388480779
H         5.64300324456872   -3.89709803822029   -1.67501264181073
O        -2.32545266515662    2.43677318584773   -5.81223689145467
H        -3.19053211141227    2.85966052291329   -5.99067707731530
C        -2.31383938262684    2.04194810109860   -4.45079422603106
H        -1.28148671693577    1.82700063478977   -4.18435934511937
H        -2.91121626020541    1.13990412252961   -4.30804648982719
H        -2.69094440999824    2.83688146368109   -3.80639867381471
O         1.42958846898457   -3.47826570651289   -7.86808530397368
H         0.81803370038079   -4.19752704986020   -8.11377389330420
C         1.32153073760575   -2.47632411281229   -8.85541506827242
H         1.92147094448003   -1.62957784377386   -8.52352492327615
H         0.28610867823197   -2.15587486383971   -8.98754013571610
H         1.71166979832717   -2.82825190628230   -9.81657854410658
O         5.80818923338270   -6.11371433492835    3.76470815925746
H         5.54794774812772   -5.24997583140627    4.13784727083478
C         4.64295690473532   -6.76274772000093    3.30826609409614
H         4.96277062217283   -7.62891517298466    2.73027753033177
H         4.05103831708791   -6.10605714481969    2.66913016897853
H         4.02304343999191   -7.10800842826198    4.14130578476894
O        -8.00342093265447   -2.47815756174855   -7.22662134189840
H        -7.49097936234396   -3.27536297890161   -7.47195327827405
C        -8.59368665420673   -2.71599804065256   -5.96874443096420
H        -9.10968281861422   -1.80403587373852   -5.67081969908379
H        -7.84091759242369   -2.96184354241426   -5.21760360420115
H        -9.32081921151535   -3.53221637946158   -6.02545497492185
O        -4.65737756862160   -1.24245673375719   -9.62081694611648
H        -4.25582626264553   -0.34541812513891   -9.61228631669238
C        -5.68835056733574   -1.25269067493089  -10.58196658322450
H        -6.05487091348504   -2.27599631407476  -10.65072172732252
H        -5.31517683977734   -0.93963586934149  -11.56021239152901
H        -6.51087915692259   -0.60132171757115  -10.27804462000753
O         3.05890683739471   -4.38917690342859    6.82190514980655
H         2.44953089213606   -3.68433032357366    6.50929018009784
C         2.42541903878069   -5.63784414886007    6.60079138627506
H         3.11676331387097   -6.41023492600137    6.93513361598151
H         2.21099928221564   -5.78695832633289    5.54027196299537
H         1.49793566378702   -5.71370363931006    7.17077870675432
O         6.29915863924995    3.55350234495172   -0.60036743925772
H         5.96649563123164    4.44734307599501   -0.41111378896598
C         5.41465181400141    2.94032326666574   -1.53806464515491
H         5.84866509793411    1.97817127475508   -1.79650837694235
H         5.31555108474197    3.54811498933749   -2.43546120216976
H         4.43261637754504    2.78581053004719   -1.09635880734557
O        -9.59254666227810    2.71493408474330   -0.61444234496180
H        -8.82691800496447    2.48186891728317   -1.18572169812784
C       -10.75875516483773    2.49744496692631   -1.37060809129826
H       -11.60880296197861    2.72669013964173   -0.72817596776928
H       -10.82625840066188    1.45887338930573   -1.70404262111668
H       -10.79225066054870    3.15387384091355   -2.24718338042964
O        -3.67431664564131   -2.32747071075415    9.42831196367202
H        -2.88441897595565   -2.50241390917784    8.87530225650103
C        -4.34443321569781   -1.19778019675021    8.90821802697188
H        -5.22092902733683   -1.03447905549391    9.53384474587479
H        -4.66804345944992   -1.37394434990661    7.87996511546657
H        -3.71133929400929   -0.30783681854855    8.94485620799544
O        -2.12956472746089    8.36719992045678    4.11498477818193
H        -1.90294599980067    8.17276778458720    5.05543228328970
C        -1.33213005213439    7.55015403921600    3.28973425337774
H        -1.53035724162794    7.83858603583306    2.25892577775320
H        -1.57963913708094    6.49119363909107    3.41788841937528
H        -0.27034786717443    7.69586837395310    3.50208579998227
O         8.08363690091991   -6.25955611807505   -2.36276221108499
H         8.05147816085946   -6.28446688152494   -1.38086477563694
C         7.50402029571736   -7.45733617645784   -2.83602578936661
H         7.60558593881642   -7.45858611431326   -3.92074920094170
H         6.44406744199864   -7.51324941251368   -2.57454015749902
H         8.02050413686490   -8.32878900560536   -2.42831592055893
O        -4.98717261077767    1.80590448446841    1.21495547452636
H        -5.65696824154730    2.49642086771541    1.38544829521422
C        -3.86569319927288    2.41226239107442    0.59373478834367
H        -3.09936737405013    1.64563126541805    0.51204713194502
H        -3.47612096039566    3.23279842419014    1.18963484946170
H        -4.11581816429847    2.79083191296706   -0.39848061560142
O        -6.67610029550399    3.95318543403674    1.33304896443148
H        -6.77390487944632    4.25925098537628    0.40483835218150
C        -7.95011348203722    3.92801149676904    1.96626242720963
H        -7.86254992877908    3.25588993194572    2.81852257458961
H        -8.71348115565553    3.55517638510160    1.28559854690067
H        -8.21720573771962    4.92752721375835    2.31594844731331
O         5.72548633455803    4.73306179387100    9.53377727929656
H         6.04975462428662    5.28248826207927   10.25466705349711
C         6.64662016718762    3.67963167254038    9.30589141559191
H         6.21927577366548    3.06600381861927    8.51425752289905
H         6.78214482614420    3.07370798121288   10.20542213555902
H         7.61608869053679    4.06736633885738    8.98111621319988
O         1.54188290157618   -3.06915556549775   -4.06322512043079
H         1.56699456477996   -3.46077475640692   -3.16772123463792
C         2.72519024044601   -3.40522561298930   -4.77249472196467
H         2.53821440572911   -3.17732548261429   -5.82063123734047
H         2.94607262885322   -4.46526081012126   -4.66453028203356
H         3.56994442587796   -2.81559630789371   -4.41061486377870
O        -0.40304318947119   -5.48031203435751   -8.62532076451443
H        -1.14923027675569   -5.05780838549342   -8.10885472266636
C        -0.74025663060456   -5.40709802240626   -9.99645061366212
H         0.12928435445270   -5.73357754437001  -10.56643658251653
H        -0.99768468704203   -4.38458748226361  -10.27717278936923
H        -1.58461605304888   -6.06445920304162  -10.22337458349868
O        -5.24294720363295   -7.29884860185233   -3.08210710825320
H        -4.68840434620758   -6.72292407145964   -2.51764878846439
C        -4.46408453433969   -8.40564760805899   -3.48507178806696
H        -5.09498207223218   -9.02712079863781   -4.11980874535859
H        -4.14651605085008   -8.99743531047760   -2.62166826315688
H        -3.58253000037058   -8.09122236665491   -4.04877682090557
O        -3.88867206821983    4.50555541907583    7.09215178138226
H        -4.22018079890923    5.41969583984429    6.99240970237440
C        -4.36208885248501    3.97616470209524    8.31313279446499
H        -3.90648774882053    2.99522152750011    8.43876797448343
H        -5.44898871286486    3.86487629526006    8.29352661569068
H        -4.08275137499923    4.61570637266920    9.15483775253900
O         7.89984879993890   -0.24001319447445    6.47039206622013
H         6.99451961053277   -0.46938378779342    6.73040457623143
C         8.54126117749197    0.30422425299102    7.61365440971035
H         9.56055017467411    0.55129955039150    7.32228827450602
H         8.55984333509401   -0.42227106955073    8.42678813613272
H         8.03261357759881    1.21190467146899    7.94358116886211
O         2.38345500265333   -5.63847030083017    0.13414575376069
H         2.23698818024860   -6.58386019950582   -0.09669805744908
C         3.74819966465695   -5.39152574429311   -0.19131163852856
H         3.98593441640232   -4.37374390883382    0.11141982453588
H         3.90296260008079   -5.51401571562082   -1.26419182587695
H         4.39653525589320   -6.08948651211301    0.33735483209856
O         3.82097561250399    7.83870029142352    4.82095004750774
H         4.25323957836059    7.02496175574549    5.15148950443055
C         2.43367257547366    7.61022584257297    4.73268314804976
H         1.98973980301996    8.51112591497585    4.31135335665843
H         1.99602489688406    7.43418415992766    5.71877258448073
H         2.21326348891309    6.75727833578230    4.08312906954891
O        -7.26401894271064   -5.83197538321957    5.50235915079718
H        -6.36527300956142   -5.72266135643693    5.90021396740738
C        -7.17562540015074   -6.84830164465376    4.52354714483060
H        -8.15378289879036   -6.93779377825820    4.05430409582987
H        -6.91068883409230   -7.80319777370466    4.98324961492919
H        -6.43701008813463   -6.59662092027445    3.76015020582933
O         1.06024469840045   -3.89795165616296   -1.49290136399048
H         1.50262136707895   -4.59086518189604   -0.95314099992897
C         1.16308588421514   -2.66077022536240   -0.80125917765458
H         0.76177737554393   -1.88921884506925   -1.45563581108399
H         2.20295182920637   -2.43650709347920   -0.56356470404628
H         0.58418729694607   -2.67569718364390    0.12104596285456
O        -4.67745083042267    5.46554258481910    2.32407569050474
H        -5.50719665089568    4.96854218711717    2.15198233202754
C        -4.29308429957543    6.08541706628870    1.10321039249718
H        -3.24952103866430    6.37415969364137    1.20249811104360
H        -4.90719966008658    6.96921298364810    0.91752098123282
H        -4.39067873744861    5.39295876785683    0.26998161309204
O         6.71763565688538    9.66114967684971   -1.35595175342062
H         5.92907716779286    9.36926747643133   -0.86854044264482
C         6.47064326575866    9.50840511380858   -2.73484214781224
H         7.33112239287433    9.92322168700544   -3.25757250539964
H         5.57398153240304   10.05364469543889   -3.04472439185412
H         6.36395019063975    8.45527162101281   -3.01278786620252
O        -4.71485348007107   -5.54681869117377    6.26804401227292
H        -4.24661669522984   -5.71110119672827    5.42310023125867
C        -4.34754550827366   -4.26436445696756    6.74032599348696
H        -4.86835168347727   -4.11395366035508    7.68423084379341
H        -4.63815114452014   -3.48347659108667    6.03281594106064
H        -3.27211574457441   -4.21266954920327    6.91517650026137
O        -6.70270344142010   -4.85192497336953   -7.69554083590387
H        -6.47765705841419   -5.23848244716255   -6.83030732608718
C        -5.55448233681465   -4.84952420016672   -8.51280965518393
H        -5.85713722322012   -4.45996887651205   -9.48377445514658
H        -5.16348627124246   -5.86166148391779   -8.64857042756579
H        -4.77296702881028   -4.20944234777218   -8.10030930513709
O        -8.72359179455323   -4.67544271914073    2.04921150693241
H        -8.38795869984730   -4.25282516553726    2.86440752699841
C        -9.61082304224938   -3.77348973506891    1.42102249029842
H        -9.88382332539097   -4.20027885189133    0.45690060699264
H        -9.13194424127511   -2.80606659011881    1.25979331070563
H       -10.51659409250641   -3.64051060177409    2.02236549445223
O         9.49947071390852   -2.41918729540673    5.65156123181547
H         8.91324385493705   -1.66376066886083    5.83651964673117
C        10.01877792542817   -2.87288824461151    6.88418324057693
H        10.50162705547772   -3.83096673653052    6.69754193367048
H         9.22412632993727   -2.99485685638237    7.62286898697097
H        10.76394016540670   -2.17297550802167    7.27468128035317
O        -0.78602220942038    9.65514846682363   -3.85557990740739
H        -1.48766363854679    9.04810639249539   -3.57911721722326
C         0.05166972423767    8.96418800448855   -4.75176547451385
H         0.78024781604538    9.68347489231717   -5.12452839580890
H        -0.51354858009696    8.56023424182582   -5.59607638451981
H         0.58152426328884    8.14772441691398   -4.24881352349066
O         5.32497700661449    4.15830947240554    2.98776125287191
H         5.34483831730482    3.24197489927275    3.33714702622199
C         4.17337926182879    4.33674385071261    2.18632027455868
H         4.22732085089131    5.34642138868773    1.78324810963219
H         3.26206977589427    4.22548912977008    2.77946357975044
H         4.14806153605755    3.61661446342570    1.36928910700432
O        -4.88079434515119   -6.77834433444316    1.52547059361703
H        -5.84979648558637   -6.81210712577861    1.36753956122821
C        -4.30384688221064   -7.91646449343980    0.92390276704831
H        -3.22499772331492   -7.83077307390093    1.04419294536989
H        -4.54864664487300   -7.96113509234807   -0.13913147497585
H        -4.65415677079919   -8.83528573497840    1.40721317724568
O         5.05294919503131    5.42836232747386    5.31369130887316
H         5.19299573590384    5.05588801121578    4.40466324984795
C         6.26608666809784    5.31148270877878    6.03353180470861
H         6.05079645355216    5.56064467726491    7.07120758081284
H         7.01661568715081    6.00232695267754    5.64281859336345
H         6.65555045844956    4.29466116933189    5.97492546253398
O         4.50352165926694    8.54691317851099    0.01205465846137
H         4.75967120527699    8.29075237708591    0.93052550107279
C         3.21425110950750    9.12322251306276    0.05306428307604
H         2.97416580984408    9.46029685581748   -0.95415889321946
H         3.19205582067209    9.98173942918688    0.72751319627473
H         2.47030255319212    8.38971725146837    0.37340678078148
O         3.80454184152878    3.15390477583608   11.04060257350404
H         4.23736176013175    3.73880289877242   10.40049444679130
C         3.41153317816696    1.97956629140330   10.37345454495442
H         3.06573348314940    1.28378455522359   11.13749762766209
H         4.24905718581928    1.52878110590689    9.83271849391566
H         2.59390180920000    2.17363515656596    9.67153304062377
O        -1.12854160980547   -8.93408623177259   -5.19335500713031
H        -0.68107259486927   -8.50633386508122   -5.94587298065641
C        -1.10858364666129  -10.32243969108528   -5.39589926585429
H        -1.61444152978669  -10.78065730839549   -4.54595874235482
H        -0.08401803615727  -10.70780532934768   -5.44584690638392
H        -1.63763231636939  -10.60516589381938   -6.31222071212671
O         8.04420224238318   -2.26531846697908   -4.78448488351674
H         7.63880582153730   -3.05771633644160   -4.37445637029210
C         7.08365324042617   -1.70751350136110   -5.65805049252555
H         7.55729379641544   -0.87615961845325   -6.17650948176810
H         6.21462628765426   -1.33969749372643   -5.10689753608336