36
Energy:   -477.80197173
O    1.13822697  -0.43973747   3.21021738
H    1.99126663  -0.41934733   2.77646695
H    0.60040514  -1.00481914   2.65554429
O   -1.61881588   0.87167254   0.76020294
H   -1.24200721   1.40790256   1.45784500
H   -1.21824622   0.01016714   0.87675438
O    1.82375775   2.11359619   0.59386719
H    1.28074677   2.36983822  -0.15159303
H    1.25044780   2.21323048   1.35388072
O   -0.16914551   1.98470835  -1.29905748
H   -0.49618123   1.57370196  -2.09927822
H   -0.76143695   1.67810764  -0.61245811
O   -0.29448511  -1.48627579   1.03373697
H    0.41379988  -1.22675698   0.44448813
H   -0.83385199  -2.08147942   0.51311441
O    3.35645137   0.01062002   1.57615779
H    2.98515719   0.84315612   1.28417129
H    4.24962339   0.22693457   1.84389573
O    1.68779617  -0.57696557  -0.58403393
H    1.48463631   0.35839055  -0.59221016
H    2.41510188  -0.65919411   0.03281023
O    0.12077971  -1.79411606  -2.57340247
H    0.83420302  -1.44582649  -2.03865637
H   -0.31014310  -1.01876218  -2.93307418
O   -3.09424429  -0.35861161  -1.33943299
H   -2.87864780   0.13835782  -0.55027433
H   -2.79846685  -1.24914952  -1.15051561
O   -1.36350457   0.43403929  -3.25019942
H   -2.05829381   0.18475781  -2.64080750
H   -1.82493201   0.68690862  -4.04980787
O   -1.76517365  -2.76329180  -0.92317264
H   -2.05038816  -3.62908375  -1.21521518
H   -1.08981494  -2.50840840  -1.55178772
O    0.06218244   1.98251086   2.69745644
H    0.40014840   1.13768293   2.99457028
H   -0.16351307   2.44747394   3.50312555
