24
Energy:    -90.16301553
O   -2.64195750  -0.17193300   1.13292210
H   -1.85136887  -0.48230976   0.66702603
C   -3.72458852  -0.21135418   0.21701283
H   -4.60683018   0.14132808   0.75807668
H   -3.93356800  -1.22810341  -0.15085386
H   -3.57083152   0.44772981  -0.65174744
O   -0.23926234  -1.15350136  -0.09346078
H    0.63049164  -0.93584791  -0.46030988
C   -0.07995754  -2.28203361   0.75127038
H   -1.06892709  -2.51361272   1.15598700
H    0.59809244  -2.08780728   1.59702548
H    0.28414865  -3.16976457   0.21077268
O    2.28458955  -0.23575935  -1.03483881
H    2.30606934   0.59620111  -0.53905288
C    2.04544831   0.08089196  -2.39685100
H    2.02433379  -0.86734029  -2.94081329
H    2.83900241   0.70732491  -2.83346408
H    1.07909723   0.58549850  -2.55278418
O    2.24376541   1.99873968   0.69775112
H    2.83918280   2.29609322   1.40165614
C    0.91529984   2.10620259   1.18371897
H    0.25784151   1.76736977   0.37846990
H    0.63799697   3.14115926   1.43816966
H    0.73193165   1.47082856   2.06431722
