24
Energy:    -93.76594613
O    2.03370663  -0.99573853  -0.12512133
H    2.03439407  -0.04178234  -0.29361582
C    1.92597346  -1.65390217  -1.37721876
H    1.92666030  -2.72727559  -1.16900196
H    2.77266559  -1.43548218  -2.04668308
H    0.99200998  -1.40954576  -1.90710506
O    1.55481496   1.78805370  -0.46973620
H    1.08620865   2.31967557   0.19072545
C    0.95147021   2.03679480  -1.72935390
H    1.49135345   1.43024362  -2.46154715
H    1.02817084   3.09150230  -2.03674038
H   -0.10940902   1.74271908  -1.75819951
O   -1.74344614   1.19012488   0.29292569
H   -1.29419991   0.41863874   0.66897122
C   -3.13104206   0.89897666   0.24451028
H   -3.62185327   1.77824907  -0.18148219
H   -3.56231647   0.71664460   1.24127241
H   -3.36201221   0.03451378  -0.39746640
O   -0.42455280  -1.12705549   1.23007005
H    0.42811009  -1.20879615   0.77762365
C   -0.25907913  -1.61535269   2.55170467
H   -1.22874155  -1.51596368   3.04704476
H    0.47992874  -1.03793217   3.12896566
H    0.03118558  -2.67731008   2.57945790
