36
Energy:   -474.72251472
O   -0.29595308  -2.95229302   0.58657531
H   -0.04452789  -3.87582598   0.57637277
H    0.30565080  -2.53297848  -0.02863192
O   -0.94644192  -1.42990364   2.81786564
H   -0.63121026  -2.01350220   2.12773988
H   -0.25177899  -0.77895340   2.91756035
O   -1.14394882   2.07909427   1.55560912
H   -1.86976559   1.45577393   1.52571548
H   -0.87970100   2.18376581   0.64158024
O    3.26855348   0.30511671  -2.07915930
H    2.81638760  -0.53135079  -2.18915927
H    3.15574281   0.51892807  -1.15298960
O    0.78120295   0.72616512   2.85554330
H    1.08096085   1.21732071   3.62048986
H    0.10456119   1.27935706   2.46520184
O   -1.01450835  -0.35150486  -2.24920594
H   -1.63297496  -0.80939294  -1.67993500
H   -1.42148792  -0.37677566  -3.11520875
O   -2.92936238  -0.03538217   1.66528576
H   -2.28220188  -0.54582360   2.15197321
H   -3.70984891  -0.04663972   2.21931273
O    1.21646266  -1.55752094  -1.17491953
H    1.48944320  -0.86563969  -0.57241326
H    0.49070886  -1.17425499  -1.66748473
O    1.86216647   2.50411521  -2.85500021
H    2.44959722   3.12604701  -3.28436928
H    2.40492412   1.73186427  -2.69602073
O   -0.06954822   1.91265931  -1.00999572
H   -0.49152154   1.18706829  -1.47009141
H    0.51942825   2.29806177  -1.65868942
O    1.89886050   0.59844380   0.34859323
H    1.23851769   1.14958280  -0.07143656
H    1.66357910   0.60682566   1.27638861
O   -2.52787527  -1.69414332  -0.49380623
H   -1.86477818  -2.25989425  -0.09825600
H   -2.79370469  -1.10566273   0.21277509
