36
Energy:   -476.80941130
O    2.80261788   1.10178115   1.51054270
H    2.50160718   1.56487457   0.72876978
H    3.67328498   1.46073747   1.68177650
O   -1.57146023  -0.45632898  -3.64281585
H   -2.09287143  -0.78897413  -2.91226167
H   -2.21528153  -0.23249753  -4.31484671
O   -0.47782971   3.15936390   0.91163411
H   -0.83340772   3.97795310   1.25762232
H   -0.18546481   2.67847839   1.68591037
O   -1.31455691  -2.87587553   0.25439991
H   -1.19463989  -2.24457115   0.96384092
H   -1.62096028  -3.67118062   0.69010467
O    0.40824537   1.54502272   2.87537782
H   -0.03115972   0.69520713   2.84425741
H    1.29790078   1.36649048   2.57062983
O    1.73620618   2.37407341  -0.60325094
H    0.97126210   2.79038983  -0.20604440
H    1.37114767   1.75054852  -1.23108917
O    1.84016395  -1.46999956   1.43717565
H    1.77924800  -1.73307565   0.51885541
H    2.30954075  -0.63602044   1.41727328
O    1.01217679  -2.22012839  -1.09290588
H    1.25990177  -2.90822167  -1.71047517
H    0.19773760  -2.53293103  -0.69911004
O   -1.37462124   0.75924024  -0.07349226
H   -0.72857320   0.64010336  -0.76966765
H   -1.24135654   1.65847422   0.22625867
O   -0.71583059  -0.87584003   2.00019817
H    0.20491638  -1.09503285   1.85732976
H   -0.93157362  -0.27127469   1.29013652
O   -2.85271671  -1.19638316  -1.36542943
H   -2.59906881  -0.40754624  -0.88623125
H   -2.45285214  -1.91432456  -0.87461346
O    0.47144171   0.31683458  -2.00139388
H   -0.14789159   0.15823037  -2.71378620
H    0.76446507  -0.55592832  -1.73937464
