36
Energy:   -478.53139242
O   -3.14942755  -0.43672855   0.56458155
H   -2.82341078  -1.31041176   0.78050411
H   -2.74899810  -0.23328236  -0.28069814
O   -0.32179321   1.67727662   0.39610651
H   -0.83029624   1.99318214   1.14300692
H    0.25080587   2.40979616   0.16856031
O   -1.40513462   0.09894622  -1.50815017
H   -1.09458630   0.74577634  -0.87458692
H   -0.91115323  -0.69474294  -1.30254923
O    1.35089648  -0.26502976   1.24370148
H    2.18802384  -0.04574792   0.83459866
H    0.76894020   0.45490109   1.00027122
O   -1.73872812  -2.72962637   1.24915013
H   -1.34598939  -2.20372552   1.94586846
H   -2.03360708  -3.52757058   1.68797047
O    2.17135813  -1.13664136  -2.36006635
H    1.51207992  -1.56506415  -1.81413778
H    2.57440681  -1.85045533  -2.85428617
O    1.78431509   2.80993238  -1.13200935
H    2.17266816   3.55980242  -1.58268513
H    1.37745551   2.29535757  -1.82908173
O    0.70066050   1.13863310  -2.96136620
H    1.25673667   0.35987991  -2.93781604
H   -0.15435361   0.83221816  -2.65921952
O   -0.64404377  -1.02570930   3.02801895
H   -1.14575444  -0.21129971   2.99258920
H    0.19649394  -0.80748231   2.62539606
O    0.21435184  -1.92426173  -0.56979278
H    0.67060296  -1.40548250   0.09272882
H   -0.44177235  -2.41808844  -0.07799193
O    3.30673386   0.56589066  -0.45233592
H    2.89761630   1.40475750  -0.66483787
H    3.06389504  -0.01003144  -1.17730136
O   -2.19058638   1.23035036   2.47626684
H   -2.60446761   0.69360222   1.80037069
H   -2.91686003   1.52942336   3.02336261
