36
Energy:   -492.99794384
O   -2.71149930   1.31633312   1.73259562
H   -2.11837210   0.86141235   2.33049115
H   -3.28152294   1.83007803   2.30475912
O    1.40653984   2.32053804  -1.86538224
H    0.67346058   2.40687591  -1.25597891
H    2.14403036   2.05251502  -1.31720049
O   -3.10150120  -1.05517534   0.33199067
H   -3.14690614  -0.20724284   0.77378328
H   -2.61249850  -0.88089692  -0.47220784
O   -0.58782546   1.82928681   0.03279775
H    0.06300950   1.40276942   0.59022813
H   -1.37846510   1.86502792   0.57116879
O    0.49025495  -1.85738150   0.05186954
H   -0.11230952  -1.41696552  -0.54744813
H   -0.07812967  -2.28443539   0.69280304
O    2.61697809  -1.16202214  -1.62605684
H    2.08061310  -0.83608776  -2.34876786
H    2.00246392  -1.63638291  -1.06606931
O   -1.12971823  -0.33820939  -1.51731880
H   -0.99915616   0.48305712  -1.04328640
H   -0.58750297  -0.25156925  -2.30136468
O    0.87819088   0.14379322  -3.36079385
H    1.07335813   0.97380654  -2.92580019
H    0.92793842   0.34507402  -4.29526860
O   -1.46729880  -2.51955992   1.89358858
H   -1.89797545  -3.32143973   2.18979501
H   -2.12218330  -2.08242140   1.34928348
O    1.22728783   0.36630309   1.43265094
H    2.04409744   0.67097583   1.03739351
H    1.04845520  -0.46886233   1.00050576
O    3.30060748   1.05943356  -0.26539045
H    3.16719682   0.24720241  -0.75397413
H    4.25156350   1.14629368  -0.19928593
O   -0.92201802  -0.10334120   3.15944845
H   -0.06342455   0.11040281   2.79426000
H   -1.07773753  -1.00918446   2.89218216
