49
Energy:   -884.87029737
O   -1.90433462  -0.89422790  -3.59806615
H   -2.69624082  -1.16716365  -4.06133982
H   -1.55733170  -1.70199655  -3.21947583
O   -2.62596964  -1.15472939   2.25122849
H   -2.02427522  -1.19396797   2.99463686
H   -3.47239575  -1.41658846   2.61347775
O   -0.15609236   2.77351610  -2.71735122
H    0.12036924   2.11359366  -3.35319964
H   -0.31755424   3.55841397  -3.24089419
O    3.00632764   0.20383360  -0.18026021
H    2.74911638   1.10735470  -0.36390073
H    2.78930385  -0.27479846  -0.98028762
O   -0.58493540  -1.13926206   4.08587931
H   -0.51315196  -1.20038415   5.03842489
H   -0.11256087  -0.33781336   3.86054814
O   -1.66807484   0.84954495  -1.44166102
H   -1.90833273   0.25276342  -2.15043448
H   -1.28369193   1.60595554  -1.88474638
O   -0.05376608   3.27665176   1.88148943
H   -0.35635974   4.10188636   2.26051025
H   -0.85161848   2.76242728   1.75805293
O   -1.95109771   1.35619611   1.25470042
H   -2.38277625   0.60380549   1.65941493
H   -2.19217340   1.30238229   0.32992021
O    0.37361739   0.53121075  -4.23042575
H    0.68377856   0.39675280  -5.12594402
H   -0.45523612   0.05419170  -4.18935837
O   -1.06604004  -2.47252979   0.34522875
H   -0.35749240  -2.73313073   0.93368370
H   -1.77411868  -2.19924122   0.92846957
O    3.30119353  -0.47528819   2.43991665
H    4.19309636  -0.58843247   2.76845821
H    3.41235598  -0.25250744   1.51566371
O    1.27966711   2.37897927  -0.38343385
H    0.86288964   2.69241847  -1.18610704
H    0.91370816   2.93041300   0.30810556
O    1.06407991  -2.14599743   2.08035465
H    0.58282317  -2.00567215   2.89578866
H    1.94403339  -1.81547630   2.26110173
O   -0.65721448  -2.97856660  -2.31286475
H   -0.89576642  -2.93176832  -1.38704903
H   -0.57159047  -3.91502707  -2.49158849
O    0.87580007   0.85649819   2.92904519
H    0.80475933   1.80008524   2.78472419
H    1.81744105   0.68468211   2.93387784
O    1.24927909  -0.95550416  -2.06137066
H    1.08722724  -0.42497799  -2.84144311
H    0.77278133  -1.77001496  -2.22185087
K    0.27422238  -0.06105721   0.36477059
