49
Energy:   -881.33792391
O   -2.87560031  -2.02262903  -1.39821922
H   -3.55783775  -2.67523417  -1.55598632
H   -2.57105617  -2.20395733  -0.50905964
O   -1.88360119  -0.55270430   3.36248924
H   -0.99312482  -0.75546498   3.64914548
H   -2.42228920  -0.68196434   4.14309087
O   -1.41505790   1.77342462  -2.54474638
H   -0.85559189   2.41594711  -2.10840422
H   -0.89008840   1.45851332  -3.28059266
O    3.33585192   0.03506330  -0.33931364
H    4.28356095  -0.08931045  -0.28821948
H    3.20618075   0.57314408  -1.12026582
O    0.79596679  -1.15946322   3.69019344
H    1.10523426  -0.53026093   3.03851104
H    1.36596751  -1.02123984   4.44664921
O   -3.14913898   0.69459691  -0.66323409
H   -3.38031169  -0.17464354  -0.99066660
H   -2.90179825   1.18774081  -1.44545113
O    0.56853064   3.11777688   1.83994469
H    0.53851372   3.90029921   2.39038964
H   -0.32637952   2.77850465   1.85613139
O   -1.74353006   1.59929393   1.62154062
H   -2.50680185   1.52775148   1.04836552
H   -1.90352384   0.95943866   2.31524017
O    0.64614621   0.60232743  -4.06455148
H    0.61292396   0.48110571  -5.01346319
H    0.29594735  -0.21318056  -3.70602768
O    1.35442255  -1.91945171  -0.57031513
H    1.31350245  -2.45622134   0.22116182
H    2.18301749  -1.44592804  -0.49657507
O    0.77144465  -3.19368118   1.82624126
H    0.86524997  -2.60672977   2.57652152
H    0.97187680  -4.06240952   2.17462304
O    0.61421316   2.62219567  -0.89314053
H    1.46839558   2.57636494  -1.32267956
H    0.78918922   3.05271950  -0.05632247
O   -1.57766036  -1.98010849   1.01893922
H   -1.86554461  -1.58155640   1.84022525
H   -0.85568206  -2.55557080   1.27157000
O   -0.43541001  -1.45149539  -2.63781973
H   -1.29480645  -1.81465481  -2.42384580
H    0.18023323  -1.97147184  -2.12125440
O    1.44684654   0.51255793   1.64223098
H    1.32428317   1.44996462   1.79216020
H    2.22196033   0.45825419   1.08323047
O    2.69329981   1.63330067  -2.49276644
H    2.04244387   1.27668180  -3.09728392
H    3.29687286   2.12297054  -3.05147464
K   -0.47523048   0.15743292  -0.36987410
