49
Energy:   -886.10191433
O   -0.78577348  -3.90905341   0.52396659
H   -1.26271543  -4.73300638   0.62326276
H   -1.45724582  -3.23176207   0.60541101
O   -2.45564434   0.24541660   2.75091489
H   -1.62539303   0.03647488   3.17900129
H   -3.08912636   0.29442054   3.46682759
O   -1.99898264  -0.11873316  -1.66078546
H   -2.24011599   0.79228670  -1.82850357
H   -1.58709918  -0.41152601  -2.47371609
O    3.00022597   0.07176446  -0.13512580
H    2.82123427   0.38621484  -1.02130568
H    3.27089152  -0.83868965  -0.25363873
O    0.13313090  -0.35716607   3.57240211
H    0.70966044   0.27829265   3.14809356
H    0.43432455  -0.38554466   4.48053695
O   -2.35472260   2.61645121  -1.68514850
H   -1.51032948   3.00953753  -1.90586384
H   -3.00029147   3.17751989  -2.11488635
O    0.72952663   3.61459026   0.74537711
H   -0.09160606   3.14445600   0.89010694
H    0.65521196   4.39991724   1.28756778
O   -1.37202607   1.90756881   0.82468823
H   -1.96430623   2.14130670   0.10998364
H   -1.93939008   1.51392728   1.48754288
O   -0.22263547  -0.98989525  -3.59786289
H   -0.24724834  -1.39215586  -4.46608662
H    0.09801508  -1.68327798  -3.02111732
O    3.06434707  -2.68823754  -0.18403729
H    2.56481293  -2.66801259   0.63222764
H    3.76678227  -3.31744927  -0.01999694
O    1.09578088  -2.25926663   1.72669534
H    0.77994174  -1.85330150   2.53395602
H    0.46033573  -2.95067072   1.54121838
O    0.26451923   3.48071559  -1.98260448
H    0.66432481   4.19707477  -2.47577470
H    0.53998722   3.62908003  -1.07798454
O   -2.16650186  -1.57269323   0.68544391
H   -2.46248382  -1.14265213  -0.11685976
H   -2.49227371  -1.01422524   1.39128954
O    0.61611841  -2.55205938  -1.48114293
H    0.11367535  -3.18637812  -0.96984795
H    1.52820947  -2.72341268  -1.24670791
O    1.62732231   1.25256025   1.92671897
H    1.50093371   2.15460035   1.63247174
H    2.36809240   0.93354020   1.41124082
O    1.27224083   0.90285913  -2.19514125
H    0.84490805   0.41487655  -2.89905286
H    0.96740566   1.80318989  -2.30788823
K    0.21421305  -0.25439339   0.03901163
