49
Energy:   -893.50079050
O   -1.00398453  -3.52873072  -0.10165213
H   -1.48060884  -4.35745605  -0.14935379
H   -1.67293171  -2.87928083   0.11504205
O   -2.20988199  -0.21327885   3.16030119
H   -1.33883677  -0.43406732   3.49009584
H   -2.77785180  -0.26532538   3.92902305
O   -1.48890575   0.88179401  -2.33636245
H   -1.02245482   1.69252340  -2.13295838
H   -0.99349225   0.49446926  -3.05801116
O    2.68951541   0.41162571  -0.32840972
H    3.03639358  -0.47429285  -0.43355580
H    2.80485008   0.81802479  -1.18734485
O    0.41616327  -0.78885538   3.71383976
H    0.85680239  -0.06231092   3.27315600
H    0.88388846  -0.88555256   4.54336652
O   -3.64276285   0.84004102  -0.64731859
H   -3.05483131   0.88359743  -1.40142149
H   -4.50179783   1.07382847  -0.99893514
O    0.28729738   3.55908699   1.37392656
H    0.14156992   4.41431353   1.77838042
H   -0.56803721   3.13045810   1.40412361
O   -1.82590152   1.78000596   1.26626159
H   -2.57617713   1.67720938   0.68081200
H   -2.04374875   1.24757275   2.03130362
O    0.55878954  -0.21318281  -3.89408381
H    0.50859632  -0.60550677  -4.76574568
H    0.60002961  -0.96001615  -3.29678065
O    2.99696705  -2.32769630  -0.47639636
H    2.44594972  -2.39858566   0.30308196
H    3.69410586  -2.96853805  -0.33657085
O    0.94604038  -2.13932778   1.34130578
H    0.75912884  -1.92279135   2.25476508
H    0.28718060  -2.79410916   1.11022791
O    0.32009689   2.58463119  -1.23724892
H    1.14712027   2.56891599  -1.71893056
H    0.48976736   3.15518946  -0.48764432
O   -2.37900012  -1.27790495   0.61159364
H   -2.99888452  -0.70285344   0.16293904
H   -2.46437221  -1.04760124   1.53674425
O    0.60110595  -2.00043933  -1.82126533
H    0.04053957  -2.67305315  -1.43449947
H    1.48387314  -2.22585697  -1.52776778
O    1.42863964   1.13538637   2.05129050
H    1.18937268   2.05812218   1.96444701
H    2.14727291   1.01436989   1.43068347
O    2.41233006   1.57574932  -2.82050758
H    3.01486647   1.93265073  -3.47304349
H    1.83356526   0.99853734  -3.31859340
K   -0.04006363   0.07468763  -0.07138052
