49
Energy:   -889.09072983
O    0.06287585   1.13902837   3.56482613
H    0.30498506   1.61834829   4.35720697
H    0.56379560   1.56084989   2.86670160
O   -3.85372601  -0.92492816   0.92267609
H   -3.97624542  -0.47906745   0.08456567
H   -4.73224300  -1.21079800   1.17311208
O   -1.56405541  -2.40234281   0.46836241
H   -2.43593212  -2.07500929   0.68953114
H   -1.07320362  -2.35085069   1.28851175
O    0.25331064  -1.31420393   2.31376102
H    0.19485267  -0.59903484   2.94728109
H    1.18512262  -1.53083741   2.28169517
O    2.90910950  -1.75246164   1.65195933
H    3.36383591  -2.55702455   1.90122677
H    2.52776404  -1.94767295   0.79598034
O   -3.79953539   0.37825374  -1.53795409
H   -3.08176069  -0.03195769  -2.02040399
H   -4.48910817   0.49933498  -2.19068724
O    3.78485999   0.68635416   0.71724223
H    3.59387814  -0.15012366   1.14158011
H    4.57933881   0.99909021   1.14994469
O   -1.95378948   2.29639443  -0.63903919
H   -2.68043765   1.87327708  -1.09640775
H   -2.15522071   2.18139100   0.28963272
O   -1.44918473  -0.60747350  -2.50999649
H   -0.72062349  -0.08275682  -2.84181387
H   -1.13997906  -1.51147653  -2.56832511
O   -0.45064795  -3.13151290  -1.94572379
H   -0.63388620  -4.00633312  -2.28828060
H   -0.91953468  -3.09720357  -1.11193728
O    3.37055981   0.04164533  -1.95347746
H    4.16220564   0.06977305  -2.49082051
H    3.65673933   0.33641170  -1.08892792
O    0.50740590   3.44190116  -0.98630182
H   -0.42711118   3.24469117  -0.92291484
H    0.54137092   4.36428619  -1.23984488
O   -2.10394022   1.12058874   1.80676603
H   -1.63084323   1.11560420   2.63886352
H   -2.78976519   0.46195844   1.91668464
O    1.64533242  -1.77934955  -0.75275145
H    2.22885520  -1.34420284  -1.37434647
H    1.11591650  -2.36715342  -1.29167374
O    1.31073174   1.84768130   1.16038745
H    1.17858852   2.56124781   0.53621371
H    2.21897792   1.57679151   1.02644926
O    0.82289659   1.02834804  -2.32699595
H    0.81979456   1.95597373  -2.09091799
H    1.74994729   0.79240948  -2.36078710
K   -0.35531184   0.02825817  -0.04012543
