
                                 *****************
                                 * O   R   C   A *
                                 *****************

           --- An Ab Initio, DFT and Semiempirical electronic structure package ---

                  #######################################################
                  #                        -***-                        #
                  #          Department of theory and spectroscopy      #
                  #               Directorship: Frank Neese             #
                  #        Max Planck Institute fuer Kohlenforschung    #
                  #                Kaiser Wilhelm Platz 1               #
                  #                 D-45470 Muelheim/Ruhr               #
                  #                      Germany                        #
                  #                                                     #
                  #                  All rights reserved                #
                  #                        -***-                        #
                  #######################################################


                         Program Version 4.2.0 -  RELEASE  -


 With contributions from (in alphabetic order):
   Daniel Aravena         : Magnetic Suceptibility
   Michael Atanasov       : Ab Initio Ligand Field Theory (pilot matlab implementation)
   Alexander A. Auer      : GIAO ZORA, VPT2
   Ute Becker             : Parallelization
   Giovanni Bistoni       : ED, misc. LED, open-shell LED, HFLED
   Martin Brehm           : Molecular dynamics
   Dmytro Bykov           : SCF Hessian
   Vijay G. Chilkuri      : MRCI spin determinant printing, contributions to CSF-ICE
   Dipayan Datta          : RHF DLPNO-CCSD density
   Achintya Kumar Dutta   : EOM-CC, STEOM-CC
   Dmitry Ganyushin       : Spin-Orbit,Spin-Spin,Magnetic field MRCI
   Miquel Garcia          : C-PCM Hessian, Gaussian charge scheme
   Yang Guo               : DLPNO-NEVPT2, CIM, IAO-localization
   Andreas Hansen         : Spin unrestricted coupled pair/coupled cluster methods
   Benjamin Helmich-Paris : CASSCF linear response (MC-RPA)
   Lee Huntington         : MR-EOM, pCC
   Robert Izsak           : Overlap fitted RIJCOSX, COSX-SCS-MP3, EOM
   Christian Kollmar      : KDIIS, OOCD, Brueckner-CCSD(T), CCSD density
   Simone Kossmann        : Meta GGA functionals, TD-DFT gradient, OOMP2, MP2 Hessian
   Martin Krupicka        : AUTO-CI
   Lucas Lang             : DCDCAS
   Dagmar Lenk            : GEPOL surface, SMD
   Dimitrios Liakos       : Extrapolation schemes; Compound Job, initial MDCI parallelization
   Dimitrios Manganas     : Further ROCIS development; embedding schemes
   Dimitrios Pantazis     : SARC Basis sets
   Taras Petrenko         : DFT Hessian,TD-DFT gradient, ASA, ECA, R-Raman, ABS, FL, XAS/XES, NRVS
   Peter Pinski           : DLPNO-MP2, DLPNO-MP2 Gradient
   Christoph Reimann      : Effective Core Potentials
   Marius Retegan         : Local ZFS, SOC
   Christoph Riplinger    : Optimizer, TS searches, QM/MM, DLPNO-CCSD(T), (RO)-DLPNO pert. Triples
   Tobias Risthaus        : Range-separated hybrids, TD-DFT gradient, RPA, STAB
   Michael Roemelt        : Original ROCIS implementation
   Masaaki Saitow         : Open-shell DLPNO-CCSD energy and density
   Barbara Sandhoefer     : DKH picture change effects
   Avijit Sen             : IP-ROCIS
   Kantharuban Sivalingam : CASSCF convergence, NEVPT2, FIC-MRCI
   Bernardo de Souza      : ESD, SOC TD-DFT
   Georgi Stoychev        : AutoAux, RI-MP2 NMR
   Willem Van den Heuvel  : Paramagnetic NMR
   Boris Wezisla          : Elementary symmetry handling
   Frank Wennmohs         : Technical directorship


 We gratefully acknowledge several colleagues who have allowed us to
 interface, adapt or use parts of their codes:
   Stefan Grimme, W. Hujo, H. Kruse,             : VdW corrections, initial TS optimization,
                  C. Bannwarth                     DFT functionals, gCP, sTDA/sTD-DF
   Ed Valeev, F. Pavosevic, A. Kumar             : LibInt (2-el integral package), F12 methods
   Garnet Chan, S. Sharma, J. Yang, R. Olivares  : DMRG
   Ulf Ekstrom                                   : XCFun DFT Library
   Mihaly Kallay                                 : mrcc  (arbitrary order and MRCC methods)
   Andreas Klamt, Michael Diedenhofen            : otool_cosmo (COSMO solvation model)
   Jiri Pittner, Ondrej Demel                    : Mk-CCSD
   Frank Weinhold                                : gennbo (NPA and NBO analysis)
   Christopher J. Cramer and Donald G. Truhlar   : smd solvation model
   Lars Goerigk                                  : TD-DFT with DH, B97 family of functionals
   V. Asgeirsson, H. Jonsson                     : NEB implementation
   FAccTs GmbH                                   : IRC, NEB, NEB-TS, Multilevel, MM, QM/MM, CI optimization
   S Lehtola, MJT Oliveira, MAL Marques          : LibXC Library


 Your calculation uses the libint2 library for the computation of 2-el integrals
 For citations please refer to: http://libint.valeyev.net

 Your ORCA version has been built with support for libXC version: 4.2.3
 For citations please refer to: https://tddft.org/programs/libxc/

 This ORCA versions uses:
   CBLAS   interface :  Fast vector & matrix operations
   LAPACKE interface :  Fast linear algebra routines
   SCALAPACK package :  Parallel linear algebra routines


----- Orbital basis set information -----
Your calculation utilizes the basis: def2-TZVP
   F. Weigend and R. Ahlrichs, Phys. Chem. Chem. Phys. 7, 3297 (2005).

================================================================================
                                        WARNINGS
                       Please study these warnings very carefully!
================================================================================


WARNING: The frozen-core approximation for MP2-gradient calculations is turned on by default.

INFO   : the flag for use of LIBINT has been found!

================================================================================
                                       INPUT FILE
================================================================================
NAME = 12h2o.su.etal.mol2,4,7,8-orca.engrad-mp2.def2tzvp.frozencore.inp
|  1> # 12h2o.su.etal.mol2,4,7,8
|  2> ! MP2 def2-TZVP EnGrad TightSCF
|  3> 
|  4> %pal
|  5>     nprocs 6
|  6> end
|  7> 
|  8> %maxcore 8000
|  9> 
| 10> %scf
| 11>     ConvForced true
| 12> end
| 13> 
| 14> *xyz 0 1
| 15> O   0.923410000  -1.794470000  -2.768350000
| 16> H   1.359750000  -2.338250000  -3.430940000
| 17> H   1.303000000  -0.879480000  -2.865760000
| 18> O  -0.885520000   1.737840000   0.052730000
| 19> H  -1.032320000   2.090180000  -0.841890000
| 20> H  -1.284090000   0.839590000   0.017130000
| 21> O  -1.737840000  -0.885520000  -0.052730000
| 22> H  -2.090180000  -1.032320000   0.841890000
| 23> H  -0.839590000  -1.284090000  -0.017130000
| 24> O   1.752130000   0.741530000  -2.896280000
| 25> H   2.036450000   0.920500000  -1.984040000
| 26> H   0.921210000   1.242140000  -2.984230000
| 27> *
| 28> 
| 29>                          ****END OF INPUT****
================================================================================

                     *******************************
                     * Energy+Gradient Calculation *
                     *******************************

---------------------------------
CARTESIAN COORDINATES (ANGSTROEM)
---------------------------------
  O      0.923410   -1.794470   -2.768350
  H      1.359750   -2.338250   -3.430940
  H      1.303000   -0.879480   -2.865760
  O     -0.885520    1.737840    0.052730
  H     -1.032320    2.090180   -0.841890
  H     -1.284090    0.839590    0.017130
  O     -1.737840   -0.885520   -0.052730
  H     -2.090180   -1.032320    0.841890
  H     -0.839590   -1.284090   -0.017130
  O      1.752130    0.741530   -2.896280
  H      2.036450    0.920500   -1.984040
  H      0.921210    1.242140   -2.984230

----------------------------
CARTESIAN COORDINATES (A.U.)
----------------------------
  NO LB      ZA    FRAG     MASS         X           Y           Z
   0 O     8.0000    0    15.999    1.744992   -3.391057   -5.231423
   1 H     1.0000    0     1.008    2.569555   -4.418652   -6.483537
   2 H     1.0000    0     1.008    2.462313   -1.661976   -5.415502
   3 O     8.0000    0    15.999   -1.673390    3.284042    0.099645
   4 H     1.0000    0     1.008   -1.950802    3.949868   -1.590942
   5 H     1.0000    0     1.008   -2.426578    1.586595    0.032371
   6 O     8.0000    0    15.999   -3.284042   -1.673390   -0.099645
   7 H     1.0000    0     1.008   -3.949868   -1.950802    1.590942
   8 H     1.0000    0     1.008   -1.586595   -2.426578   -0.032371
   9 O     8.0000    0    15.999    3.311046    1.401289   -5.473176
  10 H     1.0000    0     1.008    3.848333    1.739493   -3.749292
  11 H     1.0000    0     1.008    1.740835    2.347304   -5.639377

--------------------------------
INTERNAL COORDINATES (ANGSTROEM)
--------------------------------
 O      0   0   0     0.000000000000     0.00000000     0.00000000
 H      1   0   0     0.961828878803     0.00000000     0.00000000
 H      1   2   0     0.995381322057   106.21731035     0.00000000
 O      3   1   2     4.489717992580   106.64087787   176.77928518
 H      4   3   1     0.972645187106    71.75107181   239.98847868
 H      4   3   1     0.983350632989    68.99381625   353.14737776
 O      6   4   3     1.785153773264   170.81379649    41.84808259
 H      7   6   4     0.972645187106   101.65007623   109.44492584
 H      7   6   4     0.983350632989    99.09581498     3.33484705
 O      3   1   2     1.682356278379   171.61043709   164.26103839
 H     10   3   1     0.972136791249   103.79460456    70.64587838
 H     10   3   1     0.974050112161   105.61118924   321.69395179

---------------------------
INTERNAL COORDINATES (A.U.)
---------------------------
 O      0   0   0     0.000000000000     0.00000000     0.00000000
 H      1   0   0     1.817593168635     0.00000000     0.00000000
 H      1   2   0     1.880998097508   106.21731035     0.00000000
 O      3   1   2     8.484337424516   106.64087787   176.77928518
 H      4   3   1     1.838033029106    71.75107181   239.98847868
 H      4   3   1     1.858263389967    68.99381625   353.14737776
 O      6   4   3     3.373451738406   170.81379649    41.84808259
 H      7   6   4     1.838033029106   101.65007623   109.44492584
 H      7   6   4     1.858263389967    99.09581498     3.33484705
 O      3   1   2     3.179192625819   171.61043709   164.26103839
 H     10   3   1     1.837072300170   103.79460456    70.64587838
 H     10   3   1     1.840687952699   105.61118924   321.69395179

---------------------
BASIS SET INFORMATION
---------------------
There are 2 groups of distinct atoms

 Group   1 Type O   : 11s6p2d1f contracted to 5s3p2d1f pattern {62111/411/11/1}
 Group   2 Type H   : 5s1p contracted to 3s1p pattern {311/1}

Atom   0O    basis set group =>   1
Atom   1H    basis set group =>   2
Atom   2H    basis set group =>   2
Atom   3O    basis set group =>   1
Atom   4H    basis set group =>   2
Atom   5H    basis set group =>   2
Atom   6O    basis set group =>   1
Atom   7H    basis set group =>   2
Atom   8H    basis set group =>   2
Atom   9O    basis set group =>   1
Atom  10H    basis set group =>   2
Atom  11H    basis set group =>   2


           ************************************************************
           *        Program running with 6 parallel MPI-processes     *
           *              working on a common directory               *
           ************************************************************
------------------------------------------------------------------------------
                           ORCA GTO INTEGRAL CALCULATION
------------------------------------------------------------------------------

                         BASIS SET STATISTICS AND STARTUP INFO

 # of primitive gaussian shells          ...  128
 # of primitive gaussian functions       ...  248
 # of contracted shells                  ...   76
 # of contracted basis functions         ...  172
 Highest angular momentum                ...    3
 Maximum contraction depth               ...    6
 Integral package used                   ... LIBINT
 Integral threshhold            Thresh   ...  2.500e-11
 Primitive cut-off              TCut     ...  2.500e-12


------------------------------ INTEGRAL EVALUATION ----------------------------


 * One electron integrals 
 Pre-screening matrix                    ... done
 Shell pair data                         ... done (   0.001 sec)



           ************************************************************
           *        Program running with 6 parallel MPI-processes     *
           *              working on a common directory               *
           ************************************************************
-------------------------------------------------------------------------------
                                 ORCA SCF
-------------------------------------------------------------------------------

------------
SCF SETTINGS
------------
Hamiltonian:
 Ab initio Hamiltonian  Method          .... Hartree-Fock(GTOs)


General Settings:
 Integral files         IntName         .... 12h2o.su.etal.mol2,4,7,8-orca.engrad-mp2.def2tzvp.frozencore
 Hartree-Fock type      HFTyp           .... RHF
 Total Charge           Charge          ....    0
 Multiplicity           Mult            ....    1
 Number of Electrons    NEL             ....   40
 Basis Dimension        Dim             ....  172
 Nuclear Repulsion      ENuc            ....    124.2879781978 Eh

Convergence Acceleration:
 DIIS                   CNVDIIS         .... on
   Start iteration      DIISMaxIt       ....    12
   Startup error        DIISStart       ....  0.200000
   # of expansion vecs  DIISMaxEq       ....     5
   Bias factor          DIISBfac        ....   1.050
   Max. coefficient     DIISMaxC        ....  10.000
 Newton-Raphson         CNVNR           .... off
 SOSCF                  CNVSOSCF        .... on
   Start iteration      SOSCFMaxIt      ....   150
   Startup grad/error   SOSCFStart      ....  0.003300
 Level Shifting         CNVShift        .... on
   Level shift para.    LevelShift      ....    0.2500
   Turn off err/grad.   ShiftErr        ....    0.0010
 Zerner damping         CNVZerner       .... off
 Static damping         CNVDamp         .... on
   Fraction old density DampFac         ....    0.7000
   Max. Damping (<1)    DampMax         ....    0.9800
   Min. Damping (>=0)   DampMin         ....    0.0000
   Turn off err/grad.   DampErr         ....    0.1000
 Fernandez-Rico         CNVRico         .... off

SCF Procedure:
 Maximum # iterations   MaxIter         ....   125
 SCF integral mode      SCFMode         .... Direct
   Integral package                     .... LIBINT
 Reset frequency        DirectResetFreq ....    20
 Integral Threshold     Thresh          ....  2.500e-11 Eh
 Primitive CutOff       TCut            ....  2.500e-12 Eh

Convergence Tolerance:
 Convergence Check Mode ConvCheckMode   .... Total+1el-Energy
 Convergence forced     ConvForced      .... 1
 Energy Change          TolE            ....  1.000e-08 Eh
 1-El. energy change                    ....  1.000e-05 Eh
 Orbital Gradient       TolG            ....  1.000e-05
 Orbital Rotation angle TolX            ....  1.000e-05
 DIIS Error             TolErr          ....  5.000e-07


Diagonalization of the overlap matrix:
Smallest eigenvalue                        ... 4.445e-03
Time for diagonalization                   ...    0.004 sec
Threshold for overlap eigenvalues          ... 1.000e-08
Number of eigenvalues below threshold      ... 0
Time for construction of square roots      ...    0.015 sec
Total time needed                          ...    0.019 sec

-------------------
DFT GRID GENERATION
-------------------

General Integration Accuracy     IntAcc      ...  4.340
Radial Grid Type                 RadialGrid  ... Gauss-Chebyshev
Angular Grid (max. acc.)         AngularGrid ... Lebedev-110
Angular grid pruning method      GridPruning ... 3 (G Style)
Weight generation scheme         WeightScheme... Becke
Basis function cutoff            BFCut       ...    1.0000e-11
Integration weight cutoff        WCut        ...    1.0000e-14
Grids for H and He will be reduced by one unit

# of grid points (after initial pruning)     ...  13216 (   0.0 sec)
# of grid points (after weights+screening)   ...  12743 (   0.0 sec)
nearest neighbour list constructed           ...    0.0 sec
Grid point re-assignment to atoms done       ...    0.0 sec
Grid point division into batches done        ...    0.0 sec
Reduced shell lists constructed in    0.0 sec

Total number of grid points                  ...    12743
Total number of batches                      ...      204
Average number of points per batch           ...       62
Average number of grid points per atom       ...     1062
Average number of shells per batch           ...    40.54 (53.35%)
Average number of basis functions per batch  ...    83.80 (48.72%)
Average number of large shells per batch     ...    29.80 (73.50%)
Average number of large basis fcns per batch ...    60.09 (71.70%)
Maximum spatial batch extension              ...  20.95, 12.83, 16.48 au
Average spatial batch extension              ...   0.87,  0.63,  0.77 au

Time for grid setup =    0.127 sec

------------------------------
INITIAL GUESS: MODEL POTENTIAL
------------------------------
Loading Hartree-Fock densities                     ... done
Calculating cut-offs                               ... done
Setting up the integral package                    ... done
Initializing the effective Hamiltonian             ... done
Starting the Coulomb interaction                   ... done (   0.0 sec)
Reading the grid                                   ... done
Mapping shells                                     ... done
Starting the XC term evaluation                    ... done (   0.1 sec)
Transforming the Hamiltonian                       ... done (   0.0 sec)
Diagonalizing the Hamiltonian                      ... done (   0.0 sec)
Back transforming the eigenvectors                 ... done (   0.0 sec)
Now organizing SCF variables                       ... done
                      ------------------
                      INITIAL GUESS DONE (   0.4 sec)
                      ------------------
--------------
SCF ITERATIONS
--------------
ITER       Energy         Delta-E        Max-DP      RMS-DP      [F,P]     Damp
               ***  Starting incremental Fock matrix formation  ***
  0   -303.8682587674   0.000000000000 0.04396659  0.00120363  0.3534139 0.7000
  1   -304.0147335747  -0.146474807337 0.02931998  0.00083131  0.2166101 0.7000
                               ***Turning on DIIS***
  2   -304.0919222566  -0.077188681855 0.01680731  0.00046054  0.1635694 0.7000
  3   -304.7739651310  -0.682042874374 0.00746970  0.00020719  0.1218554 0.7000
  4   -304.6350991199   0.138866011015 0.01611875  0.00047964  0.0862253 0.0000
  5   -304.2692150557   0.365884064207 0.00213713  0.00007847  0.0056823 0.0000
                      *** Initiating the SOSCF procedure ***
                           *** Shutting down DIIS ***
                      *** Re-Reading the Fockian *** 
                      *** Removing any level shift *** 
ITER      Energy       Delta-E        Grad      Rot      Max-DP    RMS-DP
  6   -304.24726649   0.0219485613  0.000833  0.000833  0.001423  0.000048
               *** Restarting incremental Fock matrix formation ***
  7   -304.24046115   0.0068053421  0.000326  0.000440  0.000691  0.000021
  8   -304.24046709  -0.0000059339  0.000126  0.000358  0.000534  0.000017
  9   -304.24046850  -0.0000014118  0.000069  0.000039  0.000100  0.000003
 10   -304.24046861  -0.0000001107  0.000014  0.000008  0.000019  0.000001
                  ***Gradient check signals convergence***
              ***Rediagonalizing the Fockian in SOSCF/NRSCF***

               *****************************************************
               *                     SUCCESS                       *
               *           SCF CONVERGED AFTER  11 CYCLES          *
               *****************************************************


----------------
TOTAL SCF ENERGY
----------------

Total Energy       :         -304.24046861 Eh           -8278.80404 eV

Components:
Nuclear Repulsion  :          124.28797820 Eh            3382.04783 eV
Electronic Energy  :         -428.52844681 Eh          -11660.85186 eV
One Electron Energy:         -667.36624416 Eh          -18159.95874 eV
Two Electron Energy:          238.83779735 Eh            6499.10687 eV

Virial components:
Potential Energy   :         -608.06007033 Eh          -16546.15570 eV
Kinetic Energy     :          303.81960171 Eh            8267.35167 eV
Virial Ratio       :            2.00138525


---------------
SCF CONVERGENCE
---------------

  Last Energy change         ...   -3.0276e-09  Tolerance :   1.0000e-08
  Last MAX-Density change    ...    3.8827e-06  Tolerance :   1.0000e-07
  Last RMS-Density change    ...    1.3872e-07  Tolerance :   5.0000e-09
  Last Orbital Gradient      ...    1.7348e-06  Tolerance :   1.0000e-05
  Last Orbital Rotation      ...    1.8839e-06  Tolerance :   1.0000e-05

             **** THE GBW FILE WAS UPDATED (12h2o.su.etal.mol2,4,7,8-orca.engrad-mp2.def2tzvp.frozencore.gbw) ****
             **** DENSITY FILE WAS UPDATED (12h2o.su.etal.mol2,4,7,8-orca.engrad-mp2.def2tzvp.frozencore.scfp) ****
             **** ENERGY FILE WAS UPDATED (12h2o.su.etal.mol2,4,7,8-orca.engrad-mp2.def2tzvp.frozencore.en.tmp) ****
             **** THE GBW FILE WAS UPDATED (12h2o.su.etal.mol2,4,7,8-orca.engrad-mp2.def2tzvp.frozencore.gbw) ****
             **** DENSITY FILE WAS UPDATED (12h2o.su.etal.mol2,4,7,8-orca.engrad-mp2.def2tzvp.frozencore.scfp) ****
----------------
ORBITAL ENERGIES
----------------

  NO   OCC          E(Eh)            E(eV) 
   0   2.0000     -20.598729      -560.5199 
   1   2.0000     -20.588949      -560.2538 
   2   2.0000     -20.538132      -558.8710 
   3   2.0000     -20.523969      -558.4856 
   4   2.0000      -1.384004       -37.6607 
   5   2.0000      -1.369710       -37.2717 
   6   2.0000      -1.318737       -35.8847 
   7   2.0000      -1.306182       -35.5430 
   8   2.0000      -0.741531       -20.1781 
   9   2.0000      -0.726770       -19.7764 
  10   2.0000      -0.696397       -18.9499 
  11   2.0000      -0.693606       -18.8740 
  12   2.0000      -0.619811       -16.8659 
  13   2.0000      -0.610203       -16.6045 
  14   2.0000      -0.567885       -15.4529 
  15   2.0000      -0.561963       -15.2918 
  16   2.0000      -0.519931       -14.1480 
  17   2.0000      -0.518541       -14.1102 
  18   2.0000      -0.485964       -13.2237 
  19   2.0000      -0.474355       -12.9079 
  20   0.0000       0.093480         2.5437 
  21   0.0000       0.130216         3.5434 
  22   0.0000       0.157483         4.2853 
  23   0.0000       0.177207         4.8220 
  24   0.0000       0.204163         5.5555 
  25   0.0000       0.216227         5.8838 
  26   0.0000       0.306783         8.3480 
  27   0.0000       0.332341         9.0435 
  28   0.0000       0.450251        12.2519 
  29   0.0000       0.478178        13.0119 
  30   0.0000       0.500640        13.6231 
  31   0.0000       0.528177        14.3724 
  32   0.0000       0.540771        14.7151 
  33   0.0000       0.554878        15.0990 
  34   0.0000       0.584365        15.9014 
  35   0.0000       0.588839        16.0231 
  36   0.0000       0.607365        16.5272 
  37   0.0000       0.616883        16.7862 
  38   0.0000       0.634987        17.2789 
  39   0.0000       0.643440        17.5089 
  40   0.0000       0.664470        18.0811 
  41   0.0000       0.695739        18.9320 
  42   0.0000       0.733337        19.9551 
  43   0.0000       0.740903        20.1610 
  44   0.0000       0.762134        20.7387 
  45   0.0000       0.771543        20.9948 
  46   0.0000       0.796347        21.6697 
  47   0.0000       0.809583        22.0299 
  48   0.0000       0.932947        25.3868 
  49   0.0000       0.943958        25.6864 
  50   0.0000       1.009894        27.4806 
  51   0.0000       1.020879        27.7795 
  52   0.0000       1.359518        36.9944 
  53   0.0000       1.364809        37.1383 
  54   0.0000       1.379413        37.5357 
  55   0.0000       1.399037        38.0697 
  56   0.0000       1.446212        39.3534 
  57   0.0000       1.484901        40.4062 
  58   0.0000       1.486731        40.4560 
  59   0.0000       1.488388        40.5011 
  60   0.0000       1.558455        42.4077 
  61   0.0000       1.583450        43.0879 
  62   0.0000       1.587016        43.1849 
  63   0.0000       1.606895        43.7258 
  64   0.0000       1.780660        48.4542 
  65   0.0000       1.795576        48.8601 
  66   0.0000       1.810020        49.2531 
  67   0.0000       1.837129        49.9908 
  68   0.0000       1.871820        50.9348 
  69   0.0000       1.899170        51.6790 
  70   0.0000       1.990148        54.1547 
  71   0.0000       1.999043        54.3967 
  72   0.0000       2.054544        55.9070 
  73   0.0000       2.055572        55.9350 
  74   0.0000       2.119056        57.6624 
  75   0.0000       2.134121        58.0724 
  76   0.0000       2.238625        60.9161 
  77   0.0000       2.272372        61.8344 
  78   0.0000       2.317246        63.0555 
  79   0.0000       2.320083        63.1327 
  80   0.0000       2.338432        63.6320 
  81   0.0000       2.343673        63.7746 
  82   0.0000       2.377222        64.6875 
  83   0.0000       2.392104        65.0925 
  84   0.0000       2.442115        66.4533 
  85   0.0000       2.491153        67.7877 
  86   0.0000       2.528378        68.8007 
  87   0.0000       2.547909        69.3321 
  88   0.0000       2.566603        69.8408 
  89   0.0000       2.573123        70.0182 
  90   0.0000       2.615646        71.1753 
  91   0.0000       2.628616        71.5283 
  92   0.0000       2.660072        72.3842 
  93   0.0000       2.661732        72.4294 
  94   0.0000       2.724761        74.1445 
  95   0.0000       2.778484        75.6064 
  96   0.0000       2.894231        78.7560 
  97   0.0000       2.914819        79.3163 
  98   0.0000       2.916679        79.3669 
  99   0.0000       2.925350        79.6028 
 100   0.0000       2.945739        80.1576 
 101   0.0000       2.953227        80.3614 
 102   0.0000       2.999445        81.6191 
 103   0.0000       3.037911        82.6658 
 104   0.0000       3.086921        83.9994 
 105   0.0000       3.106442        84.5306 
 106   0.0000       3.181496        86.5729 
 107   0.0000       3.197258        87.0018 
 108   0.0000       3.222658        87.6930 
 109   0.0000       3.236967        88.0824 
 110   0.0000       3.413226        92.8786 
 111   0.0000       3.498340        95.1947 
 112   0.0000       4.001111       108.8758 
 113   0.0000       4.011955       109.1708 
 114   0.0000       4.074877       110.8831 
 115   0.0000       4.104243       111.6821 
 116   0.0000       4.273742       116.2944 
 117   0.0000       4.276067       116.3577 
 118   0.0000       4.350484       118.3827 
 119   0.0000       4.396593       119.6374 
 120   0.0000       5.510159       149.9390 
 121   0.0000       5.518558       150.1676 
 122   0.0000       5.567709       151.5051 
 123   0.0000       5.581649       151.8844 
 124   0.0000       5.643835       153.5766 
 125   0.0000       5.651788       153.7930 
 126   0.0000       5.673158       154.3745 
 127   0.0000       5.676850       154.4750 
 128   0.0000       5.793129       157.6391 
 129   0.0000       5.797752       157.7649 
 130   0.0000       5.802653       157.8982 
 131   0.0000       5.818075       158.3179 
 132   0.0000       5.841793       158.9633 
 133   0.0000       5.851901       159.2383 
 134   0.0000       5.860661       159.4767 
 135   0.0000       5.865758       159.6154 
 136   0.0000       5.879358       159.9855 
 137   0.0000       5.886926       160.1914 
 138   0.0000       5.914109       160.9311 
 139   0.0000       5.961566       162.2225 
 140   0.0000       6.442221       175.3017 
 141   0.0000       6.450910       175.5382 
 142   0.0000       6.489155       176.5789 
 143   0.0000       6.496792       176.7867 
 144   0.0000       6.662392       181.2929 
 145   0.0000       6.689224       182.0230 
 146   0.0000       6.741460       183.4444 
 147   0.0000       6.744069       183.5155 
 148   0.0000       6.828230       185.8056 
 149   0.0000       6.834696       185.9815 
 150   0.0000       6.867319       186.8693 
 151   0.0000       6.872975       187.0232 
 152   0.0000       6.877700       187.1517 
 153   0.0000       6.896134       187.6533 
 154   0.0000       6.930669       188.5931 
 155   0.0000       6.949310       189.1003 
 156   0.0000       6.980572       189.9510 
 157   0.0000       6.984298       190.0524 
 158   0.0000       6.993824       190.3116 
 159   0.0000       7.059582       192.1010 
 160   0.0000       7.353616       200.1021 
 161   0.0000       7.404801       201.4949 
 162   0.0000       7.452922       202.8043 
 163   0.0000       7.470107       203.2720 
 164   0.0000       7.492908       203.8924 
 165   0.0000       7.500490       204.0987 
 166   0.0000       7.566524       205.8956 
 167   0.0000       7.569867       205.9865 
 168   0.0000      44.878121      1221.1958 
 169   0.0000      44.895723      1221.6747 
 170   0.0000      44.942595      1222.9502 
 171   0.0000      44.962880      1223.5022 

                    ********************************
                    * MULLIKEN POPULATION ANALYSIS *
                    ********************************

-----------------------
MULLIKEN ATOMIC CHARGES
-----------------------
   0 O :   -0.758103
   1 H :    0.336064
   2 H :    0.389853
   3 O :   -0.736157
   4 H :    0.326191
   5 H :    0.382042
   6 O :   -0.711180
   7 H :    0.360730
   8 H :    0.378759
   9 O :   -0.705912
  10 H :    0.372734
  11 H :    0.364980
Sum of atomic charges:   -0.0000000

--------------------------------
MULLIKEN REDUCED ORBITAL CHARGES
--------------------------------
  0 O s       :     3.808169  s :     3.808169
      pz      :     1.718611  p :     4.924652
      px      :     1.802168
      py      :     1.403873
      dz2     :     0.003997  d :     0.023809
      dxz     :     0.005583
      dyz     :     0.004618
      dx2y2   :     0.002347
      dxy     :     0.007264
      f0      :     0.000087  f :     0.001473
      f+1     :     0.000185
      f-1     :     0.000328
      f+2     :     0.000070
      f-2     :     0.000360
      f+3     :     0.000354
      f-3     :     0.000089
  1 H s       :     0.617840  s :     0.617840
      pz      :     0.017036  p :     0.046096
      px      :     0.015148
      py      :     0.013911
  2 H s       :     0.553181  s :     0.553181
      pz      :     0.010924  p :     0.056966
      px      :     0.014152
      py      :     0.031890
  3 O s       :     3.811504  s :     3.811504
      pz      :     1.516518  p :     4.898096
      px      :     1.876509
      py      :     1.505069
      dz2     :     0.011586  d :     0.025110
      dxz     :     0.002616
      dyz     :     0.002957
      dx2y2   :     0.002988
      dxy     :     0.004963
      f0      :     0.000187  f :     0.001447
      f+1     :     0.000125
      f-1     :     0.000453
      f+2     :     0.000077
      f-2     :     0.000042
      f+3     :     0.000448
      f-3     :     0.000116
  4 H s       :     0.628632  s :     0.628632
      pz      :     0.018125  p :     0.045177
      px      :     0.014606
      py      :     0.012446
  5 H s       :     0.563887  s :     0.563887
      pz      :     0.009563  p :     0.054071
      px      :     0.015549
      py      :     0.028959
  6 O s       :     3.808986  s :     3.808986
      pz      :     1.548185  p :     4.874371
      px      :     1.479488
      py      :     1.846698
      dz2     :     0.012290  d :     0.026390
      dxz     :     0.003047
      dyz     :     0.002389
      dx2y2   :     0.003670
      dxy     :     0.004994
      f0      :     0.000168  f :     0.001434
      f+1     :     0.000473
      f-1     :     0.000119
      f+2     :     0.000069
      f-2     :     0.000042
      f+3     :     0.000108
      f-3     :     0.000454
  7 H s       :     0.595384  s :     0.595384
      pz      :     0.019008  p :     0.043886
      px      :     0.011491
      py      :     0.013387
  8 H s       :     0.578946  s :     0.578946
      pz      :     0.009704  p :     0.042295
      px      :     0.018718
      py      :     0.013873
  9 O s       :     3.800226  s :     3.800226
      pz      :     1.532249  p :     4.878269
      px      :     1.554947
      py      :     1.791073
      dz2     :     0.012537  d :     0.025963
      dxz     :     0.001225
      dyz     :     0.002508
      dx2y2   :     0.002508
      dxy     :     0.007185
      f0      :     0.000249  f :     0.001455
      f+1     :     0.000394
      f-1     :     0.000165
      f+2     :     0.000052
      f-2     :     0.000057
      f+3     :     0.000055
      f-3     :     0.000483
 10 H s       :     0.583724  s :     0.583724
      pz      :     0.019535  p :     0.043542
      px      :     0.011549
      py      :     0.012459
 11 H s       :     0.591547  s :     0.591547
      pz      :     0.010259  p :     0.043473
      px      :     0.018406
      py      :     0.014808


                     *******************************
                     * LOEWDIN POPULATION ANALYSIS *
                     *******************************

----------------------
LOEWDIN ATOMIC CHARGES
----------------------
   0 O :   -0.373407
   1 H :    0.149516
   2 H :    0.150982
   3 O :   -0.361945
   4 H :    0.152557
   5 H :    0.151584
   6 O :   -0.297673
   7 H :    0.170896
   8 H :    0.184627
   9 O :   -0.278325
  10 H :    0.176655
  11 H :    0.174533

-------------------------------
LOEWDIN REDUCED ORBITAL CHARGES
-------------------------------
  0 O s       :     3.467653  s :     3.467653
      pz      :     1.705759  p :     4.874002
      px      :     1.778993
      py      :     1.389250
      dz2     :     0.004297  d :     0.029735
      dxz     :     0.005791
      dyz     :     0.007072
      dx2y2   :     0.003383
      dxy     :     0.009193
      f0      :     0.000073  f :     0.002017
      f+1     :     0.000267
      f-1     :     0.000442
      f+2     :     0.000034
      f-2     :     0.000630
      f+3     :     0.000487
      f-3     :     0.000085
  1 H s       :     0.686194  s :     0.686194
      pz      :     0.065523  p :     0.164291
      px      :     0.053267
      py      :     0.045501
  2 H s       :     0.655651  s :     0.655651
      pz      :     0.033693  p :     0.193366
      px      :     0.047619
      py      :     0.112055
  3 O s       :     3.472820  s :     3.472820
      pz      :     1.532590  p :     4.855815
      px      :     1.838923
      py      :     1.484302
      dz2     :     0.015250  d :     0.031240
      dxz     :     0.001769
      dyz     :     0.004455
      dx2y2   :     0.003817
      dxy     :     0.005949
      f0      :     0.000403  f :     0.002070
      f+1     :     0.000194
      f-1     :     0.000763
      f+2     :     0.000049
      f-2     :     0.000045
      f+3     :     0.000550
      f-3     :     0.000065
  4 H s       :     0.688900  s :     0.688900
      pz      :     0.077877  p :     0.158543
      px      :     0.043852
      py      :     0.036815
  5 H s       :     0.663745  s :     0.663745
      pz      :     0.028936  p :     0.184670
      px      :     0.052517
      py      :     0.103217
  6 O s       :     3.470530  s :     3.470530
      pz      :     1.546009  p :     4.791724
      px      :     1.459453
      py      :     1.786262
      dz2     :     0.015857  d :     0.033314
      dxz     :     0.004267
      dyz     :     0.001497
      dx2y2   :     0.005324
      dxy     :     0.006368
      f0      :     0.000367  f :     0.002104
      f+1     :     0.000755
      f-1     :     0.000214
      f+2     :     0.000042
      f-2     :     0.000046
      f+3     :     0.000074
      f-3     :     0.000606
  7 H s       :     0.670547  s :     0.670547
      pz      :     0.080072  p :     0.158557
      px      :     0.035546
      py      :     0.042938
  8 H s       :     0.661419  s :     0.661419
      pz      :     0.028972  p :     0.153954
      px      :     0.075757
      py      :     0.049226
  9 O s       :     3.458944  s :     3.458944
      pz      :     1.521348  p :     4.783593
      px      :     1.532100
      py      :     1.730145
      dz2     :     0.016625  d :     0.033583
      dxz     :     0.001948
      dyz     :     0.001995
      dx2y2   :     0.003724
      dxy     :     0.009291
      f0      :     0.000451  f :     0.002205
      f+1     :     0.000591
      f-1     :     0.000347
      f+2     :     0.000023
      f-2     :     0.000048
      f+3     :     0.000027
      f-3     :     0.000718
 10 H s       :     0.664559  s :     0.664559
      pz      :     0.081803  p :     0.158786
      px      :     0.035456
      py      :     0.041527
 11 H s       :     0.667907  s :     0.667907
      pz      :     0.029820  p :     0.157561
      px      :     0.072682
      py      :     0.055059


                      *****************************
                      * MAYER POPULATION ANALYSIS *
                      *****************************

  NA   - Mulliken gross atomic population
  ZA   - Total nuclear charge
  QA   - Mulliken gross atomic charge
  VA   - Mayer's total valence
  BVA  - Mayer's bonded valence
  FA   - Mayer's free valence

  ATOM       NA         ZA         QA         VA         BVA        FA
  0 O      8.7581     8.0000    -0.7581     1.7001     1.7001     0.0000
  1 H      0.6639     1.0000     0.3361     0.9029     0.9029     0.0000
  2 H      0.6101     1.0000     0.3899     0.8817     0.8817     0.0000
  3 O      8.7362     8.0000    -0.7362     1.7213     1.7213    -0.0000
  4 H      0.6738     1.0000     0.3262     0.9083     0.9083     0.0000
  5 H      0.6180     1.0000     0.3820     0.8924     0.8924    -0.0000
  6 O      8.7112     8.0000    -0.7112     1.7806     1.7806    -0.0000
  7 H      0.6393     1.0000     0.3607     0.8828     0.8828     0.0000
  8 H      0.6212     1.0000     0.3788     0.8725     0.8725    -0.0000
  9 O      8.7059     8.0000    -0.7059     1.7779     1.7779     0.0000
 10 H      0.6273     1.0000     0.3727     0.8770     0.8770    -0.0000
 11 H      0.6350     1.0000     0.3650     0.8838     0.8838     0.0000

  Mayer bond orders larger than 0.100000
B(  0-O ,  1-H ) :   0.8970 B(  0-O ,  2-H ) :   0.8209 B(  3-O ,  4-H ) :   0.9033 
B(  3-O ,  5-H ) :   0.8285 B(  6-O ,  7-H ) :   0.8771 B(  6-O ,  8-H ) :   0.8611 
B(  9-O , 10-H ) :   0.8680 B(  9-O , 11-H ) :   0.8733 

-------
TIMINGS
-------

Total SCF time: 0 days 0 hours 0 min 4 sec 

Total time                  ....       4.691 sec
Sum of individual times     ....       4.370 sec  ( 93.2%)

Fock matrix formation       ....       3.940 sec  ( 84.0%)
Diagonalization             ....       0.031 sec  (  0.7%)
Density matrix formation    ....       0.005 sec  (  0.1%)
Population analysis         ....       0.004 sec  (  0.1%)
Initial guess               ....       0.243 sec  (  5.2%)
Orbital Transformation      ....       0.000 sec  (  0.0%)
Orbital Orthonormalization  ....       0.000 sec  (  0.0%)
DIIS solution               ....       0.010 sec  (  0.2%)
SOSCF solution              ....       0.011 sec  (  0.2%)


           ************************************************************
           *        Program running with 6 parallel MPI-processes     *
           *              working on a common directory               *
           ************************************************************

------------------------------------------------------------------------------
                                ORCA  MP2 
------------------------------------------------------------------------------

Freezing NCore=8 chemical core electrons
MP2 will be done in the AO integral direct mode
The Q1-step will be done using symmetric double matrices
Dimension of the basis                    ...  172
Memory devoted for MP2                    ... 8000 MB   
Memory needed for all in one shot         ...   60 MB
Number of MOs that can be treated together...  408      
MP2 density construction                  ... relaxed
The MP2 gradient is requested => amplitudes will be stored on disk
Total number of MOs              ...   16
Number of MOs treated per batch  ...    3 
Number of batches necessary      ...    1 
OPERATORS   0/  0 PASS   0
-----------------------------------------------
 MP2 CORRELATION ENERGY   :     -1.030031086 Eh
-----------------------------------------------


---------------------
MP2 DENSITY FORMATION
---------------------

Completing the external part of the density      ... done
Storing the unrelaxed density                    ... done

Calculating G(D)                                 ... done
Completing the Lagrangian                        ... done
Solving the Z-vector equations                   ... 

------------------------------------------------------------------------------
                           ORCA CP-SCF CALCULATION
------------------------------------------------------------------------------

Input orbitals are from        ... 12h2o.su.etal.mol2,4,7,8-orca.engrad-mp2.def2tzvp.frozencore.gbw
Input Perturbation             ... 12h2o.su.etal.mol2,4,7,8-orca.engrad-mp2.def2tzvp.frozencore.pin.tmp
Wavefunction output            ... 12h2o.su.etal.mol2,4,7,8-orca.engrad-mp2.def2tzvp.frozencore.pout.tmp
Perturbation mode              ... Real perturbation (singlet)
Solver                         ... POPLE
Max. number of iterations      ... 128
Convergence tolerance          ... 1.000e-08
Integral handling              ... Direct
Number of perturbations        ... 1
Number of operators            ... 1
Orbital ranges used for CP-SCF:
 Operator 0:  Orbitals   0... 19  to  20...171
Variables per vector in CP-SCF ... 3040
Number of vectors sought       ... 1
     CP-SCF ITERATION   0: 
     CP-SCF ITERATION   1:      0.000486781583
     CP-SCF ITERATION   2:      0.000010790066
     CP-SCF ITERATION   3:      0.000000266140
     CP-SCF ITERATION   4:      0.000000028585
     CP-SCF ITERATION   5:      0.000000003539
                                                 ... done
Finalizing the relaxed density                   ... done
Transforming P to the AO basis                   ... done
Storing the relaxed density                      ... done

------------------------------------
ENERGY WEIGHTED DENSITY FINALIZATION
------------------------------------

Gathering the parts of the W-matrix              ...                                                      done
Forming the Z-density                            ... done
Transforming Z to the AO basis                   ... done
Calculating G(Z)                                 ... done
Finalizing the W-matrix                          ...                                                      done
Transforming W to the AO basis and storing       ... done

                *********************************************
                * UNRELAXED MP2 DENSITY POPULATION ANALYSIS *
                *********************************************

------------------------------------------------------------------------------
                           ORCA POPULATION ANALYSIS
------------------------------------------------------------------------------
Input electron density              ... 12h2o.su.etal.mol2,4,7,8-orca.engrad-mp2.def2tzvp.frozencore.pmp2ur
BaseName (.gbw .S,...)              ... 12h2o.su.etal.mol2,4,7,8-orca.engrad-mp2.def2tzvp.frozencore

                    ********************************
                    * MULLIKEN POPULATION ANALYSIS *
                    ********************************

-----------------------
MULLIKEN ATOMIC CHARGES
-----------------------
   0 O :   -0.752729
   1 H :    0.333828
   2 H :    0.385591
   3 O :   -0.730548
   4 H :    0.323719
   5 H :    0.377930
   6 O :   -0.705053
   7 H :    0.358325
   8 H :    0.376085
   9 O :   -0.699866
  10 H :    0.370267
  11 H :    0.362451
Sum of atomic charges:   -0.0000000

--------------------------------
MULLIKEN REDUCED ORBITAL CHARGES
--------------------------------
  0 O s       :     3.803284  s :     3.803284
      pz      :     1.708201  p :     4.894594
      px      :     1.790908
      py      :     1.395485
      dz2     :     0.009466  d :     0.050812
      dxz     :     0.010919
      dyz     :     0.009984
      dx2y2   :     0.007839
      dxy     :     0.012603
      f0      :     0.000456  f :     0.004039
      f+1     :     0.000548
      f-1     :     0.000692
      f+2     :     0.000438
      f-2     :     0.000725
      f+3     :     0.000719
      f-3     :     0.000462
  1 H s       :     0.618363  s :     0.618363
      pz      :     0.017543  p :     0.047809
      px      :     0.015897
      py      :     0.014369
  2 H s       :     0.555750  s :     0.555750
      pz      :     0.011765  p :     0.058659
      px      :     0.014898
      py      :     0.031996
  3 O s       :     3.806501  s :     3.806501
      pz      :     1.507490  p :     4.868154
      px      :     1.864647
      py      :     1.496016
      dz2     :     0.016630  d :     0.051883
      dxz     :     0.008102
      dyz     :     0.008290
      dx2y2   :     0.008487
      dxy     :     0.010374
      f0      :     0.000565  f :     0.004010
      f+1     :     0.000493
      f-1     :     0.000818
      f+2     :     0.000438
      f-2     :     0.000406
      f+3     :     0.000805
      f-3     :     0.000484
  4 H s       :     0.629339  s :     0.629339
      pz      :     0.018304  p :     0.046942
      px      :     0.015514
      py      :     0.013123
  5 H s       :     0.566330  s :     0.566330
      pz      :     0.010376  p :     0.055740
      px      :     0.016258
      py      :     0.029106
  6 O s       :     3.803893  s :     3.803893
      pz      :     1.538826  p :     4.843916
      px      :     1.470931
      py      :     1.834159
      dz2     :     0.017340  d :     0.053240
      dxz     :     0.008321
      dyz     :     0.007936
      dx2y2   :     0.009190
      dxy     :     0.010453
      f0      :     0.000550  f :     0.004004
      f+1     :     0.000835
      f-1     :     0.000492
      f+2     :     0.000432
      f-2     :     0.000406
      f+3     :     0.000477
      f-3     :     0.000810
  7 H s       :     0.596194  s :     0.596194
      pz      :     0.019156  p :     0.045480
      px      :     0.012091
      py      :     0.014233
  8 H s       :     0.580093  s :     0.580093
      pz      :     0.010501  p :     0.043822
      px      :     0.018748
      py      :     0.014573
  9 O s       :     3.795077  s :     3.795077
      pz      :     1.523094  p :     4.847813
      px      :     1.545820
      py      :     1.778900
      dz2     :     0.017609  d :     0.052940
      dxz     :     0.006597
      dyz     :     0.008050
      dx2y2   :     0.008119
      dxy     :     0.012563
      f0      :     0.000629  f :     0.004037
      f+1     :     0.000759
      f-1     :     0.000540
      f+2     :     0.000414
      f-2     :     0.000423
      f+3     :     0.000429
      f-3     :     0.000843
 10 H s       :     0.584667  s :     0.584667
      pz      :     0.019594  p :     0.045066
      px      :     0.012207
      py      :     0.013266
 11 H s       :     0.592527  s :     0.592527
      pz      :     0.011022  p :     0.045022
      px      :     0.018571
      py      :     0.015429


                     *******************************
                     * LOEWDIN POPULATION ANALYSIS *
                     *******************************

----------------------
LOEWDIN ATOMIC CHARGES
----------------------
   0 O :   -0.371000
   1 H :    0.148260
   2 H :    0.148534
   3 O :   -0.359262
   4 H :    0.150987
   5 H :    0.149161
   6 O :   -0.293397
   7 H :    0.169544
   8 H :    0.183057
   9 O :   -0.274214
  10 H :    0.175271
  11 H :    0.173058

-------------------------------
LOEWDIN REDUCED ORBITAL CHARGES
-------------------------------
  0 O s       :     3.464000  s :     3.464000
      pz      :     1.695362  p :     4.844421
      px      :     1.768076
      py      :     1.380983
      dz2     :     0.009843  d :     0.057800
      dxz     :     0.011442
      dyz     :     0.012657
      dx2y2   :     0.008976
      dxy     :     0.014882
      f0      :     0.000451  f :     0.004778
      f+1     :     0.000649
      f-1     :     0.000853
      f+2     :     0.000409
      f-2     :     0.001039
      f+3     :     0.000905
      f-3     :     0.000472
  1 H s       :     0.684164  s :     0.684164
      pz      :     0.066815  p :     0.167576
      px      :     0.054296
      py      :     0.046465
  2 H s       :     0.655581  s :     0.655581
      pz      :     0.034534  p :     0.195885
      px      :     0.048512
      py      :     0.112839
  3 O s       :     3.469094  s :     3.469094
      pz      :     1.523133  p :     4.826203
      px      :     1.827644
      py      :     1.475426
      dz2     :     0.020960  d :     0.059139
      dxz     :     0.007188
      dyz     :     0.009803
      dx2y2   :     0.009500
      dxy     :     0.011687
      f0      :     0.000813  f :     0.004827
      f+1     :     0.000579
      f-1     :     0.001197
      f+2     :     0.000418
      f-2     :     0.000416
      f+3     :     0.000962
      f-3     :     0.000443
  4 H s       :     0.687008  s :     0.687008
      pz      :     0.079673  p :     0.162005
      px      :     0.044671
      py      :     0.037661
  5 H s       :     0.663443  s :     0.663443
      pz      :     0.029732  p :     0.187396
      px      :     0.053366
      py      :     0.104298
  6 O s       :     3.466627  s :     3.466627
      pz      :     1.536380  p :     4.760707
      px      :     1.450641
      py      :     1.773686
      dz2     :     0.021554  d :     0.061195
      dxz     :     0.009565
      dyz     :     0.006966
      dx2y2   :     0.011008
      dxy     :     0.012102
      f0      :     0.000779  f :     0.004868
      f+1     :     0.001186
      f-1     :     0.000603
      f+2     :     0.000413
      f-2     :     0.000417
      f+3     :     0.000453
      f-3     :     0.001017
  7 H s       :     0.668804  s :     0.668804
      pz      :     0.081635  p :     0.161652
      px      :     0.036292
      py      :     0.043725
  8 H s       :     0.660042  s :     0.660042
      pz      :     0.029746  p :     0.156900
      px      :     0.077035
      py      :     0.050119
  9 O s       :     3.455072  s :     3.455072
      pz      :     1.511977  p :     4.752593
      px      :     1.522744
      py      :     1.717873
      dz2     :     0.022386  d :     0.061566
      dxz     :     0.007260
      dyz     :     0.007463
      dx2y2   :     0.009307
      dxy     :     0.015150
      f0      :     0.000871  f :     0.004983
      f+1     :     0.001010
      f-1     :     0.000745
      f+2     :     0.000389
      f-2     :     0.000422
      f+3     :     0.000407
      f-3     :     0.001138
 10 H s       :     0.662996  s :     0.662996
      pz      :     0.083233  p :     0.161733
      px      :     0.036176
      py      :     0.042324
 11 H s       :     0.666356  s :     0.666356
      pz      :     0.030547  p :     0.160586
      px      :     0.073966
      py      :     0.056073


                      *****************************
                      * MAYER POPULATION ANALYSIS *
                      *****************************

  NA   - Mulliken gross atomic population
  ZA   - Total nuclear charge
  QA   - Mulliken gross atomic charge
  VA   - Mayer's total valence
  BVA  - Mayer's bonded valence
  FA   - Mayer's free valence

  ATOM       NA         ZA         QA         VA         BVA        FA
  0 O      8.7527     8.0000    -0.7527     2.0127     1.6214     0.3913
  1 H      0.6662     1.0000     0.3338     0.9089     0.8613     0.0476
  2 H      0.6144     1.0000     0.3856     0.8889     0.8431     0.0458
  3 O      8.7305     8.0000    -0.7305     2.0310     1.6408     0.3903
  4 H      0.6763     1.0000     0.3237     0.9146     0.8649     0.0497
  5 H      0.6221     1.0000     0.3779     0.8997     0.8537     0.0460
  6 O      8.7051     8.0000    -0.7051     2.0871     1.6992     0.3879
  7 H      0.6417     1.0000     0.3583     0.8886     0.8421     0.0465
  8 H      0.6239     1.0000     0.3761     0.8784     0.8324     0.0460
  9 O      8.6999     8.0000    -0.6999     2.0832     1.6977     0.3854
 10 H      0.6297     1.0000     0.3703     0.8827     0.8373     0.0454
 11 H      0.6375     1.0000     0.3625     0.8897     0.8435     0.0462

  Mayer bond orders larger than 0.100000
B(  0-O ,  1-H ) :   0.8559 B(  0-O ,  2-H ) :   0.7838 B(  3-O ,  4-H ) :   0.8605 
B(  3-O ,  5-H ) :   0.7914 B(  6-O ,  7-H ) :   0.8369 B(  6-O ,  8-H ) :   0.8216 
B(  9-O , 10-H ) :   0.8289 B(  9-O , 11-H ) :   0.8336 


                *******************************************
                * RELAXED MP2 DENSITY POPULATION ANALYSIS *
                *******************************************

------------------------------------------------------------------------------
                           ORCA POPULATION ANALYSIS
------------------------------------------------------------------------------
Input electron density              ... 12h2o.su.etal.mol2,4,7,8-orca.engrad-mp2.def2tzvp.frozencore.pmp2re
BaseName (.gbw .S,...)              ... 12h2o.su.etal.mol2,4,7,8-orca.engrad-mp2.def2tzvp.frozencore

                    ********************************
                    * MULLIKEN POPULATION ANALYSIS *
                    ********************************

-----------------------
MULLIKEN ATOMIC CHARGES
-----------------------
   0 O :   -0.734313
   1 H :    0.327672
   2 H :    0.365176
   3 O :   -0.712143
   4 H :    0.317918
   5 H :    0.356659
   6 O :   -0.682652
   7 H :    0.352542
   8 H :    0.368511
   9 O :   -0.677948
  10 H :    0.363313
  11 H :    0.355266
Sum of atomic charges:   -0.0000000

--------------------------------
MULLIKEN REDUCED ORBITAL CHARGES
--------------------------------
  0 O s       :     3.804656  s :     3.804656
      pz      :     1.702463  p :     4.876799
      px      :     1.785152
      py      :     1.389183
      dz2     :     0.009257  d :     0.048885
      dxz     :     0.010602
      dyz     :     0.009424
      dx2y2   :     0.007715
      dxy     :     0.011886
      f0      :     0.000453  f :     0.003973
      f+1     :     0.000540
      f-1     :     0.000675
      f+2     :     0.000438
      f-2     :     0.000705
      f+3     :     0.000701
      f-3     :     0.000460
  1 H s       :     0.623741  s :     0.623741
      pz      :     0.017653  p :     0.048587
      px      :     0.016554
      py      :     0.014380
  2 H s       :     0.575849  s :     0.575849
      pz      :     0.012547  p :     0.058974
      px      :     0.015454
      py      :     0.030974
  3 O s       :     3.807273  s :     3.807273
      pz      :     1.500841  p :     4.851073
      px      :     1.858136
      py      :     1.492096
      dz2     :     0.015413  d :     0.049855
      dxz     :     0.008149
      dyz     :     0.008039
      dx2y2   :     0.008287
      dxy     :     0.009967
      f0      :     0.000551  f :     0.003942
      f+1     :     0.000488
      f-1     :     0.000791
      f+2     :     0.000438
      f-2     :     0.000405
      f+3     :     0.000787
      f-3     :     0.000482
  4 H s       :     0.634277  s :     0.634277
      pz      :     0.017648  p :     0.047805
      px      :     0.016573
      py      :     0.013584
  5 H s       :     0.587199  s :     0.587199
      pz      :     0.011046  p :     0.056142
      px      :     0.016812
      py      :     0.028285
  6 O s       :     3.807737  s :     3.807737
      pz      :     1.533005  p :     4.819892
      px      :     1.467382
      py      :     1.819505
      dz2     :     0.016107  d :     0.051093
      dxz     :     0.008064
      dyz     :     0.007999
      dx2y2   :     0.008914
      dxy     :     0.010008
      f0      :     0.000535  f :     0.003930
      f+1     :     0.000807
      f-1     :     0.000486
      f+2     :     0.000432
      f-2     :     0.000405
      f+3     :     0.000476
      f-3     :     0.000789
  7 H s       :     0.601314  s :     0.601314
      pz      :     0.018497  p :     0.046144
      px      :     0.012452
      py      :     0.015196
  8 H s       :     0.587105  s :     0.587105
      pz      :     0.011195  p :     0.044384
      px      :     0.017964
      py      :     0.015225
  9 O s       :     3.797677  s :     3.797677
      pz      :     1.518414  p :     4.825479
      px      :     1.542588
      py      :     1.764477
      dz2     :     0.016283  d :     0.050833
      dxz     :     0.006543
      dyz     :     0.008032
      dx2y2   :     0.008088
      dxy     :     0.011886
      f0      :     0.000610  f :     0.003960
      f+1     :     0.000736
      f-1     :     0.000530
      f+2     :     0.000414
      f-2     :     0.000421
      f+3     :     0.000430
      f-3     :     0.000818
 10 H s       :     0.591052  s :     0.591052
      pz      :     0.018831  p :     0.045635
      px      :     0.012708
      py      :     0.014096
 11 H s       :     0.599106  s :     0.599106
      pz      :     0.011681  p :     0.045628
      px      :     0.018027
      py      :     0.015921


                     *******************************
                     * LOEWDIN POPULATION ANALYSIS *
                     *******************************

----------------------
LOEWDIN ATOMIC CHARGES
----------------------
   0 O :   -0.373204
   1 H :    0.150143
   2 H :    0.141702
   3 O :   -0.361322
   4 H :    0.152625
   5 H :    0.142456
   6 O :   -0.288669
   7 H :    0.171394
   8 H :    0.184002
   9 O :   -0.269603
  10 H :    0.176374
  11 H :    0.174102

-------------------------------
LOEWDIN REDUCED ORBITAL CHARGES
-------------------------------
  0 O s       :     3.465516  s :     3.465516
      pz      :     1.694912  p :     4.845911
      px      :     1.766458
      py      :     1.384541
      dz2     :     0.009783  d :     0.056961
      dxz     :     0.011343
      dyz     :     0.012291
      dx2y2   :     0.008950
      dxy     :     0.014594
      f0      :     0.000453  f :     0.004815
      f+1     :     0.000650
      f-1     :     0.000866
      f+2     :     0.000410
      f-2     :     0.001040
      f+3     :     0.000921
      f-3     :     0.000476
  1 H s       :     0.682026  s :     0.682026
      pz      :     0.066872  p :     0.167831
      px      :     0.054913
      py      :     0.046046
  2 H s       :     0.662144  s :     0.662144
      pz      :     0.035232  p :     0.196155
      px      :     0.049122
      py      :     0.111800
  3 O s       :     3.470850  s :     3.470850
      pz      :     1.524477  p :     4.827446
      px      :     1.824669
      py      :     1.478300
      dz2     :     0.020326  d :     0.058170
      dxz     :     0.007254
      dyz     :     0.009561
      dx2y2   :     0.009447
      dxy     :     0.011582
      f0      :     0.000810  f :     0.004856
      f+1     :     0.000578
      f-1     :     0.001210
      f+2     :     0.000420
      f-2     :     0.000415
      f+3     :     0.000977
      f-3     :     0.000446
  4 H s       :     0.684810  s :     0.684810
      pz      :     0.079164  p :     0.162565
      px      :     0.045636
      py      :     0.037766
  5 H s       :     0.669523  s :     0.669523
      pz      :     0.030131  p :     0.188021
      px      :     0.054037
      py      :     0.103853
  6 O s       :     3.468483  s :     3.468483
      pz      :     1.537671  p :     4.755209
      px      :     1.453945
      py      :     1.763592
      dz2     :     0.020912  d :     0.060092
      dxz     :     0.009326
      dyz     :     0.007046
      dx2y2   :     0.010888
      dxy     :     0.011919
      f0      :     0.000775  f :     0.004884
      f+1     :     0.001194
      f-1     :     0.000604
      f+2     :     0.000415
      f-2     :     0.000416
      f+3     :     0.000456
      f-3     :     0.001025
  7 H s       :     0.666961  s :     0.666961
      pz      :     0.080960  p :     0.161645
      px      :     0.036182
      py      :     0.044503
  8 H s       :     0.659283  s :     0.659283
      pz      :     0.030179  p :     0.156716
      px      :     0.075867
      py      :     0.050670
  9 O s       :     3.456464  s :     3.456464
      pz      :     1.514146  p :     4.747603
      px      :     1.524847
      py      :     1.708610
      dz2     :     0.021689  d :     0.060535
      dxz     :     0.007124
      dyz     :     0.007499
      dx2y2   :     0.009367
      dxy     :     0.014856
      f0      :     0.000870  f :     0.005000
      f+1     :     0.001017
      f-1     :     0.000746
      f+2     :     0.000391
      f-2     :     0.000421
      f+3     :     0.000409
      f-3     :     0.001146
 10 H s       :     0.662039  s :     0.662039
      pz      :     0.082261  p :     0.161587
      px      :     0.036324
      py      :     0.043002
 11 H s       :     0.665346  s :     0.665346
      pz      :     0.030872  p :     0.160552
      px      :     0.073158
      py      :     0.056522


                      *****************************
                      * MAYER POPULATION ANALYSIS *
                      *****************************

  NA   - Mulliken gross atomic population
  ZA   - Total nuclear charge
  QA   - Mulliken gross atomic charge
  VA   - Mayer's total valence
  BVA  - Mayer's bonded valence
  FA   - Mayer's free valence

  ATOM       NA         ZA         QA         VA         BVA        FA
  0 O      8.7343     8.0000    -0.7343     2.0197     1.6331     0.3866
  1 H      0.6723     1.0000     0.3277     0.9126     0.8649     0.0477
  2 H      0.6348     1.0000     0.3652     0.9138     0.8686     0.0453
  3 O      8.7121     8.0000    -0.7121     2.0380     1.6529     0.3852
  4 H      0.6821     1.0000     0.3179     0.9182     0.8685     0.0498
  5 H      0.6433     1.0000     0.3567     0.9281     0.8829     0.0452
  6 O      8.6827     8.0000    -0.6827     2.1166     1.7346     0.3821
  7 H      0.6475     1.0000     0.3525     0.8927     0.8461     0.0466
  8 H      0.6315     1.0000     0.3685     0.8859     0.8399     0.0459
  9 O      8.6779     8.0000    -0.6779     2.1121     1.7324     0.3797
 10 H      0.6367     1.0000     0.3633     0.8894     0.8441     0.0453
 11 H      0.6447     1.0000     0.3553     0.8969     0.8508     0.0461

  Mayer bond orders larger than 0.100000
B(  0-O ,  1-H ) :   0.8592 B(  0-O ,  2-H ) :   0.7859 B(  3-O ,  4-H ) :   0.8634 
B(  3-O ,  5-H ) :   0.7935 B(  6-O ,  7-H ) :   0.8402 B(  6-O ,  8-H ) :   0.8251 
B(  9-O , 10-H ) :   0.8326 B(  9-O , 11-H ) :   0.8372 


----------------------------------
MP2 DERIVATIVE INTEGRAL GENERATION
----------------------------------


Input Wavefunction Amplitudes       ... 12h2o.su.etal.mol2,4,7,8-orca.engrad-mp2.def2tzvp.frozencore.mp2tsaa.tmp
Input Correlated Electron Density   ... 12h2o.su.etal.mol2,4,7,8-orca.engrad-mp2.def2tzvp.frozencore.pmp2re
Input Energy Weighted Density       ... 12h2o.su.etal.mol2,4,7,8-orca.engrad-mp2.def2tzvp.frozencore.wmp2.tmp
Input SCF Electron Density          ... 12h2o.su.etal.mol2,4,7,8-orca.engrad-mp2.def2tzvp.frozencore.scfp

One-Electron Terms    ...
                        ... One-Electron Terms done
Prescreening matrices              ... done

Batch handling in the gradient evaluation:
Memory available                      ... 8000.0 MB
Memory per occupied orbital in Q2     ...    3.6 MB
Memory per occupied orbital in Q3     ...    0.1 MB
Total memory requirement per |i>      ...    3.7 MB
Max. Number of orbitals possible      ...   2176
Number of orbitals treated per batch  ...     16
Number of batches to be done          ...      1
Batch   0: i=    4 ...    19

---------------------------------------
MP2 TOTAL ENERGY:     -305.270499698 Eh
---------------------------------------

The final MP2 gradient
  0:  -0.00395264  -0.01091145  -0.00165677
  1:  -0.00003784  -0.00166515  -0.00054261
  2:   0.00638730   0.02049977   0.00178937
  3:   0.00140352   0.00160361   0.01185612
  4:   0.00055017   0.00266095  -0.01089975
  5:  -0.00312862  -0.00822404   0.00164950
  6:  -0.01353156   0.00791731  -0.01223587
  7:  -0.00105375   0.00047602   0.00735858
  8:   0.01508274  -0.00397248   0.00472479
  9:   0.00521934  -0.01226841  -0.00784355
 10:   0.00122533  -0.00030680   0.00582252
 11:  -0.00816402   0.00419067  -0.00002234

-----------------------------------
NORM OF THE MP2 GRADIENT:  0.045075
-----------------------------------

-------------------------   --------------------
FINAL SINGLE POINT ENERGY      -305.270499697921
-------------------------   --------------------


                            ***************************************
                            *     ORCA property calculations      *
                            ***************************************

                                    ---------------------
                                    Active property flags
                                    ---------------------
   (+) Dipole Moment


------------------------------------------------------------------------------
                       ORCA ELECTRIC PROPERTIES CALCULATION
------------------------------------------------------------------------------

Dipole Moment Calculation                       ... on
Quadrupole Moment Calculation                   ... off
Polarizability Calculation                      ... off
GBWName                                         ... 12h2o.su.etal.mol2,4,7,8-orca.engrad-mp2.def2tzvp.frozencore.gbw
Electron density file                           ... 12h2o.su.etal.mol2,4,7,8-orca.engrad-mp2.def2tzvp.frozencore.scfp
The origin for moment calculation is the CENTER OF MASS  = ( 0.031785, -0.095850 -2.674450)

-------------
DIPOLE MOMENT
-------------
                                X             Y             Z
Electronic contribution:     -0.01882       0.02446       0.01213
Nuclear contribution   :      0.22463      -0.03370       0.05351
                        -----------------------------------------
Total Dipole Moment    :      0.20581      -0.00924       0.06564
                        -----------------------------------------
Magnitude (a.u.)       :      0.21622
Magnitude (Debye)      :      0.54958



--------------------
Rotational spectrum 
--------------------
 
Rotational constants in cm-1:     0.123869     0.057924     0.039921 
Rotational constants in MHz :  3713.486869  1736.507661  1196.790488 

 Dipole components along the rotational axes: 
x,y,z [a.u.] :    -0.091669    -0.052480     0.188661 
x,y,z [Debye]:    -0.233004    -0.133393     0.479538 

 

                         *** MP2 UNRELAXED DENSITY ***

------------------------------------------------------------------------------
                       ORCA ELECTRIC PROPERTIES CALCULATION
------------------------------------------------------------------------------

Dipole Moment Calculation                       ... on
Quadrupole Moment Calculation                   ... off
Polarizability Calculation                      ... off
GBWName                                         ... 12h2o.su.etal.mol2,4,7,8-orca.engrad-mp2.def2tzvp.frozencore.gbw
Electron density file                           ... 12h2o.su.etal.mol2,4,7,8-orca.engrad-mp2.def2tzvp.frozencore.pmp2ur
The origin for moment calculation is the CENTER OF MASS  = ( 0.031785, -0.095850 -2.674450)

-------------
DIPOLE MOMENT
-------------
                                X             Y             Z
Electronic contribution:     -0.02148       0.02411       0.01118
Nuclear contribution   :      0.22463      -0.03370       0.05351
                        -----------------------------------------
Total Dipole Moment    :      0.20315      -0.00959       0.06469
                        -----------------------------------------
Magnitude (a.u.)       :      0.21342
Magnitude (Debye)      :      0.54247



--------------------
Rotational spectrum 
--------------------
 
Rotational constants in cm-1:     0.123869     0.057924     0.039921 
Rotational constants in MHz :  3713.486869  1736.507661  1196.790488 

 Dipole components along the rotational axes: 
x,y,z [a.u.] :    -0.090673    -0.051358     0.186250 
x,y,z [Debye]:    -0.230472    -0.130541     0.473410 

 

                           *** MP2 RELAXED DENSITY ***

------------------------------------------------------------------------------
                       ORCA ELECTRIC PROPERTIES CALCULATION
------------------------------------------------------------------------------

Dipole Moment Calculation                       ... on
Quadrupole Moment Calculation                   ... off
Polarizability Calculation                      ... off
GBWName                                         ... 12h2o.su.etal.mol2,4,7,8-orca.engrad-mp2.def2tzvp.frozencore.gbw
Electron density file                           ... 12h2o.su.etal.mol2,4,7,8-orca.engrad-mp2.def2tzvp.frozencore.pmp2re
The origin for moment calculation is the CENTER OF MASS  = ( 0.031785, -0.095850 -2.674450)

-------------
DIPOLE MOMENT
-------------
                                X             Y             Z
Electronic contribution:     -0.02757       0.02008       0.00654
Nuclear contribution   :      0.22463      -0.03370       0.05351
                        -----------------------------------------
Total Dipole Moment    :      0.19706      -0.01362       0.06005
                        -----------------------------------------
Magnitude (a.u.)       :      0.20646
Magnitude (Debye)      :      0.52478



--------------------
Rotational spectrum 
--------------------
 
Rotational constants in cm-1:     0.123869     0.057924     0.039921 
Rotational constants in MHz :  3713.486869  1736.507661  1196.790488 

 Dipole components along the rotational axes: 
x,y,z [a.u.] :    -0.090909    -0.045803     0.179619 
x,y,z [Debye]:    -0.231071    -0.116422     0.456556 

 

Timings for individual modules:

Sum of individual times         ...       19.399 sec (=   0.323 min)
GTO integral calculation        ...        1.472 sec (=   0.025 min)   7.6 %
SCF iterations                  ...        5.638 sec (=   0.094 min)  29.1 %
MP2 module                      ...       12.289 sec (=   0.205 min)  63.3 %
                             ****ORCA TERMINATED NORMALLY****
TOTAL RUN TIME: 0 days 0 hours 0 minutes 20 seconds 558 msec
