31
Energy:   -400.02910732
Na  -0.00056587   0.00110001   0.00088806
C    4.61503441   0.91799121   1.90417256
H    5.25496003   1.28216870   1.12778983
H    5.02108940   0.01326752   2.30603508
H    4.54210269   1.65156059   2.67970851
C    3.21456891   0.64018161   1.32700862
N    2.17185869   0.43333975   0.89728383
C   -3.06846420  -3.33565363   2.28591024
H   -3.62901696  -2.83969756   3.05057249
H   -2.48264454  -4.11705799   2.72308487
H   -3.74019077  -3.75383313   1.56562667
C   -2.13804388  -2.32295382   1.59283224
N   -1.44530367  -1.56895278   1.07680415
C   -1.54172902   2.41423575  -4.19064792
H   -1.89594823   3.38993786  -3.93096673
H   -2.33170033   1.85901644  -4.65170751
H   -0.72222725   2.50221115  -4.87297942
C   -1.07441910   1.68243471  -2.91876401
N   -0.72648562   1.13757557  -1.97178863
C   -1.92815413   3.73726133   2.86226326
H   -1.45063027   4.66132642   2.61131538
H   -1.75994474   3.51806619   3.89597414
H   -2.97962323   3.81851230   2.68140393
C   -1.34419677   2.60583283   1.99597038
N   -0.90941397   1.76343288   1.35097595
C    1.92384729  -3.73506352  -2.86275254
H    1.14224091  -4.17660151  -3.44502040
H    2.36190158  -4.47929666  -2.23098949
H    2.67212969  -3.33539337  -3.51485400
C    1.34133713  -2.60366371  -1.99544845
N    0.90763184  -1.76128512  -1.34970112
