31
Energy:   -382.14439965
Na  -0.25611093  -0.20145990   0.15222347
C    2.07711214   2.69132482  -3.32489358
H    2.98878735   2.29106625  -3.71673739
H    2.22897230   3.71132881  -3.03953514
H    1.31429656   2.64017431  -4.07348901
C    1.64429966   1.87297175  -2.09421426
N    1.32205110   1.26367068  -1.17791756
C   -3.73901741   3.17466727   1.58885210
H   -3.49697480   4.16098475   1.25196430
H   -3.88106848   3.18481715   2.64933197
H   -4.63835643   2.84544964   1.11166851
C   -2.58855255   2.21432475   1.23420744
N   -1.73197916   1.49930609   0.97015838
C    0.38855723  -0.87198876  -4.57304751
H   -0.51142484  -0.59573285  -5.08158968
H    0.82314114  -1.72322848  -5.05411597
H    1.07918936  -0.05520374  -4.60112916
C    0.06438810  -1.22000238  -3.10832880
N   -0.17697055  -1.47911434  -2.01777915
C   -2.19553861  -3.95227398   2.85246824
H   -1.67836674  -3.74515228   3.76599658
H   -1.88055459  -4.90126647   2.47155168
H   -3.24942895  -3.97367648   3.03619678
C   -1.87640620  -2.85372908   1.82147183
N   -1.63879761  -2.03581247   1.05384814
C    3.64798621  -0.68615577   3.34661745
H    3.25575643  -0.39327938   4.29807917
H    4.45111106  -0.03313928   3.07558419
H    4.00966282  -1.69153462   3.40408474
C    2.53605853  -0.60054031   2.28459728
N    1.70817784  -0.53679570   1.49387499
