31
Energy:   -400.02918953
Na  -0.00021197   0.00063654  -0.00026953
C    0.16976132   0.27465409  -5.06609982
H    1.18880896   0.24560490  -5.39105863
H   -0.28166493   1.18941118  -5.38910588
H   -0.36223634  -0.55334172  -5.48598136
C    0.11848968   0.19159170  -3.52919648
N    0.08031561   0.12974798  -2.38490209
C    4.30543198  -0.02559445   2.68835096
H    4.68672145   0.97149156   2.76141269
H    5.02623254  -0.64826091   2.20087570
H    4.11096276  -0.40586542   3.66940896
C    2.99913418  -0.01717276   1.87280505
N    2.02653609  -0.01090242   1.26559406
C   -4.48212454  -0.25074808   2.36960228
H   -4.32374444  -0.35836304   3.42232966
H   -5.03207716  -1.09254233   2.00376945
H   -5.03544857   0.64564639   2.18196286
C   -3.12217745  -0.17444637   1.65104683
N   -2.10963502  -0.11763627   1.11604963
C    0.14604882  -5.07585566  -0.26544289
H    0.12555703  -5.48484268   0.72309639
H    1.04483884  -5.38124360  -0.75921793
H   -0.70088996  -5.42959354  -0.81540953
C    0.10091456  -3.53856892  -0.18599253
N    0.06731006  -2.39398906  -0.12683813
C   -0.13867436   5.07682813   0.27412534
H    0.74008357   5.48273850  -0.18185873
H   -0.17922296   5.37718682   1.30030250
H   -1.00576156   5.43858559  -0.23791999
C   -0.09711172   3.53966561   0.19043588
N   -0.06616644   2.39517824   0.12812527
