31
Energy:   -400.02926635
Na   0.00003654  -0.00004065   0.00032456
C   -4.16830055  -2.85536258  -0.48892190
H   -4.73614029  -2.81641444   0.41713619
H   -3.88523326  -3.86761602  -0.68920915
H   -4.76192130  -2.48424190  -1.29810848
C   -2.90406872  -1.98866537  -0.34008025
N   -1.96279067  -1.34336990  -0.22926088
C   -0.06310565   4.86319995  -1.45310506
H   -1.02819882   5.10541119  -1.84658831
H    0.67922902   5.01956948  -2.20768236
H    0.14640068   5.48973550  -0.61140477
C   -0.04403239   3.38779611  -1.01217454
N   -0.02983148   2.28929089  -0.68388172
C   -1.48492687   1.37783442   4.66493806
H   -2.42532881   1.88469329   4.60461832
H   -0.75412016   2.03174004   5.09298956
H   -1.58765507   0.50732582   5.27858355
C   -1.03541381   0.96008218   3.25248591
N   -0.70073090   0.64904665   2.20085108
C    1.48057197  -1.37307177  -4.66713737
H    1.58611060  -2.43700984  -4.70953502
H    2.41921334  -0.91222191  -4.89400489
H    0.74730693  -1.05869589  -5.38015160
C    1.03308603  -0.95754111  -3.25338683
N    0.69991241  -0.64815965  -2.20078528
C    4.23560370  -2.01242285   1.94378776
H    4.65221581  -2.70906273   1.24663111
H    4.00323682  -2.51812078   2.85766648
H    4.94410455  -1.23421377   2.13696197
C    2.95071442  -1.40199342   1.35384247
N    1.99405594  -0.94750096   0.91460138
