
                                 *****************
                                 * O   R   C   A *
                                 *****************

           --- An Ab Initio, DFT and Semiempirical electronic structure package ---

                  #######################################################
                  #                        -***-                        #
                  #          Department of theory and spectroscopy      #
                  #               Directorship: Frank Neese             #
                  #        Max Planck Institute fuer Kohlenforschung    #
                  #                Kaiser Wilhelm Platz 1               #
                  #                 D-45470 Muelheim/Ruhr               #
                  #                      Germany                        #
                  #                                                     #
                  #                  All rights reserved                #
                  #                        -***-                        #
                  #######################################################


                         Program Version 4.2.0 -  RELEASE  -


 With contributions from (in alphabetic order):
   Daniel Aravena         : Magnetic Suceptibility
   Michael Atanasov       : Ab Initio Ligand Field Theory (pilot matlab implementation)
   Alexander A. Auer      : GIAO ZORA, VPT2
   Ute Becker             : Parallelization
   Giovanni Bistoni       : ED, misc. LED, open-shell LED, HFLED
   Martin Brehm           : Molecular dynamics
   Dmytro Bykov           : SCF Hessian
   Vijay G. Chilkuri      : MRCI spin determinant printing, contributions to CSF-ICE
   Dipayan Datta          : RHF DLPNO-CCSD density
   Achintya Kumar Dutta   : EOM-CC, STEOM-CC
   Dmitry Ganyushin       : Spin-Orbit,Spin-Spin,Magnetic field MRCI
   Miquel Garcia          : C-PCM Hessian, Gaussian charge scheme
   Yang Guo               : DLPNO-NEVPT2, CIM, IAO-localization
   Andreas Hansen         : Spin unrestricted coupled pair/coupled cluster methods
   Benjamin Helmich-Paris : CASSCF linear response (MC-RPA)
   Lee Huntington         : MR-EOM, pCC
   Robert Izsak           : Overlap fitted RIJCOSX, COSX-SCS-MP3, EOM
   Christian Kollmar      : KDIIS, OOCD, Brueckner-CCSD(T), CCSD density
   Simone Kossmann        : Meta GGA functionals, TD-DFT gradient, OOMP2, MP2 Hessian
   Martin Krupicka        : AUTO-CI
   Lucas Lang             : DCDCAS
   Dagmar Lenk            : GEPOL surface, SMD
   Dimitrios Liakos       : Extrapolation schemes; Compound Job, initial MDCI parallelization
   Dimitrios Manganas     : Further ROCIS development; embedding schemes
   Dimitrios Pantazis     : SARC Basis sets
   Taras Petrenko         : DFT Hessian,TD-DFT gradient, ASA, ECA, R-Raman, ABS, FL, XAS/XES, NRVS
   Peter Pinski           : DLPNO-MP2, DLPNO-MP2 Gradient
   Christoph Reimann      : Effective Core Potentials
   Marius Retegan         : Local ZFS, SOC
   Christoph Riplinger    : Optimizer, TS searches, QM/MM, DLPNO-CCSD(T), (RO)-DLPNO pert. Triples
   Tobias Risthaus        : Range-separated hybrids, TD-DFT gradient, RPA, STAB
   Michael Roemelt        : Original ROCIS implementation
   Masaaki Saitow         : Open-shell DLPNO-CCSD energy and density
   Barbara Sandhoefer     : DKH picture change effects
   Avijit Sen             : IP-ROCIS
   Kantharuban Sivalingam : CASSCF convergence, NEVPT2, FIC-MRCI
   Bernardo de Souza      : ESD, SOC TD-DFT
   Georgi Stoychev        : AutoAux, RI-MP2 NMR
   Willem Van den Heuvel  : Paramagnetic NMR
   Boris Wezisla          : Elementary symmetry handling
   Frank Wennmohs         : Technical directorship


 We gratefully acknowledge several colleagues who have allowed us to
 interface, adapt or use parts of their codes:
   Stefan Grimme, W. Hujo, H. Kruse,             : VdW corrections, initial TS optimization,
                  C. Bannwarth                     DFT functionals, gCP, sTDA/sTD-DF
   Ed Valeev, F. Pavosevic, A. Kumar             : LibInt (2-el integral package), F12 methods
   Garnet Chan, S. Sharma, J. Yang, R. Olivares  : DMRG
   Ulf Ekstrom                                   : XCFun DFT Library
   Mihaly Kallay                                 : mrcc  (arbitrary order and MRCC methods)
   Andreas Klamt, Michael Diedenhofen            : otool_cosmo (COSMO solvation model)
   Jiri Pittner, Ondrej Demel                    : Mk-CCSD
   Frank Weinhold                                : gennbo (NPA and NBO analysis)
   Christopher J. Cramer and Donald G. Truhlar   : smd solvation model
   Lars Goerigk                                  : TD-DFT with DH, B97 family of functionals
   V. Asgeirsson, H. Jonsson                     : NEB implementation
   FAccTs GmbH                                   : IRC, NEB, NEB-TS, Multilevel, MM, QM/MM, CI optimization
   S Lehtola, MJT Oliveira, MAL Marques          : LibXC Library


 Your calculation uses the libint2 library for the computation of 2-el integrals
 For citations please refer to: http://libint.valeyev.net

 Your ORCA version has been built with support for libXC version: 4.2.3
 For citations please refer to: https://tddft.org/programs/libxc/

 This ORCA versions uses:
   CBLAS   interface :  Fast vector & matrix operations
   LAPACKE interface :  Fast linear algebra routines
   SCALAPACK package :  Parallel linear algebra routines


----- Orbital basis set information -----
Your calculation utilizes the basis: def2-TZVP
   F. Weigend and R. Ahlrichs, Phys. Chem. Chem. Phys. 7, 3297 (2005).

================================================================================
                                        WARNINGS
                       Please study these warnings very carefully!
================================================================================


WARNING: The frozen-core approximation for MP2-gradient calculations is turned on by default.

INFO   : the flag for use of LIBINT has been found!

================================================================================
                                       INPUT FILE
================================================================================
NAME = 12meoh.boyd.etal.mol2,6,10-orca.engrad-mp2.def2tzvp.frozencore.inp
|  1> # 12meoh.boyd.etal.mol2,6,10
|  2> ! MP2 def2-TZVP EnGrad TightSCF
|  3> 
|  4> %pal
|  5>     nprocs 6
|  6> end
|  7> 
|  8> %maxcore 8000
|  9> 
| 10> %scf
| 11>     ConvForced true
| 12> end
| 13> 
| 14> *xyz 0 1
| 15> O  -3.839777402   2.233595098   0.660436763
| 16> H  -2.958345897   1.907036203   0.973588449
| 17> C  -3.600368059   3.168790682  -0.390480452
| 18> H  -4.551709193   3.344148967  -0.901254863
| 19> H  -2.868237594   2.789240199  -1.113617525
| 20> H  -3.243594915   4.128998607   0.009549480
| 21> O   2.622209273  -1.703002590  -1.445859723
| 22> H   1.828551432  -1.986513781  -0.909754968
| 23> C   2.781117675  -2.615822239  -2.525472890
| 24> H   3.691063626  -2.339003544  -3.065143454
| 25> H   1.934727323  -2.559520367  -3.223226661
| 26> H   2.879948338  -3.653846211  -2.177750170
| 27> O  -5.201143618   0.064582726  -0.172223772
| 28> H  -4.686891530   0.869258890   0.107806143
| 29> C  -6.513192168   0.171391798   0.359883449
| 30> H  -7.049381312  -0.749234190   0.111361174
| 31> H  -7.057741163   1.017801101  -0.081819420
| 32> H  -6.514770575   0.292264928   1.453058834
| 33> *
| 34> 
| 35>                          ****END OF INPUT****
================================================================================

                     *******************************
                     * Energy+Gradient Calculation *
                     *******************************

---------------------------------
CARTESIAN COORDINATES (ANGSTROEM)
---------------------------------
  O     -3.839777    2.233595    0.660437
  H     -2.958346    1.907036    0.973588
  C     -3.600368    3.168791   -0.390480
  H     -4.551709    3.344149   -0.901255
  H     -2.868238    2.789240   -1.113618
  H     -3.243595    4.128999    0.009549
  O      2.622209   -1.703003   -1.445860
  H      1.828551   -1.986514   -0.909755
  C      2.781118   -2.615822   -2.525473
  H      3.691064   -2.339004   -3.065143
  H      1.934727   -2.559520   -3.223227
  H      2.879948   -3.653846   -2.177750
  O     -5.201144    0.064583   -0.172224
  H     -4.686892    0.869259    0.107806
  C     -6.513192    0.171392    0.359883
  H     -7.049381   -0.749234    0.111361
  H     -7.057741    1.017801   -0.081819
  H     -6.514771    0.292265    1.453059

----------------------------
CARTESIAN COORDINATES (A.U.)
----------------------------
  NO LB      ZA    FRAG     MASS         X           Y           Z
   0 O     8.0000    0    15.999   -7.256128    4.220883    1.248045
   1 H     1.0000    0     1.008   -5.590464    3.603776    1.839816
   2 C     6.0000    0    12.011   -6.803710    5.988147   -0.737901
   3 H     1.0000    0     1.008   -8.601484    6.319526   -1.703125
   4 H     1.0000    0     1.008   -5.420184    5.270900   -2.104432
   5 H     1.0000    0     1.008   -6.129506    7.802677    0.018046
   6 O     8.0000    0    15.999    4.955257   -3.218209   -2.732279
   7 H     1.0000    0     1.008    3.455461   -3.753967   -1.719188
   8 C     6.0000    0    12.011    5.255551   -4.943188   -4.772452
   9 H     1.0000    0     1.008    6.975099   -4.420076   -5.792282
  10 H     1.0000    0     1.008    3.656105   -4.836793   -6.091016
  11 H     1.0000    0     1.008    5.442314   -6.904769   -4.115351
  12 O     8.0000    0    15.999   -9.828737    0.122044   -0.325456
  13 H     1.0000    0     1.008   -8.856941    1.642661    0.203724
  14 C     6.0000    0    12.011  -12.308149    0.323884    0.680081
  15 H     1.0000    0     1.008  -13.321400   -1.415847    0.210442
  16 H     1.0000    0     1.008  -13.337198    1.923365   -0.154616
  17 H     1.0000    0     1.008  -12.311132    0.552301    2.745883

--------------------------------
INTERNAL COORDINATES (ANGSTROEM)
--------------------------------
 O      0   0   0     0.000000000000     0.00000000     0.00000000
 H      1   0   0     0.990770502364     0.00000000     0.00000000
 C      1   2   0     1.427001964481   107.42874151     0.00000000
 H      3   1   2     1.093933718418   107.63861717   166.29117132
 H      3   1   2     1.096813937399   111.76190604    46.44530864
 H      3   1   2     1.099686447133   111.02456630   284.51887035
 O      2   1   3     7.073097309480   139.64281717   296.74519110
 H      7   2   1     0.998839162396    48.26886621   262.44530846
 C      7   2   1     1.422693284649   132.46771151   338.19722094
 H      9   7   2     1.093560488172   107.75927006   134.24730435
 H      9   7   2     1.098365537375   111.29143095    15.59452780
 H      9   7   2     1.099168938972   112.08005485   253.78073019
 O      1   2   3     2.692815665897   106.38015486   120.85349010
 H     13   1   2     0.995176211641     1.72770964   270.52937889
 C     13   1   2     1.419865370399   106.89941329   134.76602729
 H     15  13   1     1.093990095520   107.72610853   185.39042730
 H     15  13   1     1.099110431505   111.41668057    66.74454963
 H     15  13   1     1.099838727857   112.46269835   304.92404720

---------------------------
INTERNAL COORDINATES (A.U.)
---------------------------
 O      0   0   0     0.000000000000     0.00000000     0.00000000
 H      1   0   0     1.872284911036     0.00000000     0.00000000
 C      1   2   0     2.696642905436   107.42874151     0.00000000
 H      3   1   2     2.067235136471   107.63861717   166.29117132
 H      3   1   2     2.072677961553   111.76190604    46.44530864
 H      3   1   2     2.078106218267   111.02456630   284.51887035
 O      2   1   3    13.366216833492   139.64281717   296.74519110
 H      7   2   1     1.887532468764    48.26886621   262.44530846
 C      7   2   1     2.688500680556   132.46771151   338.19722094
 H      9   7   2     2.066529833522   107.75927006   134.24730435
 H      9   7   2     2.075610060577   111.29143095    15.59452780
 H      9   7   2     2.077128269569   112.08005485   253.78073019
 O      1   2   3     5.088684137679   106.38015486   120.85349010
 H     13   1   2     1.880610494996     1.72770964   270.52937889
 C     13   1   2     2.683156697093   106.89941329   134.76602729
 H     15  13   1     2.067341673755   107.72610853   185.39042730
 H     15  13   1     2.077017706481   111.41668057    66.74454963
 H     15  13   1     2.078393987130   112.46269835   304.92404720

---------------------
BASIS SET INFORMATION
---------------------
There are 3 groups of distinct atoms

 Group   1 Type O   : 11s6p2d1f contracted to 5s3p2d1f pattern {62111/411/11/1}
 Group   2 Type H   : 5s1p contracted to 3s1p pattern {311/1}
 Group   3 Type C   : 11s6p2d1f contracted to 5s3p2d1f pattern {62111/411/11/1}

Atom   0O    basis set group =>   1
Atom   1H    basis set group =>   2
Atom   2C    basis set group =>   3
Atom   3H    basis set group =>   2
Atom   4H    basis set group =>   2
Atom   5H    basis set group =>   2
Atom   6O    basis set group =>   1
Atom   7H    basis set group =>   2
Atom   8C    basis set group =>   3
Atom   9H    basis set group =>   2
Atom  10H    basis set group =>   2
Atom  11H    basis set group =>   2
Atom  12O    basis set group =>   1
Atom  13H    basis set group =>   2
Atom  14C    basis set group =>   3
Atom  15H    basis set group =>   2
Atom  16H    basis set group =>   2
Atom  17H    basis set group =>   2


           ************************************************************
           *        Program running with 6 parallel MPI-processes     *
           *              working on a common directory               *
           ************************************************************
------------------------------------------------------------------------------
                           ORCA GTO INTEGRAL CALCULATION
------------------------------------------------------------------------------

                         BASIS SET STATISTICS AND STARTUP INFO

 # of primitive gaussian shells          ...  192
 # of primitive gaussian functions       ...  372
 # of contracted shells                  ...  114
 # of contracted basis functions         ...  258
 Highest angular momentum                ...    3
 Maximum contraction depth               ...    6
 Integral package used                   ... LIBINT
 Integral threshhold            Thresh   ...  2.500e-11
 Primitive cut-off              TCut     ...  2.500e-12


------------------------------ INTEGRAL EVALUATION ----------------------------


 * One electron integrals 
 Pre-screening matrix                    ... done
 Shell pair data                         ... done (   0.001 sec)



           ************************************************************
           *        Program running with 6 parallel MPI-processes     *
           *              working on a common directory               *
           ************************************************************
-------------------------------------------------------------------------------
                                 ORCA SCF
-------------------------------------------------------------------------------

------------
SCF SETTINGS
------------
Hamiltonian:
 Ab initio Hamiltonian  Method          .... Hartree-Fock(GTOs)


General Settings:
 Integral files         IntName         .... 12meoh.boyd.etal.mol2,6,10-orca.engrad-mp2.def2tzvp.frozencore
 Hartree-Fock type      HFTyp           .... RHF
 Total Charge           Charge          ....    0
 Multiplicity           Mult            ....    1
 Number of Electrons    NEL             ....   54
 Basis Dimension        Dim             ....  258
 Nuclear Repulsion      ENuc            ....    210.2950598977 Eh

Convergence Acceleration:
 DIIS                   CNVDIIS         .... on
   Start iteration      DIISMaxIt       ....    12
   Startup error        DIISStart       ....  0.200000
   # of expansion vecs  DIISMaxEq       ....     5
   Bias factor          DIISBfac        ....   1.050
   Max. coefficient     DIISMaxC        ....  10.000
 Newton-Raphson         CNVNR           .... off
 SOSCF                  CNVSOSCF        .... on
   Start iteration      SOSCFMaxIt      ....   150
   Startup grad/error   SOSCFStart      ....  0.003300
 Level Shifting         CNVShift        .... on
   Level shift para.    LevelShift      ....    0.2500
   Turn off err/grad.   ShiftErr        ....    0.0010
 Zerner damping         CNVZerner       .... off
 Static damping         CNVDamp         .... on
   Fraction old density DampFac         ....    0.7000
   Max. Damping (<1)    DampMax         ....    0.9800
   Min. Damping (>=0)   DampMin         ....    0.0000
   Turn off err/grad.   DampErr         ....    0.1000
 Fernandez-Rico         CNVRico         .... off

SCF Procedure:
 Maximum # iterations   MaxIter         ....   125
 SCF integral mode      SCFMode         .... Direct
   Integral package                     .... LIBINT
 Reset frequency        DirectResetFreq ....    20
 Integral Threshold     Thresh          ....  2.500e-11 Eh
 Primitive CutOff       TCut            ....  2.500e-12 Eh

Convergence Tolerance:
 Convergence Check Mode ConvCheckMode   .... Total+1el-Energy
 Convergence forced     ConvForced      .... 1
 Energy Change          TolE            ....  1.000e-08 Eh
 1-El. energy change                    ....  1.000e-05 Eh
 Orbital Gradient       TolG            ....  1.000e-05
 Orbital Rotation angle TolX            ....  1.000e-05
 DIIS Error             TolErr          ....  5.000e-07


Diagonalization of the overlap matrix:
Smallest eigenvalue                        ... 1.531e-03
Time for diagonalization                   ...    0.010 sec
Threshold for overlap eigenvalues          ... 1.000e-08
Number of eigenvalues below threshold      ... 0
Time for construction of square roots      ...    0.005 sec
Total time needed                          ...    0.015 sec

-------------------
DFT GRID GENERATION
-------------------

General Integration Accuracy     IntAcc      ...  4.340
Radial Grid Type                 RadialGrid  ... Gauss-Chebyshev
Angular Grid (max. acc.)         AngularGrid ... Lebedev-110
Angular grid pruning method      GridPruning ... 3 (G Style)
Weight generation scheme         WeightScheme... Becke
Basis function cutoff            BFCut       ...    1.0000e-11
Integration weight cutoff        WCut        ...    1.0000e-14
Grids for H and He will be reduced by one unit

# of grid points (after initial pruning)     ...  19644 (   0.0 sec)
# of grid points (after weights+screening)   ...  18736 (   0.0 sec)
nearest neighbour list constructed           ...    0.0 sec
Grid point re-assignment to atoms done       ...    0.0 sec
Grid point division into batches done        ...    0.0 sec
Reduced shell lists constructed in    0.0 sec

Total number of grid points                  ...    18736
Total number of batches                      ...      301
Average number of points per batch           ...       62
Average number of grid points per atom       ...     1041
Average number of shells per batch           ...    60.02 (52.65%)
Average number of basis functions per batch  ...   132.44 (51.33%)
Average number of large shells per batch     ...    45.81 (76.32%)
Average number of large basis fcns per batch ...   101.88 (76.93%)
Maximum spatial batch extension              ...  13.22, 13.92, 14.51 au
Average spatial batch extension              ...   0.48,  0.51,  0.54 au

Time for grid setup =    0.054 sec

------------------------------
INITIAL GUESS: MODEL POTENTIAL
------------------------------
Loading Hartree-Fock densities                     ... done
Calculating cut-offs                               ... done
Setting up the integral package                    ... done
Initializing the effective Hamiltonian             ... done
Starting the Coulomb interaction                   ... done (   0.0 sec)
Reading the grid                                   ... done
Mapping shells                                     ... done
Starting the XC term evaluation                    ... done (   0.0 sec)
Transforming the Hamiltonian                       ... done (   0.0 sec)
Diagonalizing the Hamiltonian                      ... done (   0.0 sec)
Back transforming the eigenvectors                 ... done (   0.0 sec)
Now organizing SCF variables                       ... done
                      ------------------
                      INITIAL GUESS DONE (   0.2 sec)
                      ------------------
--------------
SCF ITERATIONS
--------------
ITER       Energy         Delta-E        Max-DP      RMS-DP      [F,P]     Damp
               ***  Starting incremental Fock matrix formation  ***
  0   -344.9258082114   0.000000000000 0.03675404  0.00076662  0.2924130 0.7000
  1   -345.0508209590  -0.125012747553 0.02507137  0.00057301  0.2186827 0.7000
                               ***Turning on DIIS***
  2   -345.1236719021  -0.072850943131 0.01462598  0.00035722  0.1628412 0.7000
  3   -345.9879431773  -0.864271275121 0.00783212  0.00020218  0.1199689 0.7000
  4   -345.8410743681   0.146868809140 0.01689947  0.00048504  0.0845896 0.0000
  5   -345.3009192128   0.540155155340 0.00205840  0.00006548  0.0060579 0.0000
                      *** Initiating the SOSCF procedure ***
                           *** Shutting down DIIS ***
                      *** Re-Reading the Fockian *** 
                      *** Removing any level shift *** 
ITER      Energy       Delta-E        Grad      Rot      Max-DP    RMS-DP
  6   -345.27812292   0.0227962970  0.000808  0.000808  0.001160  0.000034
               *** Restarting incremental Fock matrix formation ***
  7   -345.27272015   0.0054027648  0.000326  0.000390  0.000688  0.000019
  8   -345.27272732  -0.0000071674  0.000211  0.000280  0.000500  0.000013
  9   -345.27272907  -0.0000017476  0.000036  0.000031  0.000076  0.000002
 10   -345.27272913  -0.0000000595  0.000006  0.000012  0.000019  0.000001
                  ***Gradient check signals convergence***
              ***Rediagonalizing the Fockian in SOSCF/NRSCF***

               *****************************************************
               *                     SUCCESS                       *
               *           SCF CONVERGED AFTER  11 CYCLES          *
               *****************************************************


----------------
TOTAL SCF ENERGY
----------------

Total Energy       :         -345.27272913 Eh           -9395.34861 eV

Components:
Nuclear Repulsion  :          210.29505990 Eh            5722.41950 eV
Electronic Energy  :         -555.56778903 Eh          -15117.76811 eV
One Electron Energy:         -889.52421477 Eh          -24205.18445 eV
Two Electron Energy:          333.95642574 Eh            9087.41634 eV

Virial components:
Potential Energy   :         -689.94840579 Eh          -18774.45060 eV
Kinetic Energy     :          344.67567666 Eh            9379.10199 eV
Virial Ratio       :            2.00173222


---------------
SCF CONVERGENCE
---------------

  Last Energy change         ...   -5.1241e-09  Tolerance :   1.0000e-08
  Last MAX-Density change    ...    5.7285e-06  Tolerance :   1.0000e-07
  Last RMS-Density change    ...    1.6695e-07  Tolerance :   5.0000e-09
  Last Orbital Gradient      ...    2.0318e-06  Tolerance :   1.0000e-05
  Last Orbital Rotation      ...    5.7376e-06  Tolerance :   1.0000e-05

             **** THE GBW FILE WAS UPDATED (12meoh.boyd.etal.mol2,6,10-orca.engrad-mp2.def2tzvp.frozencore.gbw) ****
             **** DENSITY FILE WAS UPDATED (12meoh.boyd.etal.mol2,6,10-orca.engrad-mp2.def2tzvp.frozencore.scfp) ****
             **** ENERGY FILE WAS UPDATED (12meoh.boyd.etal.mol2,6,10-orca.engrad-mp2.def2tzvp.frozencore.en.tmp) ****
             **** THE GBW FILE WAS UPDATED (12meoh.boyd.etal.mol2,6,10-orca.engrad-mp2.def2tzvp.frozencore.gbw) ****
             **** DENSITY FILE WAS UPDATED (12meoh.boyd.etal.mol2,6,10-orca.engrad-mp2.def2tzvp.frozencore.scfp) ****
----------------
ORBITAL ENERGIES
----------------

  NO   OCC          E(Eh)            E(eV) 
   0   2.0000     -20.590924      -560.3075 
   1   2.0000     -20.558600      -559.4280 
   2   2.0000     -20.515380      -558.2519 
   3   2.0000     -11.291311      -307.2522 
   4   2.0000     -11.271915      -306.7244 
   5   2.0000     -11.249002      -306.1009 
   6   2.0000      -1.384597       -37.6768 
   7   2.0000      -1.346695       -36.6454 
   8   2.0000      -1.312949       -35.7272 
   9   2.0000      -0.943078       -25.6624 
  10   2.0000      -0.919730       -25.0271 
  11   2.0000      -0.895559       -24.3694 
  12   2.0000      -0.716375       -19.4935 
  13   2.0000      -0.681523       -18.5452 
  14   2.0000      -0.675737       -18.3877 
  15   2.0000      -0.634196       -17.2573 
  16   2.0000      -0.617450       -16.8017 
  17   2.0000      -0.610697       -16.6179 
  18   2.0000      -0.591805       -16.1038 
  19   2.0000      -0.590775       -16.0758 
  20   2.0000      -0.563031       -15.3209 
  21   2.0000      -0.530439       -14.4340 
  22   2.0000      -0.500391       -13.6163 
  23   2.0000      -0.490191       -13.3388 
  24   2.0000      -0.456358       -12.4181 
  25   2.0000      -0.449598       -12.2342 
  26   2.0000      -0.417402       -11.3581 
  27   0.0000       0.119014         3.2385 
  28   0.0000       0.134331         3.6553 
  29   0.0000       0.160855         4.3771 
  30   0.0000       0.170507         4.6397 
  31   0.0000       0.175355         4.7716 
  32   0.0000       0.212904         5.7934 
  33   0.0000       0.215818         5.8727 
  34   0.0000       0.228956         6.2302 
  35   0.0000       0.231095         6.2884 
  36   0.0000       0.235807         6.4166 
  37   0.0000       0.243700         6.6314 
  38   0.0000       0.246573         6.7096 
  39   0.0000       0.254112         6.9147 
  40   0.0000       0.267235         7.2718 
  41   0.0000       0.317032         8.6269 
  42   0.0000       0.319146         8.6844 
  43   0.0000       0.332363         9.0441 
  44   0.0000       0.338620         9.2143 
  45   0.0000       0.355986         9.6869 
  46   0.0000       0.364333         9.9140 
  47   0.0000       0.407390        11.0856 
  48   0.0000       0.439941        11.9714 
  49   0.0000       0.460541        12.5320 
  50   0.0000       0.482706        13.1351 
  51   0.0000       0.511157        13.9093 
  52   0.0000       0.520747        14.1702 
  53   0.0000       0.558127        15.1874 
  54   0.0000       0.568023        15.4567 
  55   0.0000       0.575982        15.6733 
  56   0.0000       0.584381        15.9018 
  57   0.0000       0.609055        16.5732 
  58   0.0000       0.619793        16.8654 
  59   0.0000       0.626254        17.0413 
  60   0.0000       0.629314        17.1245 
  61   0.0000       0.637700        17.3527 
  62   0.0000       0.648560        17.6482 
  63   0.0000       0.657660        17.8958 
  64   0.0000       0.666498        18.1363 
  65   0.0000       0.681844        18.5539 
  66   0.0000       0.682610        18.5748 
  67   0.0000       0.684272        18.6200 
  68   0.0000       0.705385        19.1945 
  69   0.0000       0.713208        19.4074 
  70   0.0000       0.762017        20.7355 
  71   0.0000       0.762702        20.7542 
  72   0.0000       0.779706        21.2169 
  73   0.0000       0.808062        21.9885 
  74   0.0000       0.875164        23.8144 
  75   0.0000       0.882108        24.0034 
  76   0.0000       0.892110        24.2755 
  77   0.0000       0.907797        24.7024 
  78   0.0000       0.918166        24.9846 
  79   0.0000       0.922760        25.1096 
  80   0.0000       0.952386        25.9157 
  81   0.0000       0.988057        26.8864 
  82   0.0000       1.018695        27.7201 
  83   0.0000       1.059168        28.8214 
  84   0.0000       1.090443        29.6725 
  85   0.0000       1.110632        30.2218 
  86   0.0000       1.114932        30.3388 
  87   0.0000       1.119423        30.4611 
  88   0.0000       1.129845        30.7447 
  89   0.0000       1.193137        32.4669 
  90   0.0000       1.237372        33.6706 
  91   0.0000       1.245655        33.8960 
  92   0.0000       1.273931        34.6654 
  93   0.0000       1.534125        41.7457 
  94   0.0000       1.555673        42.3320 
  95   0.0000       1.570465        42.7345 
  96   0.0000       1.658503        45.1302 
  97   0.0000       1.660781        45.1921 
  98   0.0000       1.682502        45.7832 
  99   0.0000       1.698328        46.2138 
 100   0.0000       1.704869        46.3918 
 101   0.0000       1.732714        47.1495 
 102   0.0000       1.772505        48.2323 
 103   0.0000       1.774669        48.2912 
 104   0.0000       1.777213        48.3604 
 105   0.0000       1.789175        48.6859 
 106   0.0000       1.791969        48.7619 
 107   0.0000       1.792674        48.7811 
 108   0.0000       1.806046        49.1450 
 109   0.0000       1.813000        49.3342 
 110   0.0000       1.840549        50.0839 
 111   0.0000       1.841666        50.1143 
 112   0.0000       1.852492        50.4089 
 113   0.0000       1.853393        50.4334 
 114   0.0000       1.861931        50.6657 
 115   0.0000       1.889750        51.4227 
 116   0.0000       1.961080        53.3637 
 117   0.0000       1.963124        53.4193 
 118   0.0000       1.972572        53.6764 
 119   0.0000       2.077739        56.5381 
 120   0.0000       2.133551        58.0569 
 121   0.0000       2.136256        58.1305 
 122   0.0000       2.192080        59.6495 
 123   0.0000       2.205341        60.0104 
 124   0.0000       2.207599        60.0718 
 125   0.0000       2.242692        61.0268 
 126   0.0000       2.243358        61.0449 
 127   0.0000       2.252105        61.2829 
 128   0.0000       2.270682        61.7884 
 129   0.0000       2.288341        62.2689 
 130   0.0000       2.291339        62.3505 
 131   0.0000       2.303251        62.6747 
 132   0.0000       2.306028        62.7502 
 133   0.0000       2.350532        63.9612 
 134   0.0000       2.395653        65.1890 
 135   0.0000       2.440460        66.4083 
 136   0.0000       2.442754        66.4707 
 137   0.0000       2.511856        68.3511 
 138   0.0000       2.521315        68.6085 
 139   0.0000       2.549373        69.3720 
 140   0.0000       2.555243        69.5317 
 141   0.0000       2.563269        69.7501 
 142   0.0000       2.584129        70.3177 
 143   0.0000       2.593129        70.5626 
 144   0.0000       2.595508        70.6274 
 145   0.0000       2.618221        71.2454 
 146   0.0000       2.622521        71.3624 
 147   0.0000       2.631408        71.6042 
 148   0.0000       2.640941        71.8637 
 149   0.0000       2.671322        72.6904 
 150   0.0000       2.695301        73.3429 
 151   0.0000       2.719047        73.9890 
 152   0.0000       2.741910        74.6112 
 153   0.0000       2.777933        75.5914 
 154   0.0000       2.803700        76.2926 
 155   0.0000       2.818919        76.7067 
 156   0.0000       2.834814        77.1392 
 157   0.0000       2.839407        77.2642 
 158   0.0000       2.867399        78.0259 
 159   0.0000       2.873666        78.1964 
 160   0.0000       2.896584        78.8201 
 161   0.0000       2.980679        81.1084 
 162   0.0000       3.041819        82.7721 
 163   0.0000       3.044660        82.8494 
 164   0.0000       3.074939        83.6734 
 165   0.0000       3.105510        84.5052 
 166   0.0000       3.107867        84.5694 
 167   0.0000       3.137580        85.3779 
 168   0.0000       3.138218        85.3953 
 169   0.0000       3.200350        87.0859 
 170   0.0000       3.214758        87.4780 
 171   0.0000       3.244727        88.2935 
 172   0.0000       3.326744        90.5253 
 173   0.0000       3.341115        90.9164 
 174   0.0000       3.355597        91.3104 
 175   0.0000       3.398549        92.4792 
 176   0.0000       3.399640        92.5089 
 177   0.0000       3.419403        93.0467 
 178   0.0000       3.453158        93.9652 
 179   0.0000       3.478861        94.6646 
 180   0.0000       3.534861        96.1885 
 181   0.0000       3.537143        96.2506 
 182   0.0000       3.578077        97.3644 
 183   0.0000       3.630236        98.7838 
 184   0.0000       3.638514        99.0090 
 185   0.0000       3.655859        99.4810 
 186   0.0000       3.661091        99.6233 
 187   0.0000       3.671127        99.8965 
 188   0.0000       3.722616       101.2975 
 189   0.0000       3.723176       101.3128 
 190   0.0000       3.749957       102.0415 
 191   0.0000       3.769864       102.5832 
 192   0.0000       3.843422       104.5848 
 193   0.0000       3.861832       105.0858 
 194   0.0000       3.864440       105.1568 
 195   0.0000       3.884091       105.6915 
 196   0.0000       3.889781       105.8463 
 197   0.0000       3.902471       106.1916 
 198   0.0000       3.904015       106.2336 
 199   0.0000       3.918450       106.6264 
 200   0.0000       3.955044       107.6222 
 201   0.0000       4.223495       114.9271 
 202   0.0000       4.245231       115.5186 
 203   0.0000       4.407437       119.9325 
 204   0.0000       4.495816       122.3374 
 205   0.0000       4.510028       122.7241 
 206   0.0000       4.522568       123.0653 
 207   0.0000       4.534358       123.3861 
 208   0.0000       4.554062       123.9223 
 209   0.0000       4.590935       124.9257 
 210   0.0000       4.700554       127.9086 
 211   0.0000       4.708618       128.1280 
 212   0.0000       4.738271       128.9349 
 213   0.0000       4.867438       132.4497 
 214   0.0000       4.874494       132.6417 
 215   0.0000       4.912265       133.6695 
 216   0.0000       5.674450       154.4096 
 217   0.0000       5.691425       154.8715 
 218   0.0000       5.730816       155.9434 
 219   0.0000       5.760198       156.7430 
 220   0.0000       5.765623       156.8906 
 221   0.0000       5.817050       158.2900 
 222   0.0000       5.856167       159.3544 
 223   0.0000       5.875839       159.8897 
 224   0.0000       5.926236       161.2611 
 225   0.0000       6.129988       166.8054 
 226   0.0000       6.140293       167.0859 
 227   0.0000       6.165769       167.7791 
 228   0.0000       6.172559       167.9639 
 229   0.0000       6.210924       169.0078 
 230   0.0000       6.217729       169.1930 
 231   0.0000       6.294305       171.2767 
 232   0.0000       6.318616       171.9383 
 233   0.0000       6.372650       173.4086 
 234   0.0000       6.629824       180.4067 
 235   0.0000       6.649378       180.9388 
 236   0.0000       6.763488       184.0439 
 237   0.0000       6.946587       189.0263 
 238   0.0000       6.978455       189.8934 
 239   0.0000       7.050278       191.8478 
 240   0.0000       7.148064       194.5087 
 241   0.0000       7.150972       194.5878 
 242   0.0000       7.197393       195.8510 
 243   0.0000       7.217551       196.3995 
 244   0.0000       7.257333       197.4821 
 245   0.0000       7.279435       198.0835 
 246   0.0000       7.455634       202.8781 
 247   0.0000       7.457126       202.9187 
 248   0.0000       7.536272       205.0724 
 249   0.0000       7.586953       206.4515 
 250   0.0000       7.598474       206.7650 
 251   0.0000       7.760116       211.1635 
 252   0.0000      23.355891       635.5461 
 253   0.0000      23.362227       635.7185 
 254   0.0000      23.404697       636.8742 
 255   0.0000      45.147649      1228.5300 
 256   0.0000      45.173781      1229.2411 
 257   0.0000      45.303302      1232.7655 

                    ********************************
                    * MULLIKEN POPULATION ANALYSIS *
                    ********************************

-----------------------
MULLIKEN ATOMIC CHARGES
-----------------------
   0 O :   -0.566710
   1 H :    0.351375
   2 C :   -0.097198
   3 H :    0.122672
   4 H :    0.113992
   5 H :    0.107351
   6 O :   -0.548071
   7 H :    0.330126
   8 C :   -0.074281
   9 H :    0.108286
  10 H :    0.092013
  11 H :    0.091928
  12 O :   -0.594900
  13 H :    0.367921
  14 C :   -0.057235
  15 H :    0.097539
  16 H :    0.073098
  17 H :    0.082097
Sum of atomic charges:    0.0000000

--------------------------------
MULLIKEN REDUCED ORBITAL CHARGES
--------------------------------
  0 O s       :     3.799247  s :     3.799247
      pz      :     1.604732  p :     4.733817
      px      :     1.498946
      py      :     1.630139
      dz2     :     0.005709  d :     0.032003
      dxz     :     0.005944
      dyz     :     0.006677
      dx2y2   :     0.007844
      dxy     :     0.005830
      f0      :     0.000224  f :     0.001643
      f+1     :     0.000108
      f-1     :     0.000399
      f+2     :     0.000326
      f-2     :     0.000270
      f+3     :     0.000109
      f-3     :     0.000206
  1 H s       :     0.606242  s :     0.606242
      pz      :     0.012386  p :     0.042383
      px      :     0.017120
      py      :     0.012877
  2 C s       :     3.201365  s :     3.201365
      pz      :     0.825081  p :     2.776587
      px      :     1.066284
      py      :     0.885222
      dz2     :     0.022983  d :     0.110322
      dxz     :     0.030388
      dyz     :     0.019741
      dx2y2   :     0.020346
      dxy     :     0.016864
      f0      :     0.001617  f :     0.008923
      f+1     :     0.000458
      f-1     :     0.001866
      f+2     :     0.002068
      f-2     :     0.001801
      f+3     :     0.000705
      f-3     :     0.000408
  3 H s       :     0.856063  s :     0.856063
      pz      :     0.005680  p :     0.021266
      px      :     0.012215
      py      :     0.003371
  4 H s       :     0.865692  s :     0.865692
      pz      :     0.008125  p :     0.020316
      px      :     0.008396
      py      :     0.003795
  5 H s       :     0.871984  s :     0.871984
      pz      :     0.003821  p :     0.020665
      px      :     0.004570
      py      :     0.012275
  6 O s       :     3.805218  s :     3.805218
      pz      :     1.470925  p :     4.708682
      px      :     1.579510
      py      :     1.658247
      dz2     :     0.003459  d :     0.032444
      dxz     :     0.006483
      dyz     :     0.010729
      dx2y2   :     0.006864
      dxy     :     0.004909
      f0      :     0.000218  f :     0.001727
      f+1     :     0.000180
      f-1     :     0.000373
      f+2     :     0.000464
      f-2     :     0.000282
      f+3     :     0.000045
      f-3     :     0.000164
  7 H s       :     0.627512  s :     0.627512
      pz      :     0.014111  p :     0.042362
      px      :     0.017133
      py      :     0.011117
  8 C s       :     3.193923  s :     3.193923
      pz      :     0.824131  p :     2.756711
      px      :     1.052109
      py      :     0.880471
      dz2     :     0.024391  d :     0.114728
      dxz     :     0.035251
      dyz     :     0.018447
      dx2y2   :     0.027533
      dxy     :     0.009105
      f0      :     0.001605  f :     0.008919
      f+1     :     0.000568
      f-1     :     0.001699
      f+2     :     0.002455
      f-2     :     0.001458
      f+3     :     0.000451
      f-3     :     0.000683
  9 H s       :     0.870554  s :     0.870554
      pz      :     0.005912  p :     0.021160
      px      :     0.011658
      py      :     0.003590
 10 H s       :     0.887812  s :     0.887812
      pz      :     0.007594  p :     0.020175
      px      :     0.009721
      py      :     0.002859
 11 H s       :     0.888039  s :     0.888039
      pz      :     0.003360  p :     0.020033
      px      :     0.003511
      py      :     0.013163
 12 O s       :     3.798460  s :     3.798460
      pz      :     1.809410  p :     4.763388
      px      :     1.327536
      py      :     1.626442
      dz2     :     0.003610  d :     0.031377
      dxz     :     0.007571
      dyz     :     0.003665
      dx2y2   :     0.008321
      dxy     :     0.008209
      f0      :     0.000276  f :     0.001676
      f+1     :     0.000238
      f-1     :     0.000098
      f+2     :     0.000288
      f-2     :     0.000187
      f+3     :     0.000455
      f-3     :     0.000134
 13 H s       :     0.575186  s :     0.575186
      pz      :     0.014197  p :     0.056893
      px      :     0.016434
      py      :     0.026262
 14 C s       :     3.180374  s :     3.180374
      pz      :     0.974408  p :     2.748979
      px      :     0.733598
      py      :     1.040973
      dz2     :     0.030147  d :     0.118730
      dxz     :     0.024869
      dyz     :     0.005825
      dx2y2   :     0.015497
      dxy     :     0.042392
      f0      :     0.001627  f :     0.009152
      f+1     :     0.001832
      f-1     :     0.000169
      f+2     :     0.001262
      f-2     :     0.000907
      f+3     :     0.001813
      f-3     :     0.001542
 15 H s       :     0.881616  s :     0.881616
      pz      :     0.003919  p :     0.020845
      px      :     0.005368
      py      :     0.011558
 16 H s       :     0.906885  s :     0.906885
      pz      :     0.004983  p :     0.020017
      px      :     0.005336
      py      :     0.009698
 17 H s       :     0.897929  s :     0.897929
      pz      :     0.014305  p :     0.019975
      px      :     0.002159
      py      :     0.003510


                     *******************************
                     * LOEWDIN POPULATION ANALYSIS *
                     *******************************

----------------------
LOEWDIN ATOMIC CHARGES
----------------------
   0 O :   -0.102424
   1 H :    0.197262
   2 C :   -0.325880
   3 H :    0.106507
   4 H :    0.095786
   5 H :    0.096358
   6 O :   -0.132730
   7 H :    0.191929
   8 C :   -0.336753
   9 H :    0.101230
  10 H :    0.088137
  11 H :    0.088185
  12 O :   -0.147730
  13 H :    0.165519
  14 C :   -0.349554
  15 H :    0.095934
  16 H :    0.082827
  17 H :    0.085395

-------------------------------
LOEWDIN REDUCED ORBITAL CHARGES
-------------------------------
  0 O s       :     3.385876  s :     3.385876
      pz      :     1.577199  p :     4.643804
      px      :     1.481510
      py      :     1.585095
      dz2     :     0.013776  d :     0.068599
      dxz     :     0.014472
      dyz     :     0.014504
      dx2y2   :     0.012344
      dxy     :     0.013503
      f0      :     0.000625  f :     0.004145
      f+1     :     0.000401
      f-1     :     0.000833
      f+2     :     0.000755
      f-2     :     0.000590
      f+3     :     0.000416
      f-3     :     0.000525
  1 H s       :     0.655744  s :     0.655744
      pz      :     0.035797  p :     0.146994
      px      :     0.073358
      py      :     0.037840
  2 C s       :     2.862635  s :     2.862635
      pz      :     0.930102  p :     2.992075
      px      :     1.095651
      py      :     0.966321
      dz2     :     0.086437  d :     0.414139
      dxz     :     0.102673
      dyz     :     0.093139
      dx2y2   :     0.076032
      dxy     :     0.055858
      f0      :     0.012786  f :     0.057031
      f+1     :     0.003494
      f-1     :     0.012790
      f+2     :     0.008986
      f-2     :     0.009785
      f+3     :     0.004974
      f-3     :     0.004217
  3 H s       :     0.833984  s :     0.833984
      pz      :     0.015741  p :     0.059509
      px      :     0.033058
      py      :     0.010710
  4 H s       :     0.844591  s :     0.844591
      pz      :     0.022873  p :     0.059623
      px      :     0.024000
      py      :     0.012751
  5 H s       :     0.844722  s :     0.844722
      pz      :     0.012353  p :     0.058920
      px      :     0.014846
      py      :     0.031721
  6 O s       :     3.396323  s :     3.396323
      pz      :     1.470603  p :     4.663811
      px      :     1.540183
      py      :     1.653026
      dz2     :     0.011375  d :     0.068501
      dxz     :     0.018319
      dyz     :     0.018870
      dx2y2   :     0.012494
      dxy     :     0.007442
      f0      :     0.000714  f :     0.004095
      f+1     :     0.000294
      f-1     :     0.000841
      f+2     :     0.000711
      f-2     :     0.000897
      f+3     :     0.000193
      f-3     :     0.000445
  7 H s       :     0.665744  s :     0.665744
      pz      :     0.040925  p :     0.142326
      px      :     0.064314
      py      :     0.037087
  8 C s       :     2.862241  s :     2.862241
      pz      :     0.924805  p :     2.992808
      px      :     1.088539
      py      :     0.979464
      dz2     :     0.086094  d :     0.424148
      dxz     :     0.115519
      dyz     :     0.093359
      dx2y2   :     0.099704
      dxy     :     0.029472
      f0      :     0.013438  f :     0.057556
      f+1     :     0.003458
      f-1     :     0.012616
      f+2     :     0.009849
      f-2     :     0.009662
      f+3     :     0.004265
      f-3     :     0.004269
  9 H s       :     0.839997  s :     0.839997
      pz      :     0.015919  p :     0.058773
      px      :     0.031022
      py      :     0.011831
 10 H s       :     0.853303  s :     0.853303
      pz      :     0.021107  p :     0.058560
      px      :     0.027333
      py      :     0.010120
 11 H s       :     0.853355  s :     0.853355
      pz      :     0.011370  p :     0.058460
      px      :     0.012553
      py      :     0.034537
 12 O s       :     3.382966  s :     3.382966
      pz      :     1.741868  p :     4.695429
      px      :     1.378087
      py      :     1.575474
      dz2     :     0.008498  d :     0.065374
      dxz     :     0.016516
      dyz     :     0.003709
      dx2y2   :     0.015363
      dxy     :     0.021288
      f0      :     0.000331  f :     0.003961
      f+1     :     0.000717
      f-1     :     0.000098
      f+2     :     0.000713
      f-2     :     0.000544
      f+3     :     0.000917
      f-3     :     0.000642
 13 H s       :     0.647840  s :     0.647840
      pz      :     0.045420  p :     0.186640
      px      :     0.048518
      py      :     0.092702
 14 C s       :     2.860129  s :     2.860129
      pz      :     1.047627  p :     2.996537
      px      :     0.861925
      py      :     1.086986
      dz2     :     0.109534  d :     0.434466
      dxz     :     0.099554
      dyz     :     0.019281
      dx2y2   :     0.069891
      dxy     :     0.136206
      f0      :     0.006193  f :     0.058422
      f+1     :     0.011275
      f-1     :     0.000857
      f+2     :     0.012010
      f-2     :     0.007934
      f+3     :     0.010092
      f-3     :     0.010060
 15 H s       :     0.846034  s :     0.846034
      pz      :     0.012900  p :     0.058032
      px      :     0.014256
      py      :     0.030876
 16 H s       :     0.859436  s :     0.859436
      pz      :     0.015506  p :     0.057736
      px      :     0.015167
      py      :     0.027063
 17 H s       :     0.856696  s :     0.856696
      pz      :     0.037537  p :     0.057909
      px      :     0.008003
      py      :     0.012369


                      *****************************
                      * MAYER POPULATION ANALYSIS *
                      *****************************

  NA   - Mulliken gross atomic population
  ZA   - Total nuclear charge
  QA   - Mulliken gross atomic charge
  VA   - Mayer's total valence
  BVA  - Mayer's bonded valence
  FA   - Mayer's free valence

  ATOM       NA         ZA         QA         VA         BVA        FA
  0 O      8.5667     8.0000    -0.5667     1.7876     1.7876     0.0000
  1 H      0.6486     1.0000     0.3514     0.8840     0.8840    -0.0000
  2 C      6.0972     6.0000    -0.0972     3.8561     3.8561     0.0000
  3 H      0.8773     1.0000     0.1227     0.9667     0.9667     0.0000
  4 H      0.8860     1.0000     0.1140     0.9628     0.9628     0.0000
  5 H      0.8926     1.0000     0.1074     0.9636     0.9636    -0.0000
  6 O      8.5481     8.0000    -0.5481     1.7911     1.7911    -0.0000
  7 H      0.6699     1.0000     0.3301     0.8977     0.8977    -0.0000
  8 C      6.0743     6.0000    -0.0743     3.8983     3.8983     0.0000
  9 H      0.8917     1.0000     0.1083     0.9619     0.9619     0.0000
 10 H      0.9080     1.0000     0.0920     0.9612     0.9612     0.0000
 11 H      0.9081     1.0000     0.0919     0.9616     0.9616     0.0000
 12 O      8.5949     8.0000    -0.5949     1.7339     1.7339     0.0000
 13 H      0.6321     1.0000     0.3679     0.9066     0.9066     0.0000
 14 C      6.0572     6.0000    -0.0572     3.9196     3.9196     0.0000
 15 H      0.9025     1.0000     0.0975     0.9608     0.9608    -0.0000
 16 H      0.9269     1.0000     0.0731     0.9600     0.9600     0.0000
 17 H      0.9179     1.0000     0.0821     0.9630     0.9630     0.0000

  Mayer bond orders larger than 0.100000
B(  0-O ,  1-H ) :   0.8726 B(  0-O ,  2-C ) :   0.8873 B(  2-C ,  3-H ) :   0.9850 
B(  2-C ,  4-H ) :   0.9884 B(  2-C ,  5-H ) :   0.9817 B(  6-O ,  7-H ) :   0.8866 
B(  6-O ,  8-C ) :   0.9318 B(  8-C ,  9-H ) :   0.9828 B(  8-C , 10-H ) :   0.9879 
B(  8-C , 11-H ) :   0.9877 B( 12-O , 13-H ) :   0.8284 B( 12-O , 14-C ) :   0.9491 
B( 14-C , 15-H ) :   0.9874 B( 14-C , 16-H ) :   0.9875 B( 14-C , 17-H ) :   0.9905 


-------
TIMINGS
-------

Total SCF time: 0 days 0 hours 0 min 11 sec 

Total time                  ....      11.255 sec
Sum of individual times     ....      11.005 sec  ( 97.8%)

Fock matrix formation       ....      10.670 sec  ( 94.8%)
Diagonalization             ....       0.071 sec  (  0.6%)
Density matrix formation    ....       0.009 sec  (  0.1%)
Population analysis         ....       0.008 sec  (  0.1%)
Initial guess               ....       0.136 sec  (  1.2%)
Orbital Transformation      ....       0.000 sec  (  0.0%)
Orbital Orthonormalization  ....       0.000 sec  (  0.0%)
DIIS solution               ....       0.026 sec  (  0.2%)
SOSCF solution              ....       0.031 sec  (  0.3%)


           ************************************************************
           *        Program running with 6 parallel MPI-processes     *
           *              working on a common directory               *
           ************************************************************

------------------------------------------------------------------------------
                                ORCA  MP2 
------------------------------------------------------------------------------

Freezing NCore=12 chemical core electrons
MP2 will be done in the AO integral direct mode
The Q1-step will be done using symmetric double matrices
Dimension of the basis                    ...  258
Memory devoted for MP2                    ... 8000 MB   
Memory needed for all in one shot         ...  264 MB
Number of MOs that can be treated together...  120      
MP2 density construction                  ... relaxed
The MP2 gradient is requested => amplitudes will be stored on disk
Total number of MOs              ...   21
Number of MOs treated per batch  ...    4 
Number of batches necessary      ...    1 
OPERATORS   0/  0 PASS   0
-----------------------------------------------
 MP2 CORRELATION ENERGY   :     -1.256778982 Eh
-----------------------------------------------


---------------------
MP2 DENSITY FORMATION
---------------------

Completing the external part of the density      ... done
Storing the unrelaxed density                    ... done

Calculating G(D)                                 ... done
Completing the Lagrangian                        ... done
Solving the Z-vector equations                   ... 

------------------------------------------------------------------------------
                           ORCA CP-SCF CALCULATION
------------------------------------------------------------------------------

Input orbitals are from        ... 12meoh.boyd.etal.mol2,6,10-orca.engrad-mp2.def2tzvp.frozencore.gbw
Input Perturbation             ... 12meoh.boyd.etal.mol2,6,10-orca.engrad-mp2.def2tzvp.frozencore.pin.tmp
Wavefunction output            ... 12meoh.boyd.etal.mol2,6,10-orca.engrad-mp2.def2tzvp.frozencore.pout.tmp
Perturbation mode              ... Real perturbation (singlet)
Solver                         ... POPLE
Max. number of iterations      ... 128
Convergence tolerance          ... 1.000e-08
Integral handling              ... Direct
Number of perturbations        ... 1
Number of operators            ... 1
Orbital ranges used for CP-SCF:
 Operator 0:  Orbitals   0... 26  to  27...257
Variables per vector in CP-SCF ... 6237
Number of vectors sought       ... 1
     CP-SCF ITERATION   0: 
     CP-SCF ITERATION   1:      0.000359895486
     CP-SCF ITERATION   2:      0.000022619926
     CP-SCF ITERATION   3:      0.000003682380
     CP-SCF ITERATION   4:      0.000000174316
     CP-SCF ITERATION   5:      0.000000006440
                                                 ... done
Finalizing the relaxed density                   ... done
Transforming P to the AO basis                   ... done
Storing the relaxed density                      ... done

------------------------------------
ENERGY WEIGHTED DENSITY FINALIZATION
------------------------------------

Gathering the parts of the W-matrix              ...                                                      done
Forming the Z-density                            ... done
Transforming Z to the AO basis                   ... done
Calculating G(Z)                                 ... done
Finalizing the W-matrix                          ...                                                      done
Transforming W to the AO basis and storing       ... done

                *********************************************
                * UNRELAXED MP2 DENSITY POPULATION ANALYSIS *
                *********************************************

------------------------------------------------------------------------------
                           ORCA POPULATION ANALYSIS
------------------------------------------------------------------------------
Input electron density              ... 12meoh.boyd.etal.mol2,6,10-orca.engrad-mp2.def2tzvp.frozencore.pmp2ur
BaseName (.gbw .S,...)              ... 12meoh.boyd.etal.mol2,6,10-orca.engrad-mp2.def2tzvp.frozencore

                    ********************************
                    * MULLIKEN POPULATION ANALYSIS *
                    ********************************

-----------------------
MULLIKEN ATOMIC CHARGES
-----------------------
   0 O :   -0.554637
   1 H :    0.348660
   2 C :   -0.112932
   3 H :    0.125301
   4 H :    0.116398
   5 H :    0.109808
   6 O :   -0.537028
   7 H :    0.327403
   8 C :   -0.090211
   9 H :    0.111064
  10 H :    0.094438
  11 H :    0.094334
  12 O :   -0.582803
  13 H :    0.363205
  14 C :   -0.073592
  15 H :    0.100380
  16 H :    0.075640
  17 H :    0.084572
Sum of atomic charges:    0.0000000

--------------------------------
MULLIKEN REDUCED ORBITAL CHARGES
--------------------------------
  0 O s       :     3.793803  s :     3.793803
      pz      :     1.592142  p :     4.696473
      px      :     1.487433
      py      :     1.616897
      dz2     :     0.011375  d :     0.060028
      dxz     :     0.011494
      dyz     :     0.012280
      dx2y2   :     0.013358
      dxy     :     0.011522
      f0      :     0.000609  f :     0.004333
      f+1     :     0.000496
      f-1     :     0.000778
      f+2     :     0.000708
      f-2     :     0.000653
      f+3     :     0.000499
      f-3     :     0.000590
  1 H s       :     0.607349  s :     0.607349
      pz      :     0.013107  p :     0.043990
      px      :     0.017280
      py      :     0.013603
  2 C s       :     3.199351  s :     3.199351
      pz      :     0.824934  p :     2.770286
      px      :     1.061196
      py      :     0.884156
      dz2     :     0.027654  d :     0.131046
      dxz     :     0.034285
      dyz     :     0.022698
      dx2y2   :     0.024640
      dxy     :     0.021769
      f0      :     0.002077  f :     0.012249
      f+1     :     0.001005
      f-1     :     0.002286
      f+2     :     0.002476
      f-2     :     0.002277
      f+3     :     0.001201
      f-3     :     0.000928
  3 H s       :     0.850396  s :     0.850396
      pz      :     0.006738  p :     0.024304
      px      :     0.013076
      py      :     0.004490
  4 H s       :     0.860178  s :     0.860178
      pz      :     0.009106  p :     0.023424
      px      :     0.009402
      py      :     0.004915
  5 H s       :     0.866404  s :     0.866404
      pz      :     0.004933  p :     0.023788
      px      :     0.005682
      py      :     0.013173
  6 O s       :     3.799958  s :     3.799958
      pz      :     1.459851  p :     4.672977
      px      :     1.568335
      py      :     1.644791
      dz2     :     0.009108  d :     0.059712
      dxz     :     0.011947
      dyz     :     0.015990
      dx2y2   :     0.012311
      dxy     :     0.010356
      f0      :     0.000597  f :     0.004381
      f+1     :     0.000555
      f-1     :     0.000755
      f+2     :     0.000839
      f-2     :     0.000666
      f+3     :     0.000427
      f-3     :     0.000541
  7 H s       :     0.628525  s :     0.628525
      pz      :     0.014643  p :     0.044073
      px      :     0.017439
      py      :     0.011990
  8 C s       :     3.192025  s :     3.192025
      pz      :     0.824149  p :     2.750607
      px      :     1.047581
      py      :     0.878877
      dz2     :     0.028922  d :     0.135331
      dxz     :     0.039030
      dyz     :     0.021731
      dx2y2   :     0.031307
      dxy     :     0.014340
      f0      :     0.002065  f :     0.012249
      f+1     :     0.001129
      f-1     :     0.002106
      f+2     :     0.002853
      f-2     :     0.001956
      f+3     :     0.000969
      f-3     :     0.001170
  9 H s       :     0.864695  s :     0.864695
      pz      :     0.006986  p :     0.024241
      px      :     0.012559
      py      :     0.004696
 10 H s       :     0.882195  s :     0.882195
      pz      :     0.008633  p :     0.023367
      px      :     0.010706
      py      :     0.004027
 11 H s       :     0.882450  s :     0.882450
      pz      :     0.004502  p :     0.023216
      px      :     0.004658
      py      :     0.014056
 12 O s       :     3.793076  s :     3.793076
      pz      :     1.795364  p :     4.726096
      px      :     1.316595
      py      :     1.614137
      dz2     :     0.009322  d :     0.059269
      dxz     :     0.013108
      dyz     :     0.009314
      dx2y2   :     0.013783
      dxy     :     0.013741
      f0      :     0.000647  f :     0.004362
      f+1     :     0.000625
      f-1     :     0.000473
      f+2     :     0.000672
      f-2     :     0.000573
      f+3     :     0.000838
      f-3     :     0.000535
 13 H s       :     0.578084  s :     0.578084
      pz      :     0.015067  p :     0.058711
      px      :     0.017028
      py      :     0.026616
 14 C s       :     3.178460  s :     3.178460
      pz      :     0.971109  p :     2.743093
      px      :     0.735376
      py      :     1.036607
      dz2     :     0.033792  d :     0.139550
      dxz     :     0.029081
      dyz     :     0.010992
      dx2y2   :     0.019290
      dxy     :     0.046393
      f0      :     0.002040  f :     0.012489
      f+1     :     0.002374
      f-1     :     0.000709
      f+2     :     0.001678
      f-2     :     0.001389
      f+3     :     0.002188
      f-3     :     0.002111
 15 H s       :     0.875621  s :     0.875621
      pz      :     0.005041  p :     0.023999
      px      :     0.006483
      py      :     0.012474
 16 H s       :     0.901070  s :     0.901070
      pz      :     0.006107  p :     0.023290
      px      :     0.006469
      py      :     0.010713
 17 H s       :     0.892223  s :     0.892223
      pz      :     0.015189  p :     0.023206
      px      :     0.003346
      py      :     0.004671


                     *******************************
                     * LOEWDIN POPULATION ANALYSIS *
                     *******************************

----------------------
LOEWDIN ATOMIC CHARGES
----------------------
   0 O :   -0.093503
   1 H :    0.195449
   2 C :   -0.336506
   3 H :    0.108257
   4 H :    0.097340
   5 H :    0.097909
   6 O :   -0.124943
   7 H :    0.190026
   8 C :   -0.347327
   9 H :    0.102994
  10 H :    0.089596
  11 H :    0.089655
  12 O :   -0.139993
  13 H :    0.162821
  14 C :   -0.360461
  15 H :    0.097628
  16 H :    0.084235
  17 H :    0.086823

-------------------------------
LOEWDIN REDUCED ORBITAL CHARGES
-------------------------------
  0 O s       :     3.382368  s :     3.382368
      pz      :     1.564342  p :     4.606094
      px      :     1.470075
      py      :     1.571678
      dz2     :     0.019492  d :     0.097949
      dxz     :     0.020034
      dyz     :     0.021010
      dx2y2   :     0.018233
      dxy     :     0.019181
      f0      :     0.001035  f :     0.007092
      f+1     :     0.000803
      f-1     :     0.001277
      f+2     :     0.001190
      f-2     :     0.001016
      f+3     :     0.000825
      f-3     :     0.000946
  1 H s       :     0.654149  s :     0.654149
      pz      :     0.036676  p :     0.150402
      px      :     0.074996
      py      :     0.038730
  2 C s       :     2.861460  s :     2.861460
      pz      :     0.926866  p :     2.978199
      px      :     1.088864
      py      :     0.962469
      dz2     :     0.090430  d :     0.434965
      dxz     :     0.106655
      dyz     :     0.096903
      dx2y2   :     0.080563
      dxy     :     0.060415
      f0      :     0.013279  f :     0.061882
      f+1     :     0.004182
      f-1     :     0.013528
      f+2     :     0.009903
      f-2     :     0.010503
      f+3     :     0.005638
      f-3     :     0.004849
  3 H s       :     0.827287  s :     0.827287
      pz      :     0.017306  p :     0.064455
      px      :     0.035128
      py      :     0.012021
  4 H s       :     0.837920  s :     0.837920
      pz      :     0.024757  p :     0.064740
      px      :     0.025811
      py      :     0.014172
  5 H s       :     0.838051  s :     0.838051
      pz      :     0.013791  p :     0.064041
      px      :     0.016225
      py      :     0.034024
  6 O s       :     3.392852  s :     3.392852
      pz      :     1.459103  p :     4.627932
      px      :     1.529223
      py      :     1.639606
      dz2     :     0.016929  d :     0.097158
      dxz     :     0.024043
      dyz     :     0.025033
      dx2y2   :     0.018132
      dxy     :     0.013021
      f0      :     0.001119  f :     0.007001
      f+1     :     0.000688
      f-1     :     0.001289
      f+2     :     0.001170
      f-2     :     0.001310
      f+3     :     0.000582
      f-3     :     0.000843
  7 H s       :     0.664071  s :     0.664071
      pz      :     0.041973  p :     0.145904
      px      :     0.065834
      py      :     0.038097
  8 C s       :     2.861096  s :     2.861096
      pz      :     0.921703  p :     2.978974
      px      :     1.082085
      py      :     0.975185
      dz2     :     0.089972  d :     0.444825
      dxz     :     0.119225
      dyz     :     0.097349
      dx2y2   :     0.103926
      dxy     :     0.034353
      f0      :     0.013929  f :     0.062432
      f+1     :     0.004152
      f-1     :     0.013407
      f+2     :     0.010905
      f-2     :     0.010210
      f+3     :     0.004871
      f-3     :     0.004958
  9 H s       :     0.833230  s :     0.833230
      pz      :     0.017544  p :     0.063776
      px      :     0.033080
      py      :     0.013152
 10 H s       :     0.846608  s :     0.846608
      pz      :     0.023026  p :     0.063796
      px      :     0.029347
      py      :     0.011424
 11 H s       :     0.846658  s :     0.846658
      pz      :     0.012799  p :     0.063686
      px      :     0.013807
      py      :     0.037081
 12 O s       :     3.379659  s :     3.379659
      pz      :     1.728427  p :     4.658675
      px      :     1.366415
      py      :     1.563833
      dz2     :     0.014382  d :     0.094750
      dxz     :     0.022463
      dyz     :     0.009549
      dx2y2   :     0.021380
      dxy     :     0.026976
      f0      :     0.000746  f :     0.006909
      f+1     :     0.001123
      f-1     :     0.000485
      f+2     :     0.001148
      f-2     :     0.000956
      f+3     :     0.001392
      f-3     :     0.001060
 13 H s       :     0.647662  s :     0.647662
      pz      :     0.046325  p :     0.189518
      px      :     0.049418
      py      :     0.093774
 14 C s       :     2.859041  s :     2.859041
      pz      :     1.042047  p :     2.982706
      px      :     0.860114
      py      :     1.080545
      dz2     :     0.113509  d :     0.455387
      dxz     :     0.103493
      dyz     :     0.024518
      dx2y2   :     0.074236
      dxy     :     0.139631
      f0      :     0.007150  f :     0.063326
      f+1     :     0.011828
      f-1     :     0.001518
      f+2     :     0.012634
      f-2     :     0.008534
      f+3     :     0.011023
      f-3     :     0.010639
 15 H s       :     0.839198  s :     0.839198
      pz      :     0.014204  p :     0.063173
      px      :     0.015971
      py      :     0.032998
 16 H s       :     0.852655  s :     0.852655
      pz      :     0.016975  p :     0.063110
      px      :     0.016977
      py      :     0.029158
 17 H s       :     0.849951  s :     0.849951
      pz      :     0.040186  p :     0.063226
      px      :     0.009392
      py      :     0.013647


                      *****************************
                      * MAYER POPULATION ANALYSIS *
                      *****************************

  NA   - Mulliken gross atomic population
  ZA   - Total nuclear charge
  QA   - Mulliken gross atomic charge
  VA   - Mayer's total valence
  BVA  - Mayer's bonded valence
  FA   - Mayer's free valence

  ATOM       NA         ZA         QA         VA         BVA        FA
  0 O      8.5546     8.0000    -0.5546     2.0905     1.6829     0.4077
  1 H      0.6513     1.0000     0.3487     0.8902     0.8392     0.0510
  2 C      6.1129     6.0000    -0.1129     3.9643     3.6853     0.2791
  3 H      0.8747     1.0000     0.1253     0.9752     0.9288     0.0464
  4 H      0.8836     1.0000     0.1164     0.9718     0.9242     0.0476
  5 H      0.8902     1.0000     0.1098     0.9728     0.9247     0.0481
  6 O      8.5370     8.0000    -0.5370     2.0904     1.6851     0.4053
  7 H      0.6726     1.0000     0.3274     0.9042     0.8510     0.0532
  8 C      6.0902     6.0000    -0.0902     4.0032     3.7251     0.2780
  9 H      0.8889     1.0000     0.1111     0.9708     0.9239     0.0469
 10 H      0.9056     1.0000     0.0944     0.9711     0.9220     0.0491
 11 H      0.9057     1.0000     0.0943     0.9715     0.9223     0.0491
 12 O      8.5828     8.0000    -0.5828     2.0404     1.6314     0.4089
 13 H      0.6368     1.0000     0.3632     0.9145     0.8643     0.0502
 14 C      6.0736     6.0000    -0.0736     4.0233     3.7426     0.2807
 15 H      0.8996     1.0000     0.1004     0.9702     0.9223     0.0479
 16 H      0.9244     1.0000     0.0756     0.9706     0.9201     0.0504
 17 H      0.9154     1.0000     0.0846     0.9732     0.9232     0.0500

  Mayer bond orders larger than 0.100000
B(  0-O ,  1-H ) :   0.8288 B(  0-O ,  2-C ) :   0.8302 B(  2-C ,  3-H ) :   0.9477 
B(  2-C ,  4-H ) :   0.9507 B(  2-C ,  5-H ) :   0.9439 B(  6-O ,  7-H ) :   0.8409 
B(  6-O ,  8-C ) :   0.8731 B(  8-C ,  9-H ) :   0.9454 B(  8-C , 10-H ) :   0.9497 
B(  8-C , 11-H ) :   0.9495 B( 12-O , 13-H ) :   0.7889 B( 12-O , 14-C ) :   0.8886 
B( 14-C , 15-H ) :   0.9495 B( 14-C , 16-H ) :   0.9485 B( 14-C , 17-H ) :   0.9518 



                *******************************************
                * RELAXED MP2 DENSITY POPULATION ANALYSIS *
                *******************************************

------------------------------------------------------------------------------
                           ORCA POPULATION ANALYSIS
------------------------------------------------------------------------------
Input electron density              ... 12meoh.boyd.etal.mol2,6,10-orca.engrad-mp2.def2tzvp.frozencore.pmp2re
BaseName (.gbw .S,...)              ... 12meoh.boyd.etal.mol2,6,10-orca.engrad-mp2.def2tzvp.frozencore

                    ********************************
                    * MULLIKEN POPULATION ANALYSIS *
                    ********************************

-----------------------
MULLIKEN ATOMIC CHARGES
-----------------------
   0 O :   -0.510860
   1 H :    0.343087
   2 C :   -0.193252
   3 H :    0.143667
   4 H :    0.132841
   5 H :    0.126411
   6 O :   -0.499854
   7 H :    0.322142
   8 C :   -0.172127
   9 H :    0.129079
  10 H :    0.110534
  11 H :    0.110228
  12 O :   -0.535773
  13 H :    0.338489
  14 C :   -0.157084
  15 H :    0.119410
  16 H :    0.092391
  17 H :    0.100671
Sum of atomic charges:    0.0000000

--------------------------------
MULLIKEN REDUCED ORBITAL CHARGES
--------------------------------
  0 O s       :     3.797812  s :     3.797812
      pz      :     1.585105  p :     4.650481
      px      :     1.467755
      py      :     1.597621
      dz2     :     0.011262  d :     0.058289
      dxz     :     0.011430
      dyz     :     0.011481
      dx2y2   :     0.012714
      dxy     :     0.011401
      f0      :     0.000609  f :     0.004278
      f+1     :     0.000492
      f-1     :     0.000763
      f+2     :     0.000692
      f-2     :     0.000649
      f+3     :     0.000494
      f-3     :     0.000578
  1 H s       :     0.612391  s :     0.612391
      pz      :     0.013697  p :     0.044522
      px      :     0.016648
      py      :     0.014178
  2 C s       :     3.221383  s :     3.221383
      pz      :     0.846019  p :     2.839281
      px      :     1.087398
      py      :     0.905863
      dz2     :     0.028491  d :     0.120914
      dxz     :     0.030968
      dyz     :     0.018883
      dx2y2   :     0.021703
      dxy     :     0.020870
      f0      :     0.001936  f :     0.011674
      f+1     :     0.001000
      f-1     :     0.002209
      f+2     :     0.002305
      f-2     :     0.002199
      f+3     :     0.001156
      f-3     :     0.000870
  3 H s       :     0.833192  s :     0.833192
      pz      :     0.006542  p :     0.023141
      px      :     0.011939
      py      :     0.004660
  4 H s       :     0.844889  s :     0.844889
      pz      :     0.008452  p :     0.022270
      px      :     0.008833
      py      :     0.004985
  5 H s       :     0.850916  s :     0.850916
      pz      :     0.004962  p :     0.022673
      px      :     0.005746
      py      :     0.011965
  6 O s       :     3.801503  s :     3.801503
      pz      :     1.451698  p :     4.636424
      px      :     1.553893
      py      :     1.630833
      dz2     :     0.009163  d :     0.057600
      dxz     :     0.011676
      dyz     :     0.014667
      dx2y2   :     0.011904
      dxy     :     0.010190
      f0      :     0.000597  f :     0.004327
      f+1     :     0.000558
      f-1     :     0.000734
      f+2     :     0.000815
      f-2     :     0.000664
      f+3     :     0.000426
      f-3     :     0.000532
  7 H s       :     0.633229  s :     0.633229
      pz      :     0.014732  p :     0.044630
      px      :     0.017164
      py      :     0.012733
  8 C s       :     3.214063  s :     3.214063
      pz      :     0.844117  p :     2.820665
      px      :     1.074333
      py      :     0.902215
      dz2     :     0.029410  d :     0.125713
      dxz     :     0.034860
      dyz     :     0.019664
      dx2y2   :     0.026852
      dxy     :     0.014927
      f0      :     0.001920  f :     0.011687
      f+1     :     0.001105
      f-1     :     0.002022
      f+2     :     0.002722
      f-2     :     0.001871
      f+3     :     0.000917
      f-3     :     0.001130
  9 H s       :     0.847838  s :     0.847838
      pz      :     0.006741  p :     0.023083
      px      :     0.011543
      py      :     0.004799
 10 H s       :     0.867201  s :     0.867201
      pz      :     0.008083  p :     0.022266
      px      :     0.009892
      py      :     0.004291
 11 H s       :     0.867669  s :     0.867669
      pz      :     0.004610  p :     0.022103
      px      :     0.004866
      py      :     0.012626
 12 O s       :     3.788639  s :     3.788639
      pz      :     1.780430  p :     4.685328
      px      :     1.304644
      py      :     1.600254
      dz2     :     0.009436  d :     0.057495
      dxz     :     0.012497
      dyz     :     0.009248
      dx2y2   :     0.012694
      dxy     :     0.013620
      f0      :     0.000634  f :     0.004312
      f+1     :     0.000631
      f-1     :     0.000471
      f+2     :     0.000653
      f-2     :     0.000570
      f+3     :     0.000812
      f-3     :     0.000540
 13 H s       :     0.602677  s :     0.602677
      pz      :     0.015785  p :     0.058834
      px      :     0.017071
      py      :     0.025977
 14 C s       :     3.198931  s :     3.198931
      pz      :     0.999151  p :     2.814994
      px      :     0.750492
      py      :     1.065351
      dz2     :     0.028790  d :     0.131194
      dxz     :     0.030000
      dyz     :     0.010178
      dx2y2   :     0.017254
      dxy     :     0.044973
      f0      :     0.001903  f :     0.011965
      f+1     :     0.002304
      f-1     :     0.000691
      f+2     :     0.001627
      f-2     :     0.001334
      f+3     :     0.002023
      f-3     :     0.002082
 15 H s       :     0.857701  s :     0.857701
      pz      :     0.005187  p :     0.022888
      px      :     0.006258
      py      :     0.011443
 16 H s       :     0.885350  s :     0.885350
      pz      :     0.006066  p :     0.022259
      px      :     0.006276
      py      :     0.009916
 17 H s       :     0.877191  s :     0.877191
      pz      :     0.013636  p :     0.022137
      px      :     0.003608
      py      :     0.004894


                     *******************************
                     * LOEWDIN POPULATION ANALYSIS *
                     *******************************

----------------------
LOEWDIN ATOMIC CHARGES
----------------------
   0 O :   -0.074825
   1 H :    0.197910
   2 C :   -0.370791
   3 H :    0.115588
   4 H :    0.103768
   5 H :    0.104373
   6 O :   -0.112071
   7 H :    0.192677
   8 C :   -0.382192
   9 H :    0.110227
  10 H :    0.095594
  11 H :    0.095765
  12 O :   -0.124992
  13 H :    0.156316
  14 C :   -0.395654
  15 H :    0.105130
  16 H :    0.090322
  17 H :    0.092854

-------------------------------
LOEWDIN REDUCED ORBITAL CHARGES
-------------------------------
  0 O s       :     3.385356  s :     3.385356
      pz      :     1.557830  p :     4.584133
      px      :     1.465222
      py      :     1.561081
      dz2     :     0.019813  d :     0.098130
      dxz     :     0.020084
      dyz     :     0.020776
      dx2y2   :     0.018108
      dxy     :     0.019348
      f0      :     0.001060  f :     0.007206
      f+1     :     0.000803
      f-1     :     0.001302
      f+2     :     0.001216
      f-2     :     0.001038
      f+3     :     0.000829
      f-3     :     0.000957
  1 H s       :     0.651284  s :     0.651284
      pz      :     0.037018  p :     0.150806
      px      :     0.074768
      py      :     0.039021
  2 C s       :     2.867617  s :     2.867617
      pz      :     0.939229  p :     3.018561
      px      :     1.103804
      py      :     0.975529
      dz2     :     0.091433  d :     0.424327
      dxz     :     0.103309
      dyz     :     0.091789
      dx2y2   :     0.078603
      dxy     :     0.059194
      f0      :     0.012943  f :     0.060286
      f+1     :     0.004049
      f-1     :     0.013238
      f+2     :     0.009574
      f-2     :     0.010255
      f+3     :     0.005502
      f-3     :     0.004726
  3 H s       :     0.819567  s :     0.819567
      pz      :     0.017591  p :     0.064845
      px      :     0.034772
      py      :     0.012482
  4 H s       :     0.830805  s :     0.830805
      pz      :     0.024972  p :     0.065428
      px      :     0.025873
      py      :     0.014582
  5 H s       :     0.830897  s :     0.830897
      pz      :     0.014167  p :     0.064730
      px      :     0.016640
      py      :     0.033923
  6 O s       :     3.395817  s :     3.395817
      pz      :     1.456605  p :     4.612496
      px      :     1.526037
      py      :     1.629854
      dz2     :     0.017268  d :     0.096644
      dxz     :     0.023942
      dyz     :     0.024343
      dx2y2   :     0.017901
      dxy     :     0.013191
      f0      :     0.001142  f :     0.007114
      f+1     :     0.000694
      f-1     :     0.001316
      f+2     :     0.001195
      f-2     :     0.001332
      f+3     :     0.000591
      f-3     :     0.000843
  7 H s       :     0.660778  s :     0.660778
      pz      :     0.041795  p :     0.146545
      px      :     0.065808
      py      :     0.038942
  8 C s       :     2.867022  s :     2.867022
      pz      :     0.933435  p :     3.018958
      px      :     1.097349
      py      :     0.988174
      dz2     :     0.090641  d :     0.435318
      dxz     :     0.115949
      dyz     :     0.093767
      dx2y2   :     0.100828
      dxy     :     0.034133
      f0      :     0.013659  f :     0.060894
      f+1     :     0.003983
      f-1     :     0.013115
      f+2     :     0.010622
      f-2     :     0.009910
      f+3     :     0.004759
      f-3     :     0.004845
  9 H s       :     0.825646  s :     0.825646
      pz      :     0.017774  p :     0.064127
      px      :     0.032814
      py      :     0.013538
 10 H s       :     0.839862  s :     0.839862
      pz      :     0.023328  p :     0.064543
      px      :     0.029271
      py      :     0.011944
 11 H s       :     0.839812  s :     0.839812
      pz      :     0.013246  p :     0.064423
      px      :     0.014270
      py      :     0.036907
 12 O s       :     3.381931  s :     3.381931
      pz      :     1.718106  p :     4.641246
      px      :     1.364825
      py      :     1.558314
      dz2     :     0.014544  d :     0.094782
      dxz     :     0.022388
      dyz     :     0.009722
      dx2y2   :     0.020877
      dxy     :     0.027251
      f0      :     0.000759  f :     0.007033
      f+1     :     0.001145
      f-1     :     0.000488
      f+2     :     0.001164
      f-2     :     0.000974
      f+3     :     0.001429
      f-3     :     0.001074
 13 H s       :     0.653424  s :     0.653424
      pz      :     0.047186  p :     0.190259
      px      :     0.049505
      py      :     0.093569
 14 C s       :     2.864977  s :     2.864977
      pz      :     1.057320  p :     3.022385
      px      :     0.868552
      py      :     1.096513
      dz2     :     0.110308  d :     0.446534
      dxz     :     0.103551
      dyz     :     0.022918
      dx2y2   :     0.071156
      dxy     :     0.138601
      f0      :     0.006995  f :     0.061758
      f+1     :     0.011279
      f-1     :     0.001478
      f+2     :     0.012502
      f-2     :     0.008423
      f+3     :     0.010832
      f-3     :     0.010248
 15 H s       :     0.831204  s :     0.831204
      pz      :     0.014631  p :     0.063666
      px      :     0.016272
      py      :     0.032764
 16 H s       :     0.845704  s :     0.845704
      pz      :     0.017273  p :     0.063974
      px      :     0.017525
      py      :     0.029176
 17 H s       :     0.843115  s :     0.843115
      pz      :     0.039899  p :     0.064031
      px      :     0.010016
      py      :     0.014116


                      *****************************
                      * MAYER POPULATION ANALYSIS *
                      *****************************

  NA   - Mulliken gross atomic population
  ZA   - Total nuclear charge
  QA   - Mulliken gross atomic charge
  VA   - Mayer's total valence
  BVA  - Mayer's bonded valence
  FA   - Mayer's free valence

  ATOM       NA         ZA         QA         VA         BVA        FA
  0 O      8.5109     8.0000    -0.5109     2.1642     1.7642     0.4000
  1 H      0.6569     1.0000     0.3431     0.8934     0.8423     0.0511
  2 C      6.1933     6.0000    -0.1933     3.9790     3.7023     0.2767
  3 H      0.8563     1.0000     0.1437     0.9679     0.9221     0.0458
  4 H      0.8672     1.0000     0.1328     0.9653     0.9182     0.0471
  5 H      0.8736     1.0000     0.1264     0.9651     0.9177     0.0475
  6 O      8.4999     8.0000    -0.4999     2.1445     1.7458     0.3987
  7 H      0.6779     1.0000     0.3221     0.9066     0.8533     0.0533
  8 C      6.1721     6.0000    -0.1721     4.0248     3.7490     0.2758
  9 H      0.8709     1.0000     0.1291     0.9624     0.9161     0.0463
 10 H      0.8895     1.0000     0.1105     0.9634     0.9150     0.0485
 11 H      0.8898     1.0000     0.1102     0.9646     0.9161     0.0485
 12 O      8.5358     8.0000    -0.5358     2.1030     1.7008     0.4022
 13 H      0.6615     1.0000     0.3385     0.9477     0.8984     0.0493
 14 C      6.1571     6.0000    -0.1571     4.0434     3.7650     0.2785
 15 H      0.8806     1.0000     0.1194     0.9615     0.9143     0.0472
 16 H      0.9076     1.0000     0.0924     0.9621     0.9123     0.0498
 17 H      0.8993     1.0000     0.1007     0.9664     0.9171     0.0493

  Mayer bond orders larger than 0.100000
B(  0-O ,  1-H ) :   0.8287 B(  0-O ,  2-C ) :   0.8699 B(  0-O , 13-H ) :   0.1032 
B(  2-C ,  3-H ) :   0.9395 B(  2-C ,  4-H ) :   0.9410 B(  2-C ,  5-H ) :   0.9327 
B(  6-O ,  7-H ) :   0.8411 B(  6-O ,  8-C ) :   0.9248 B(  8-C ,  9-H ) :   0.9373 
B(  8-C , 10-H ) :   0.9391 B(  8-C , 11-H ) :   0.9391 B( 12-O , 13-H ) :   0.7894 
B( 12-O , 14-C ) :   0.9411 B( 14-C , 15-H ) :   0.9415 B( 14-C , 16-H ) :   0.9367 
B( 14-C , 17-H ) :   0.9412 


----------------------------------
MP2 DERIVATIVE INTEGRAL GENERATION
----------------------------------


Input Wavefunction Amplitudes       ... 12meoh.boyd.etal.mol2,6,10-orca.engrad-mp2.def2tzvp.frozencore.mp2tsaa.tmp
Input Correlated Electron Density   ... 12meoh.boyd.etal.mol2,6,10-orca.engrad-mp2.def2tzvp.frozencore.pmp2re
Input Energy Weighted Density       ... 12meoh.boyd.etal.mol2,6,10-orca.engrad-mp2.def2tzvp.frozencore.wmp2.tmp
Input SCF Electron Density          ... 12meoh.boyd.etal.mol2,6,10-orca.engrad-mp2.def2tzvp.frozencore.scfp

One-Electron Terms    ...
                        ... One-Electron Terms done
Prescreening matrices              ... done

Batch handling in the gradient evaluation:
Memory available                      ... 8000.0 MB
Memory per occupied orbital in Q2     ...   10.7 MB
Memory per occupied orbital in Q3     ...    0.1 MB
Total memory requirement per |i>      ...   10.8 MB
Max. Number of orbitals possible      ...    743
Number of orbitals treated per batch  ...     21
Number of batches to be done          ...      1
Batch   0: i=    6 ...    26

---------------------------------------
MP2 TOTAL ENERGY:     -346.529508112 Eh
---------------------------------------

The final MP2 gradient
  0:  -0.02392603   0.00530605  -0.00747902
  1:   0.02102470  -0.00864867   0.00572132
  2:  -0.00209935  -0.00764807   0.00312750
  3:  -0.00334806   0.00261510  -0.00248309
  4:   0.00357023  -0.00072255  -0.00165664
  5:   0.00113689   0.00459580   0.00140087
  6:   0.02108062   0.00761905  -0.01638382
  7:  -0.02497843  -0.00743112   0.01882711
  8:   0.00440348   0.00287452   0.00094384
  9:   0.00293247  -0.00030501  -0.00364716
 10:  -0.00277406   0.00082007  -0.00107962
 11:  -0.00057133  -0.00356852   0.00133074
 12:  -0.00438227  -0.00839621  -0.00388939
 13:   0.01295446   0.01494166   0.00311082
 14:  -0.00296556  -0.00220897   0.00138281
 15:  -0.00187760  -0.00268264  -0.00078449
 16:   0.00009321   0.00210044  -0.00165183
 17:  -0.00027337   0.00073906   0.00321004

-----------------------------------
NORM OF THE MP2 GRADIENT:  0.061428
-----------------------------------

-------------------------   --------------------
FINAL SINGLE POINT ENERGY      -346.529508112394
-------------------------   --------------------


                            ***************************************
                            *     ORCA property calculations      *
                            ***************************************

                                    ---------------------
                                    Active property flags
                                    ---------------------
   (+) Dipole Moment


------------------------------------------------------------------------------
                       ORCA ELECTRIC PROPERTIES CALCULATION
------------------------------------------------------------------------------

Dipole Moment Calculation                       ... on
Quadrupole Moment Calculation                   ... off
Polarizability Calculation                      ... off
GBWName                                         ... 12meoh.boyd.etal.mol2,6,10-orca.engrad-mp2.def2tzvp.frozencore.gbw
Electron density file                           ... 12meoh.boyd.etal.mol2,6,10-orca.engrad-mp2.def2tzvp.frozencore.scfp
The origin for moment calculation is the CENTER OF MASS  = (-4.316848,  0.418883 -1.079469)

-------------
DIPOLE MOMENT
-------------
                                X             Y             Z
Electronic contribution:      1.37534       0.10110       1.86319
Nuclear contribution   :     -1.10423       0.37487      -1.82993
                        -----------------------------------------
Total Dipole Moment    :      0.27110       0.47597       0.03326
                        -----------------------------------------
Magnitude (a.u.)       :      0.54877
Magnitude (Debye)      :      1.39486



--------------------
Rotational spectrum 
--------------------
 
Rotational constants in cm-1:     0.080863     0.010471     0.009513 
Rotational constants in MHz :  2424.197669   313.910300   285.201417 

 Dipole components along the rotational axes: 
x,y,z [a.u.] :    -0.045172     0.546823     0.009683 
x,y,z [Debye]:    -0.114817     1.389913     0.024613 

 

                         *** MP2 UNRELAXED DENSITY ***

------------------------------------------------------------------------------
                       ORCA ELECTRIC PROPERTIES CALCULATION
------------------------------------------------------------------------------

Dipole Moment Calculation                       ... on
Quadrupole Moment Calculation                   ... off
Polarizability Calculation                      ... off
GBWName                                         ... 12meoh.boyd.etal.mol2,6,10-orca.engrad-mp2.def2tzvp.frozencore.gbw
Electron density file                           ... 12meoh.boyd.etal.mol2,6,10-orca.engrad-mp2.def2tzvp.frozencore.pmp2ur
The origin for moment calculation is the CENTER OF MASS  = (-4.316848,  0.418883 -1.079469)

-------------
DIPOLE MOMENT
-------------
                                X             Y             Z
Electronic contribution:      1.38127       0.10097       1.86878
Nuclear contribution   :     -1.10423       0.37487      -1.82993
                        -----------------------------------------
Total Dipole Moment    :      0.27703       0.47584       0.03885
                        -----------------------------------------
Magnitude (a.u.)       :      0.55198
Magnitude (Debye)      :      1.40301



--------------------
Rotational spectrum 
--------------------
 
Rotational constants in cm-1:     0.080863     0.010471     0.009513 
Rotational constants in MHz :  2424.197669   313.910300   285.201417 

 Dipole components along the rotational axes: 
x,y,z [a.u.] :    -0.049087     0.549548     0.016298 
x,y,z [Debye]:    -0.124770     1.396841     0.041427 

 

                           *** MP2 RELAXED DENSITY ***

------------------------------------------------------------------------------
                       ORCA ELECTRIC PROPERTIES CALCULATION
------------------------------------------------------------------------------

Dipole Moment Calculation                       ... on
Quadrupole Moment Calculation                   ... off
Polarizability Calculation                      ... off
GBWName                                         ... 12meoh.boyd.etal.mol2,6,10-orca.engrad-mp2.def2tzvp.frozencore.gbw
Electron density file                           ... 12meoh.boyd.etal.mol2,6,10-orca.engrad-mp2.def2tzvp.frozencore.pmp2re
The origin for moment calculation is the CENTER OF MASS  = (-4.316848,  0.418883 -1.079469)

-------------
DIPOLE MOMENT
-------------
                                X             Y             Z
Electronic contribution:      1.39100       0.10808       1.88250
Nuclear contribution   :     -1.10423       0.37487      -1.82993
                        -----------------------------------------
Total Dipole Moment    :      0.28677       0.48294       0.05256
                        -----------------------------------------
Magnitude (a.u.)       :      0.56412
Magnitude (Debye)      :      1.43388



--------------------
Rotational spectrum 
--------------------
 
Rotational constants in cm-1:     0.080863     0.010471     0.009513 
Rotational constants in MHz :  2424.197669   313.910300   285.201417 

 Dipole components along the rotational axes: 
x,y,z [a.u.] :    -0.051518     0.560944     0.030353 
x,y,z [Debye]:    -0.130947     1.425805     0.077150 

 

Timings for individual modules:

Sum of individual times         ...       55.141 sec (=   0.919 min)
GTO integral calculation        ...        1.422 sec (=   0.024 min)   2.6 %
SCF iterations                  ...       12.148 sec (=   0.202 min)  22.0 %
MP2 module                      ...       41.570 sec (=   0.693 min)  75.4 %
                             ****ORCA TERMINATED NORMALLY****
TOTAL RUN TIME: 0 days 0 hours 0 minutes 56 seconds 144 msec
