
                                 *****************
                                 * O   R   C   A *
                                 *****************

           --- An Ab Initio, DFT and Semiempirical electronic structure package ---

                  #######################################################
                  #                        -***-                        #
                  #          Department of theory and spectroscopy      #
                  #               Directorship: Frank Neese             #
                  #        Max Planck Institute fuer Kohlenforschung    #
                  #                Kaiser Wilhelm Platz 1               #
                  #                 D-45470 Muelheim/Ruhr               #
                  #                      Germany                        #
                  #                                                     #
                  #                  All rights reserved                #
                  #                        -***-                        #
                  #######################################################


                         Program Version 4.2.0 -  RELEASE  -


 With contributions from (in alphabetic order):
   Daniel Aravena         : Magnetic Suceptibility
   Michael Atanasov       : Ab Initio Ligand Field Theory (pilot matlab implementation)
   Alexander A. Auer      : GIAO ZORA, VPT2
   Ute Becker             : Parallelization
   Giovanni Bistoni       : ED, misc. LED, open-shell LED, HFLED
   Martin Brehm           : Molecular dynamics
   Dmytro Bykov           : SCF Hessian
   Vijay G. Chilkuri      : MRCI spin determinant printing, contributions to CSF-ICE
   Dipayan Datta          : RHF DLPNO-CCSD density
   Achintya Kumar Dutta   : EOM-CC, STEOM-CC
   Dmitry Ganyushin       : Spin-Orbit,Spin-Spin,Magnetic field MRCI
   Miquel Garcia          : C-PCM Hessian, Gaussian charge scheme
   Yang Guo               : DLPNO-NEVPT2, CIM, IAO-localization
   Andreas Hansen         : Spin unrestricted coupled pair/coupled cluster methods
   Benjamin Helmich-Paris : CASSCF linear response (MC-RPA)
   Lee Huntington         : MR-EOM, pCC
   Robert Izsak           : Overlap fitted RIJCOSX, COSX-SCS-MP3, EOM
   Christian Kollmar      : KDIIS, OOCD, Brueckner-CCSD(T), CCSD density
   Simone Kossmann        : Meta GGA functionals, TD-DFT gradient, OOMP2, MP2 Hessian
   Martin Krupicka        : AUTO-CI
   Lucas Lang             : DCDCAS
   Dagmar Lenk            : GEPOL surface, SMD
   Dimitrios Liakos       : Extrapolation schemes; Compound Job, initial MDCI parallelization
   Dimitrios Manganas     : Further ROCIS development; embedding schemes
   Dimitrios Pantazis     : SARC Basis sets
   Taras Petrenko         : DFT Hessian,TD-DFT gradient, ASA, ECA, R-Raman, ABS, FL, XAS/XES, NRVS
   Peter Pinski           : DLPNO-MP2, DLPNO-MP2 Gradient
   Christoph Reimann      : Effective Core Potentials
   Marius Retegan         : Local ZFS, SOC
   Christoph Riplinger    : Optimizer, TS searches, QM/MM, DLPNO-CCSD(T), (RO)-DLPNO pert. Triples
   Tobias Risthaus        : Range-separated hybrids, TD-DFT gradient, RPA, STAB
   Michael Roemelt        : Original ROCIS implementation
   Masaaki Saitow         : Open-shell DLPNO-CCSD energy and density
   Barbara Sandhoefer     : DKH picture change effects
   Avijit Sen             : IP-ROCIS
   Kantharuban Sivalingam : CASSCF convergence, NEVPT2, FIC-MRCI
   Bernardo de Souza      : ESD, SOC TD-DFT
   Georgi Stoychev        : AutoAux, RI-MP2 NMR
   Willem Van den Heuvel  : Paramagnetic NMR
   Boris Wezisla          : Elementary symmetry handling
   Frank Wennmohs         : Technical directorship


 We gratefully acknowledge several colleagues who have allowed us to
 interface, adapt or use parts of their codes:
   Stefan Grimme, W. Hujo, H. Kruse,             : VdW corrections, initial TS optimization,
                  C. Bannwarth                     DFT functionals, gCP, sTDA/sTD-DF
   Ed Valeev, F. Pavosevic, A. Kumar             : LibInt (2-el integral package), F12 methods
   Garnet Chan, S. Sharma, J. Yang, R. Olivares  : DMRG
   Ulf Ekstrom                                   : XCFun DFT Library
   Mihaly Kallay                                 : mrcc  (arbitrary order and MRCC methods)
   Andreas Klamt, Michael Diedenhofen            : otool_cosmo (COSMO solvation model)
   Jiri Pittner, Ondrej Demel                    : Mk-CCSD
   Frank Weinhold                                : gennbo (NPA and NBO analysis)
   Christopher J. Cramer and Donald G. Truhlar   : smd solvation model
   Lars Goerigk                                  : TD-DFT with DH, B97 family of functionals
   V. Asgeirsson, H. Jonsson                     : NEB implementation
   FAccTs GmbH                                   : IRC, NEB, NEB-TS, Multilevel, MM, QM/MM, CI optimization
   S Lehtola, MJT Oliveira, MAL Marques          : LibXC Library


 Your calculation uses the libint2 library for the computation of 2-el integrals
 For citations please refer to: http://libint.valeyev.net

 Your ORCA version has been built with support for libXC version: 4.2.3
 For citations please refer to: https://tddft.org/programs/libxc/

 This ORCA versions uses:
   CBLAS   interface :  Fast vector & matrix operations
   LAPACKE interface :  Fast linear algebra routines
   SCALAPACK package :  Parallel linear algebra routines


----- Orbital basis set information -----
Your calculation utilizes the basis: def2-TZVP
   F. Weigend and R. Ahlrichs, Phys. Chem. Chem. Phys. 7, 3297 (2005).

================================================================================
                                        WARNINGS
                       Please study these warnings very carefully!
================================================================================


WARNING: The frozen-core approximation for MP2-gradient calculations is turned on by default.

INFO   : the flag for use of LIBINT has been found!

================================================================================
                                       INPUT FILE
================================================================================
NAME = 12h2o.su.etal.mol0,2,5,10,11-orca.engrad-mp2.def2tzvp.frozencore.inp
|  1> # 12h2o.su.etal.mol0,2,5,10,11
|  2> ! MP2 def2-TZVP EnGrad TightSCF
|  3> 
|  4> %pal
|  5>     nprocs 6
|  6> end
|  7> 
|  8> %maxcore 8000
|  9> 
| 10> %scf
| 11>     ConvForced true
| 12> end
| 13> 
| 14> *xyz 0 1
| 15> O   1.794470000   0.923410000   2.768350000
| 16> H   2.338250000   1.359750000   3.430940000
| 17> H   0.879480000   1.303000000   2.865760000
| 18> O   0.923410000  -1.794470000  -2.768350000
| 19> H   1.359750000  -2.338250000  -3.430940000
| 20> H   1.303000000  -0.879480000  -2.865760000
| 21> O   0.885520000  -1.737840000   0.052730000
| 22> H   1.284090000  -0.839590000   0.017130000
| 23> H   1.032320000  -2.090180000  -0.841890000
| 24> O  -0.923410000   1.794470000  -2.768350000
| 25> H  -1.359750000   2.338250000  -3.430940000
| 26> H  -1.303000000   0.879480000  -2.865760000
| 27> O  -0.741530000   1.752130000   2.896280000
| 28> H  -0.920500000   2.036450000   1.984040000
| 29> H  -1.242140000   0.921210000   2.984230000
| 30> *
| 31> 
| 32>                          ****END OF INPUT****
================================================================================

                     *******************************
                     * Energy+Gradient Calculation *
                     *******************************

---------------------------------
CARTESIAN COORDINATES (ANGSTROEM)
---------------------------------
  O      1.794470    0.923410    2.768350
  H      2.338250    1.359750    3.430940
  H      0.879480    1.303000    2.865760
  O      0.923410   -1.794470   -2.768350
  H      1.359750   -2.338250   -3.430940
  H      1.303000   -0.879480   -2.865760
  O      0.885520   -1.737840    0.052730
  H      1.284090   -0.839590    0.017130
  H      1.032320   -2.090180   -0.841890
  O     -0.923410    1.794470   -2.768350
  H     -1.359750    2.338250   -3.430940
  H     -1.303000    0.879480   -2.865760
  O     -0.741530    1.752130    2.896280
  H     -0.920500    2.036450    1.984040
  H     -1.242140    0.921210    2.984230

----------------------------
CARTESIAN COORDINATES (A.U.)
----------------------------
  NO LB      ZA    FRAG     MASS         X           Y           Z
   0 O     8.0000    0    15.999    3.391057    1.744992    5.231423
   1 H     1.0000    0     1.008    4.418652    2.569555    6.483537
   2 H     1.0000    0     1.008    1.661976    2.462313    5.415502
   3 O     8.0000    0    15.999    1.744992   -3.391057   -5.231423
   4 H     1.0000    0     1.008    2.569555   -4.418652   -6.483537
   5 H     1.0000    0     1.008    2.462313   -1.661976   -5.415502
   6 O     8.0000    0    15.999    1.673390   -3.284042    0.099645
   7 H     1.0000    0     1.008    2.426578   -1.586595    0.032371
   8 H     1.0000    0     1.008    1.950802   -3.949868   -1.590942
   9 O     8.0000    0    15.999   -1.744992    3.391057   -5.231423
  10 H     1.0000    0     1.008   -2.569555    4.418652   -6.483537
  11 H     1.0000    0     1.008   -2.462313    1.661976   -5.415502
  12 O     8.0000    0    15.999   -1.401289    3.311046    5.473176
  13 H     1.0000    0     1.008   -1.739493    3.848333    3.749292
  14 H     1.0000    0     1.008   -2.347304    1.740835    5.639377

--------------------------------
INTERNAL COORDINATES (ANGSTROEM)
--------------------------------
 O      0   0   0     0.000000000000     0.00000000     0.00000000
 H      1   0   0     0.961828878803     0.00000000     0.00000000
 H      1   2   0     0.995381322057   106.21731035     0.00000000
 O      1   2   3     6.229017908788   152.78811022   148.20682389
 H      4   1   2     0.961828878803   142.70840549    32.77530239
 H      4   1   2     0.995381322057    68.44287781   304.10042923
 O      4   1   2     2.821902722526    26.43043848   121.43990250
 H      7   4   1     0.983350632989    88.66470709   356.04997417
 H      7   4   1     0.972645187106    21.75017499   221.89319655
 O      6   4   1     3.480861789658   117.35405144   277.07760139
 H     10   6   4     0.961828878803   134.84484566   261.77538529
 H     10   6   4     0.995381322057    62.29205096   347.33424537
 O      3   1   2     1.682356278379   171.61043709   195.73896161
 H     13   3   1     0.972136791249   103.79460456   289.35412162
 H     13   3   1     0.974050112161   105.61118924    38.30604821

---------------------------
INTERNAL COORDINATES (A.U.)
---------------------------
 O      0   0   0     0.000000000000     0.00000000     0.00000000
 H      1   0   0     1.817593168635     0.00000000     0.00000000
 H      1   2   0     1.880998097508   106.21731035     0.00000000
 O      1   2   3    11.771137930900   152.78811022   148.20682389
 H      4   1   2     1.817593168635   142.70840549    32.77530239
 H      4   1   2     1.880998097508    68.44287781   304.10042923
 O      4   1   2     5.332623322141    26.43043848   121.43990250
 H      7   4   1     1.858263389967    88.66470709   356.04997417
 H      7   4   1     1.838033029106    21.75017499   221.89319655
 O      6   4   1     6.577875492484   117.35405144   277.07760139
 H     10   6   4     1.817593168635   134.84484566   261.77538529
 H     10   6   4     1.880998097508    62.29205096   347.33424537
 O      3   1   2     3.179192625819   171.61043709   195.73896161
 H     13   3   1     1.837072300170   103.79460456   289.35412162
 H     13   3   1     1.840687952699   105.61118924    38.30604821

---------------------
BASIS SET INFORMATION
---------------------
There are 2 groups of distinct atoms

 Group   1 Type O   : 11s6p2d1f contracted to 5s3p2d1f pattern {62111/411/11/1}
 Group   2 Type H   : 5s1p contracted to 3s1p pattern {311/1}

Atom   0O    basis set group =>   1
Atom   1H    basis set group =>   2
Atom   2H    basis set group =>   2
Atom   3O    basis set group =>   1
Atom   4H    basis set group =>   2
Atom   5H    basis set group =>   2
Atom   6O    basis set group =>   1
Atom   7H    basis set group =>   2
Atom   8H    basis set group =>   2
Atom   9O    basis set group =>   1
Atom  10H    basis set group =>   2
Atom  11H    basis set group =>   2
Atom  12O    basis set group =>   1
Atom  13H    basis set group =>   2
Atom  14H    basis set group =>   2


           ************************************************************
           *        Program running with 6 parallel MPI-processes     *
           *              working on a common directory               *
           ************************************************************
------------------------------------------------------------------------------
                           ORCA GTO INTEGRAL CALCULATION
------------------------------------------------------------------------------

                         BASIS SET STATISTICS AND STARTUP INFO

 # of primitive gaussian shells          ...  160
 # of primitive gaussian functions       ...  310
 # of contracted shells                  ...   95
 # of contracted basis functions         ...  215
 Highest angular momentum                ...    3
 Maximum contraction depth               ...    6
 Integral package used                   ... LIBINT
 Integral threshhold            Thresh   ...  2.500e-11
 Primitive cut-off              TCut     ...  2.500e-12


------------------------------ INTEGRAL EVALUATION ----------------------------


 * One electron integrals 
 Pre-screening matrix                    ... done
 Shell pair data                         ... done (   0.001 sec)



           ************************************************************
           *        Program running with 6 parallel MPI-processes     *
           *              working on a common directory               *
           ************************************************************
-------------------------------------------------------------------------------
                                 ORCA SCF
-------------------------------------------------------------------------------

------------
SCF SETTINGS
------------
Hamiltonian:
 Ab initio Hamiltonian  Method          .... Hartree-Fock(GTOs)


General Settings:
 Integral files         IntName         .... 12h2o.su.etal.mol0,2,5,10,11-orca.engrad-mp2.def2tzvp.frozencore
 Hartree-Fock type      HFTyp           .... RHF
 Total Charge           Charge          ....    0
 Multiplicity           Mult            ....    1
 Number of Electrons    NEL             ....   50
 Basis Dimension        Dim             ....  215
 Nuclear Repulsion      ENuc            ....    166.0598002348 Eh

Convergence Acceleration:
 DIIS                   CNVDIIS         .... on
   Start iteration      DIISMaxIt       ....    12
   Startup error        DIISStart       ....  0.200000
   # of expansion vecs  DIISMaxEq       ....     5
   Bias factor          DIISBfac        ....   1.050
   Max. coefficient     DIISMaxC        ....  10.000
 Newton-Raphson         CNVNR           .... off
 SOSCF                  CNVSOSCF        .... on
   Start iteration      SOSCFMaxIt      ....   150
   Startup grad/error   SOSCFStart      ....  0.003300
 Level Shifting         CNVShift        .... on
   Level shift para.    LevelShift      ....    0.2500
   Turn off err/grad.   ShiftErr        ....    0.0010
 Zerner damping         CNVZerner       .... off
 Static damping         CNVDamp         .... on
   Fraction old density DampFac         ....    0.7000
   Max. Damping (<1)    DampMax         ....    0.9800
   Min. Damping (>=0)   DampMin         ....    0.0000
   Turn off err/grad.   DampErr         ....    0.1000
 Fernandez-Rico         CNVRico         .... off

SCF Procedure:
 Maximum # iterations   MaxIter         ....   125
 SCF integral mode      SCFMode         .... Direct
   Integral package                     .... LIBINT
 Reset frequency        DirectResetFreq ....    20
 Integral Threshold     Thresh          ....  2.500e-11 Eh
 Primitive CutOff       TCut            ....  2.500e-12 Eh

Convergence Tolerance:
 Convergence Check Mode ConvCheckMode   .... Total+1el-Energy
 Convergence forced     ConvForced      .... 1
 Energy Change          TolE            ....  1.000e-08 Eh
 1-El. energy change                    ....  1.000e-05 Eh
 Orbital Gradient       TolG            ....  1.000e-05
 Orbital Rotation angle TolX            ....  1.000e-05
 DIIS Error             TolErr          ....  5.000e-07


Diagonalization of the overlap matrix:
Smallest eigenvalue                        ... 4.531e-03
Time for diagonalization                   ...    0.005 sec
Threshold for overlap eigenvalues          ... 1.000e-08
Number of eigenvalues below threshold      ... 0
Time for construction of square roots      ...    0.003 sec
Total time needed                          ...    0.008 sec

-------------------
DFT GRID GENERATION
-------------------

General Integration Accuracy     IntAcc      ...  4.340
Radial Grid Type                 RadialGrid  ... Gauss-Chebyshev
Angular Grid (max. acc.)         AngularGrid ... Lebedev-110
Angular grid pruning method      GridPruning ... 3 (G Style)
Weight generation scheme         WeightScheme... Becke
Basis function cutoff            BFCut       ...    1.0000e-11
Integration weight cutoff        WCut        ...    1.0000e-14
Grids for H and He will be reduced by one unit

# of grid points (after initial pruning)     ...  16520 (   0.0 sec)
# of grid points (after weights+screening)   ...  15947 (   0.0 sec)
nearest neighbour list constructed           ...    0.0 sec
Grid point re-assignment to atoms done       ...    0.0 sec
Grid point division into batches done        ...    0.0 sec
Reduced shell lists constructed in    0.0 sec

Total number of grid points                  ...    15947
Total number of batches                      ...      258
Average number of points per batch           ...       61
Average number of grid points per atom       ...     1063
Average number of shells per batch           ...    42.86 (45.12%)
Average number of basis functions per batch  ...    88.09 (40.97%)
Average number of large shells per batch     ...    29.80 (69.51%)
Average number of large basis fcns per batch ...    62.02 (70.41%)
Maximum spatial batch extension              ...  12.83, 18.30, 14.52 au
Average spatial batch extension              ...   0.61,  0.72,  0.68 au

Time for grid setup =    0.038 sec

------------------------------
INITIAL GUESS: MODEL POTENTIAL
------------------------------
Loading Hartree-Fock densities                     ... done
Calculating cut-offs                               ... done
Setting up the integral package                    ... done
Initializing the effective Hamiltonian             ... done
Starting the Coulomb interaction                   ... done (   0.0 sec)
Reading the grid                                   ... done
Mapping shells                                     ... done
Starting the XC term evaluation                    ... done (   0.0 sec)
Transforming the Hamiltonian                       ... done (   0.0 sec)
Diagonalizing the Hamiltonian                      ... done (   0.0 sec)
Back transforming the eigenvectors                 ... done (   0.0 sec)
Now organizing SCF variables                       ... done
                      ------------------
                      INITIAL GUESS DONE (   0.1 sec)
                      ------------------
--------------
SCF ITERATIONS
--------------
ITER       Energy         Delta-E        Max-DP      RMS-DP      [F,P]     Damp
               ***  Starting incremental Fock matrix formation  ***
  0   -379.8176545665   0.000000000000 0.04404905  0.00108641  0.3506564 0.7000
  1   -380.0062934684  -0.188638901901 0.02937649  0.00074879  0.2165383 0.7000
                               ***Turning on DIIS***
  2   -380.1052195824  -0.098926113953 0.01657350  0.00041207  0.1638060 0.7000
  3   -380.9759559230  -0.870736340668 0.00758002  0.00018209  0.1218836 0.7000
  4   -380.7978879215   0.178068001521 0.01696242  0.00041995  0.0862554 0.0000
  5   -380.3336119387   0.464275982779 0.00206659  0.00006817  0.0053208 0.0000
                      *** Initiating the SOSCF procedure ***
                           *** Shutting down DIIS ***
                      *** Re-Reading the Fockian *** 
                      *** Removing any level shift *** 
ITER      Energy       Delta-E        Grad      Rot      Max-DP    RMS-DP
  6   -380.30452441   0.0290875329  0.000876  0.000876  0.001286  0.000041
               *** Restarting incremental Fock matrix formation ***
  7   -380.29505383   0.0094705733  0.000298  0.000410  0.000616  0.000017
  8   -380.29506110  -0.0000072635  0.000151  0.000345  0.000445  0.000014
  9   -380.29506280  -0.0000016997  0.000071  0.000048  0.000095  0.000003
 10   -380.29506294  -0.0000001414  0.000011  0.000008  0.000019  0.000000
                  ***Gradient check signals convergence***
              ***Rediagonalizing the Fockian in SOSCF/NRSCF***

               *****************************************************
               *                     SUCCESS                       *
               *           SCF CONVERGED AFTER  11 CYCLES          *
               *****************************************************


----------------
TOTAL SCF ENERGY
----------------

Total Energy       :         -380.29506294 Eh          -10348.35476 eV

Components:
Nuclear Repulsion  :          166.05980023 Eh            4518.71689 eV
Electronic Energy  :         -546.35486317 Eh          -14867.07165 eV
One Electron Energy:         -856.00720888 Eh          -23293.14035 eV
Two Electron Energy:          309.65234571 Eh            8426.06870 eV

Virial components:
Potential Energy   :         -760.01425250 Eh          -20681.03921 eV
Kinetic Energy     :          379.71918956 Eh           10332.68445 eV
Virial Ratio       :            2.00151658


---------------
SCF CONVERGENCE
---------------

  Last Energy change         ...   -3.0390e-09  Tolerance :   1.0000e-08
  Last MAX-Density change    ...    4.8044e-06  Tolerance :   1.0000e-07
  Last RMS-Density change    ...    1.4031e-07  Tolerance :   5.0000e-09
  Last Orbital Gradient      ...    1.9464e-06  Tolerance :   1.0000e-05
  Last Orbital Rotation      ...    2.5071e-06  Tolerance :   1.0000e-05

             **** THE GBW FILE WAS UPDATED (12h2o.su.etal.mol0,2,5,10,11-orca.engrad-mp2.def2tzvp.frozencore.gbw) ****
             **** DENSITY FILE WAS UPDATED (12h2o.su.etal.mol0,2,5,10,11-orca.engrad-mp2.def2tzvp.frozencore.scfp) ****
             **** ENERGY FILE WAS UPDATED (12h2o.su.etal.mol0,2,5,10,11-orca.engrad-mp2.def2tzvp.frozencore.en.tmp) ****
             **** THE GBW FILE WAS UPDATED (12h2o.su.etal.mol0,2,5,10,11-orca.engrad-mp2.def2tzvp.frozencore.gbw) ****
             **** DENSITY FILE WAS UPDATED (12h2o.su.etal.mol0,2,5,10,11-orca.engrad-mp2.def2tzvp.frozencore.scfp) ****
----------------
ORBITAL ENERGIES
----------------

  NO   OCC          E(Eh)            E(eV) 
   0   2.0000     -20.588817      -560.2502 
   1   2.0000     -20.588540      -560.2426 
   2   2.0000     -20.572454      -559.8049 
   3   2.0000     -20.518667      -558.3413 
   4   2.0000     -20.510281      -558.1131 
   5   2.0000      -1.373844       -37.3842 
   6   2.0000      -1.366647       -37.1883 
   7   2.0000      -1.347763       -36.6745 
   8   2.0000      -1.297834       -35.3159 
   9   2.0000      -1.292542       -35.1719 
  10   2.0000      -0.733565       -19.9613 
  11   2.0000      -0.731355       -19.9012 
  12   2.0000      -0.715839       -19.4790 
  13   2.0000      -0.683352       -18.5950 
  14   2.0000      -0.668326       -18.1861 
  15   2.0000      -0.609082       -16.5740 
  16   2.0000      -0.602040       -16.3823 
  17   2.0000      -0.584215       -15.8973 
  18   2.0000      -0.551418       -15.0049 
  19   2.0000      -0.549743       -14.9593 
  20   2.0000      -0.518105       -14.0983 
  21   2.0000      -0.515589       -14.0299 
  22   2.0000      -0.506328       -13.7779 
  23   2.0000      -0.464518       -12.6402 
  24   2.0000      -0.460450       -12.5295 
  25   0.0000       0.097245         2.6462 
  26   0.0000       0.120460         3.2779 
  27   0.0000       0.132892         3.6162 
  28   0.0000       0.176941         4.8148 
  29   0.0000       0.184176         5.0117 
  30   0.0000       0.194232         5.2853 
  31   0.0000       0.199389         5.4257 
  32   0.0000       0.217779         5.9261 
  33   0.0000       0.282075         7.6756 
  34   0.0000       0.336664         9.1611 
  35   0.0000       0.480469        13.0742 
  36   0.0000       0.487386        13.2625 
  37   0.0000       0.500400        13.6166 
  38   0.0000       0.514048        13.9880 
  39   0.0000       0.541521        14.7355 
  40   0.0000       0.553274        15.0554 
  41   0.0000       0.557507        15.1705 
  42   0.0000       0.559501        15.2248 
  43   0.0000       0.579986        15.7822 
  44   0.0000       0.595014        16.1912 
  45   0.0000       0.606767        16.5110 
  46   0.0000       0.622706        16.9447 
  47   0.0000       0.629223        17.1220 
  48   0.0000       0.643493        17.5103 
  49   0.0000       0.648751        17.6534 
  50   0.0000       0.657454        17.8902 
  51   0.0000       0.676767        18.4158 
  52   0.0000       0.707972        19.2649 
  53   0.0000       0.730768        19.8852 
  54   0.0000       0.733758        19.9666 
  55   0.0000       0.751736        20.4558 
  56   0.0000       0.752595        20.4791 
  57   0.0000       0.769318        20.9342 
  58   0.0000       0.790409        21.5081 
  59   0.0000       0.799861        21.7653 
  60   0.0000       0.842246        22.9187 
  61   0.0000       0.882192        24.0057 
  62   0.0000       0.923939        25.1417 
  63   0.0000       0.946363        25.7519 
  64   0.0000       1.030299        28.0359 
  65   0.0000       1.368346        37.2346 
  66   0.0000       1.389635        37.8139 
  67   0.0000       1.389886        37.8207 
  68   0.0000       1.411443        38.4073 
  69   0.0000       1.414175        38.4817 
  70   0.0000       1.425230        38.7825 
  71   0.0000       1.437683        39.1214 
  72   0.0000       1.491961        40.5983 
  73   0.0000       1.498030        40.7635 
  74   0.0000       1.501711        40.8636 
  75   0.0000       1.544647        42.0320 
  76   0.0000       1.553937        42.2848 
  77   0.0000       1.598995        43.5109 
  78   0.0000       1.617277        44.0083 
  79   0.0000       1.643639        44.7257 
  80   0.0000       1.783929        48.5432 
  81   0.0000       1.791473        48.7484 
  82   0.0000       1.815398        49.3995 
  83   0.0000       1.834658        49.9236 
  84   0.0000       1.868180        50.8358 
  85   0.0000       1.888610        51.3917 
  86   0.0000       1.894770        51.5593 
  87   0.0000       1.897157        51.6243 
  88   0.0000       1.977584        53.8128 
  89   0.0000       1.996574        54.3295 
  90   0.0000       1.999889        54.4197 
  91   0.0000       2.018908        54.9373 
  92   0.0000       2.066811        56.2408 
  93   0.0000       2.117694        57.6254 
  94   0.0000       2.146368        58.4056 
  95   0.0000       2.250120        61.2289 
  96   0.0000       2.279283        62.0225 
  97   0.0000       2.289708        62.3061 
  98   0.0000       2.315804        63.0162 
  99   0.0000       2.327107        63.3238 
 100   0.0000       2.331256        63.4367 
 101   0.0000       2.339776        63.6685 
 102   0.0000       2.349563        63.9349 
 103   0.0000       2.379940        64.7615 
 104   0.0000       2.380996        64.7902 
 105   0.0000       2.392477        65.1026 
 106   0.0000       2.405493        65.4568 
 107   0.0000       2.488645        67.7195 
 108   0.0000       2.499076        68.0033 
 109   0.0000       2.537899        69.0597 
 110   0.0000       2.567378        69.8619 
 111   0.0000       2.575299        70.0774 
 112   0.0000       2.577907        70.1484 
 113   0.0000       2.625906        71.4545 
 114   0.0000       2.655323        72.2550 
 115   0.0000       2.667763        72.5935 
 116   0.0000       2.690661        73.2166 
 117   0.0000       2.694758        73.3281 
 118   0.0000       2.730452        74.2994 
 119   0.0000       2.792619        75.9910 
 120   0.0000       2.881790        78.4175 
 121   0.0000       2.904210        79.0276 
 122   0.0000       2.911511        79.2262 
 123   0.0000       2.930258        79.7364 
 124   0.0000       2.952589        80.3440 
 125   0.0000       2.958920        80.5163 
 126   0.0000       2.984899        81.2232 
 127   0.0000       2.994231        81.4772 
 128   0.0000       3.001062        81.6630 
 129   0.0000       3.030163        82.4549 
 130   0.0000       3.046029        82.8867 
 131   0.0000       3.064652        83.3934 
 132   0.0000       3.102675        84.4281 
 133   0.0000       3.122461        84.9665 
 134   0.0000       3.136303        85.3431 
 135   0.0000       3.190864        86.8278 
 136   0.0000       3.224130        87.7330 
 137   0.0000       3.244611        88.2904 
 138   0.0000       3.280676        89.2717 
 139   0.0000       3.510439        95.5239 
 140   0.0000       3.972010       108.0839 
 141   0.0000       3.977586       108.2356 
 142   0.0000       4.008766       109.0841 
 143   0.0000       4.081680       111.0682 
 144   0.0000       4.115209       111.9805 
 145   0.0000       4.283129       116.5499 
 146   0.0000       4.287054       116.6567 
 147   0.0000       4.301481       117.0492 
 148   0.0000       4.345161       118.2378 
 149   0.0000       4.406772       119.9144 
 150   0.0000       5.520235       150.2132 
 151   0.0000       5.528285       150.4323 
 152   0.0000       5.541393       150.7890 
 153   0.0000       5.589857       152.1077 
 154   0.0000       5.595831       152.2703 
 155   0.0000       5.614200       152.7701 
 156   0.0000       5.630566       153.2155 
 157   0.0000       5.661914       154.0685 
 158   0.0000       5.690318       154.8414 
 159   0.0000       5.695711       154.9882 
 160   0.0000       5.788695       157.5184 
 161   0.0000       5.803777       157.9288 
 162   0.0000       5.808453       158.0561 
 163   0.0000       5.812812       158.1747 
 164   0.0000       5.827255       158.5677 
 165   0.0000       5.840341       158.9238 
 166   0.0000       5.859875       159.4553 
 167   0.0000       5.862494       159.5266 
 168   0.0000       5.878627       159.9656 
 169   0.0000       5.892481       160.3426 
 170   0.0000       5.900576       160.5628 
 171   0.0000       5.905220       160.6892 
 172   0.0000       5.908702       160.7840 
 173   0.0000       5.935004       161.4997 
 174   0.0000       5.975391       162.5987 
 175   0.0000       6.405855       174.3122 
 176   0.0000       6.422487       174.7648 
 177   0.0000       6.460850       175.8087 
 178   0.0000       6.507192       177.0697 
 179   0.0000       6.510310       177.1546 
 180   0.0000       6.671362       181.5370 
 181   0.0000       6.689571       182.0325 
 182   0.0000       6.700378       182.3266 
 183   0.0000       6.717219       182.7848 
 184   0.0000       6.755983       183.8396 
 185   0.0000       6.812342       185.3732 
 186   0.0000       6.840430       186.1376 
 187   0.0000       6.861539       186.7120 
 188   0.0000       6.870627       186.9593 
 189   0.0000       6.880581       187.2301 
 190   0.0000       6.890726       187.5062 
 191   0.0000       6.892266       187.5481 
 192   0.0000       6.898222       187.7102 
 193   0.0000       6.906185       187.9269 
 194   0.0000       6.914607       188.1560 
 195   0.0000       6.949594       189.1081 
 196   0.0000       6.962254       189.4526 
 197   0.0000       6.995128       190.3471 
 198   0.0000       7.000267       190.4869 
 199   0.0000       7.069324       192.3661 
 200   0.0000       7.354496       200.1260 
 201   0.0000       7.367100       200.4690 
 202   0.0000       7.407187       201.5598 
 203   0.0000       7.415478       201.7854 
 204   0.0000       7.471049       203.2976 
 205   0.0000       7.479518       203.5280 
 206   0.0000       7.482309       203.6040 
 207   0.0000       7.509290       204.3382 
 208   0.0000       7.578296       206.2159 
 209   0.0000       7.596770       206.7186 
 210   0.0000      44.803831      1219.1742 
 211   0.0000      44.857297      1220.6291 
 212   0.0000      44.890929      1221.5443 
 213   0.0000      44.945436      1223.0275 
 214   0.0000      44.967751      1223.6347 

                    ********************************
                    * MULLIKEN POPULATION ANALYSIS *
                    ********************************

-----------------------
MULLIKEN ATOMIC CHARGES
-----------------------
   0 O :   -0.750182
   1 H :    0.330094
   2 H :    0.388490
   3 O :   -0.719917
   4 H :    0.358962
   5 H :    0.366620
   6 O :   -0.721895
   7 H :    0.338675
   8 H :    0.375471
   9 O :   -0.709925
  10 H :    0.349763
  11 H :    0.360526
  12 O :   -0.708967
  13 H :    0.369557
  14 H :    0.372729
Sum of atomic charges:   -0.0000000

--------------------------------
MULLIKEN REDUCED ORBITAL CHARGES
--------------------------------
  0 O s       :     3.809399  s :     3.809399
      pz      :     1.714816  p :     4.915257
      px      :     1.400393
      py      :     1.800047
      dz2     :     0.004039  d :     0.024054
      dxz     :     0.004647
      dyz     :     0.005683
      dx2y2   :     0.002344
      dxy     :     0.007341
      f0      :     0.000087  f :     0.001472
      f+1     :     0.000328
      f-1     :     0.000185
      f+2     :     0.000070
      f-2     :     0.000359
      f+3     :     0.000089
      f-3     :     0.000355
  1 H s       :     0.623696  s :     0.623696
      pz      :     0.017040  p :     0.046210
      px      :     0.013968
      py      :     0.015203
  2 H s       :     0.554484  s :     0.554484
      pz      :     0.010986  p :     0.057026
      px      :     0.031839
      py      :     0.014202
  3 O s       :     3.811575  s :     3.811575
      pz      :     1.719848  p :     4.881986
      px      :     1.800863
      py      :     1.361275
      dz2     :     0.004106  d :     0.024839
      dxz     :     0.005808
      dyz     :     0.004423
      dx2y2   :     0.002513
      dxy     :     0.007990
      f0      :     0.000084  f :     0.001516
      f+1     :     0.000186
      f-1     :     0.000331
      f+2     :     0.000070
      f-2     :     0.000350
      f+3     :     0.000395
      f-3     :     0.000099
  4 H s       :     0.595604  s :     0.595604
      pz      :     0.017074  p :     0.045434
      px      :     0.014859
      py      :     0.013502
  5 H s       :     0.591699  s :     0.591699
      pz      :     0.010778  p :     0.041681
      px      :     0.013078
      py      :     0.017826
  6 O s       :     3.812273  s :     3.812273
      pz      :     1.574552  p :     4.882706
      px      :     1.873473
      py      :     1.434681
      dz2     :     0.011294  d :     0.025450
      dxz     :     0.002656
      dyz     :     0.002916
      dx2y2   :     0.003205
      dxy     :     0.005379
      f0      :     0.000164  f :     0.001467
      f+1     :     0.000125
      f-1     :     0.000445
      f+2     :     0.000078
      f-2     :     0.000041
      f+3     :     0.000485
      f-3     :     0.000128
  7 H s       :     0.617497  s :     0.617497
      pz      :     0.010464  p :     0.043828
      px      :     0.015175
      py      :     0.018189
  8 H s       :     0.575408  s :     0.575408
      pz      :     0.024225  p :     0.049121
      px      :     0.013548
      py      :     0.011348
  9 O s       :     3.814188  s :     3.814188
      pz      :     1.723525  p :     4.868757
      px      :     1.793235
      py      :     1.351997
      dz2     :     0.004410  d :     0.025435
      dxz     :     0.005918
      dyz     :     0.004828
      dx2y2   :     0.002545
      dxy     :     0.007733
      f0      :     0.000092  f :     0.001546
      f+1     :     0.000192
      f-1     :     0.000346
      f+2     :     0.000070
      f-2     :     0.000359
      f+3     :     0.000390
      f-3     :     0.000098
 10 H s       :     0.604478  s :     0.604478
      pz      :     0.017251  p :     0.045759
      px      :     0.014980
      py      :     0.013528
 11 H s       :     0.597326  s :     0.597326
      pz      :     0.011275  p :     0.042148
      px      :     0.013048
      py      :     0.017825
 12 O s       :     3.800332  s :     3.800332
      pz      :     1.528602  p :     4.881205
      px      :     1.793661
      py      :     1.558942
      dz2     :     0.012494  d :     0.025971
      dxz     :     0.002534
      dyz     :     0.001230
      dx2y2   :     0.002485
      dxy     :     0.007229
      f0      :     0.000251  f :     0.001459
      f+1     :     0.000165
      f-1     :     0.000395
      f+2     :     0.000052
      f-2     :     0.000057
      f+3     :     0.000484
      f-3     :     0.000055
 13 H s       :     0.586848  s :     0.586848
      pz      :     0.019470  p :     0.043595
      px      :     0.012491
      py      :     0.011633
 14 H s       :     0.583975  s :     0.583975
      pz      :     0.010148  p :     0.043297
      px      :     0.014645
      py      :     0.018504


                     *******************************
                     * LOEWDIN POPULATION ANALYSIS *
                     *******************************

----------------------
LOEWDIN ATOMIC CHARGES
----------------------
   0 O :   -0.370177
   1 H :    0.146908
   2 H :    0.151012
   3 O :   -0.316606
   4 H :    0.161930
   5 H :    0.185967
   6 O :   -0.350586
   7 H :    0.165919
   8 H :    0.151544
   9 O :   -0.341768
  10 H :    0.158552
  11 H :    0.183368
  12 O :   -0.280594
  13 H :    0.175793
  14 H :    0.178738

-------------------------------
LOEWDIN REDUCED ORBITAL CHARGES
-------------------------------
  0 O s       :     3.468474  s :     3.468474
      pz      :     1.704046  p :     4.869511
      px      :     1.387742
      py      :     1.777723
      dz2     :     0.004338  d :     0.030165
      dxz     :     0.007189
      dyz     :     0.005952
      dx2y2   :     0.003360
      dxy     :     0.009326
      f0      :     0.000073  f :     0.002028
      f+1     :     0.000444
      f-1     :     0.000269
      f+2     :     0.000034
      f-2     :     0.000634
      f+3     :     0.000085
      f-3     :     0.000489
  1 H s       :     0.688861  s :     0.688861
      pz      :     0.065480  p :     0.164231
      px      :     0.045390
      py      :     0.053361
  2 H s       :     0.655978  s :     0.655978
      pz      :     0.033683  p :     0.193011
      px      :     0.111752
      py      :     0.047575
  3 O s       :     3.469110  s :     3.469110
      pz      :     1.682987  p :     4.813037
      px      :     1.774604
      py      :     1.355446
      dz2     :     0.005443  d :     0.032351
      dxz     :     0.005828
      dyz     :     0.006885
      dx2y2   :     0.003870
      dxy     :     0.010325
      f0      :     0.000091  f :     0.002108
      f+1     :     0.000273
      f-1     :     0.000451
      f+2     :     0.000035
      f-2     :     0.000610
      f+3     :     0.000557
      f-3     :     0.000093
  4 H s       :     0.674638  s :     0.674638
      pz      :     0.066500  p :     0.163433
      px      :     0.052769
      py      :     0.044164
  5 H s       :     0.665715  s :     0.665715
      pz      :     0.033426  p :     0.148318
      px      :     0.043608
      py      :     0.071284
  6 O s       :     3.473009  s :     3.473009
      pz      :     1.566164  p :     4.843444
      px      :     1.834347
      py      :     1.442932
      dz2     :     0.014628  d :     0.032037
      dxz     :     0.001710
      dyz     :     0.004063
      dx2y2   :     0.004552
      dxy     :     0.007083
      f0      :     0.000349  f :     0.002096
      f+1     :     0.000203
      f-1     :     0.000729
      f+2     :     0.000046
      f-2     :     0.000043
      f+3     :     0.000650
      f-3     :     0.000076
  7 H s       :     0.680838  s :     0.680838
      pz      :     0.030502  p :     0.153243
      px      :     0.049321
      py      :     0.073419
  8 H s       :     0.677554  s :     0.677554
      pz      :     0.092177  p :     0.170902
      px      :     0.043109
      py      :     0.035616
  9 O s       :     3.475512  s :     3.475512
      pz      :     1.707622  p :     4.831656
      px      :     1.772310
      py      :     1.351723
      dz2     :     0.004986  d :     0.032473
      dxz     :     0.005971
      dyz     :     0.007227
      dx2y2   :     0.003986
      dxy     :     0.010303
      f0      :     0.000078  f :     0.002127
      f+1     :     0.000276
      f-1     :     0.000463
      f+2     :     0.000036
      f-2     :     0.000623
      f+3     :     0.000558
      f-3     :     0.000093
 10 H s       :     0.678638  s :     0.678638
      pz      :     0.066117  p :     0.162811
      px      :     0.052711
      py      :     0.043983
 11 H s       :     0.668928  s :     0.668928
      pz      :     0.033404  p :     0.147703
      px      :     0.043644
      py      :     0.070655
 12 O s       :     3.459862  s :     3.459862
      pz      :     1.519672  p :     4.784976
      px      :     1.731148
      py      :     1.534156
      dz2     :     0.016648  d :     0.033552
      dxz     :     0.002029
      dyz     :     0.001982
      dx2y2   :     0.003666
      dxy     :     0.009227
      f0      :     0.000454  f :     0.002205
      f+1     :     0.000349
      f-1     :     0.000591
      f+2     :     0.000023
      f-2     :     0.000048
      f+3     :     0.000712
      f-3     :     0.000027
 13 H s       :     0.665540  s :     0.665540
      pz      :     0.081487  p :     0.158667
      px      :     0.041648
      py      :     0.035532
 14 H s       :     0.663548  s :     0.663548
      pz      :     0.029672  p :     0.157715
      px      :     0.055045
      py      :     0.072997


                      *****************************
                      * MAYER POPULATION ANALYSIS *
                      *****************************

  NA   - Mulliken gross atomic population
  ZA   - Total nuclear charge
  QA   - Mulliken gross atomic charge
  VA   - Mayer's total valence
  BVA  - Mayer's bonded valence
  FA   - Mayer's free valence

  ATOM       NA         ZA         QA         VA         BVA        FA
  0 O      8.7502     8.0000    -0.7502     1.7055     1.7055    -0.0000
  1 H      0.6699     1.0000     0.3301     0.9064     0.9064    -0.0000
  2 H      0.6115     1.0000     0.3885     0.8820     0.8820    -0.0000
  3 O      8.7199     8.0000    -0.7199     1.7671     1.7671    -0.0000
  4 H      0.6410     1.0000     0.3590     0.8861     0.8861    -0.0000
  5 H      0.6334     1.0000     0.3666     0.8819     0.8819    -0.0000
  6 O      8.7219     8.0000    -0.7219     1.7513     1.7513     0.0000
  7 H      0.6613     1.0000     0.3387     0.9016     0.9016    -0.0000
  8 H      0.6245     1.0000     0.3755     0.8849     0.8849     0.0000
  9 O      8.7099     8.0000    -0.7099     1.7656     1.7656     0.0000
 10 H      0.6502     1.0000     0.3498     0.8925     0.8925     0.0000
 11 H      0.6395     1.0000     0.3605     0.8836     0.8836     0.0000
 12 O      8.7090     8.0000    -0.7090     1.7729     1.7729    -0.0000
 13 H      0.6304     1.0000     0.3696     0.8776     0.8776     0.0000
 14 H      0.6273     1.0000     0.3727     0.8752     0.8752    -0.0000

  Mayer bond orders larger than 0.100000
B(  0-O ,  1-H ) :   0.9005 B(  0-O ,  2-H ) :   0.8233 B(  3-O ,  4-H ) :   0.8783 
B(  3-O ,  5-H ) :   0.8685 B(  6-O ,  7-H ) :   0.8921 B(  6-O ,  8-H ) :   0.8593 
B(  9-O , 10-H ) :   0.8869 B(  9-O , 11-H ) :   0.8757 B( 12-O , 13-H ) :   0.8712 
B( 12-O , 14-H ) :   0.8688 

-------
TIMINGS
-------

Total SCF time: 0 days 0 hours 0 min 4 sec 

Total time                  ....       4.876 sec
Sum of individual times     ....       4.699 sec  ( 96.4%)

Fock matrix formation       ....       4.483 sec  ( 91.9%)
Diagonalization             ....       0.043 sec  (  0.9%)
Density matrix formation    ....       0.004 sec  (  0.1%)
Population analysis         ....       0.005 sec  (  0.1%)
Initial guess               ....       0.093 sec  (  1.9%)
Orbital Transformation      ....       0.000 sec  (  0.0%)
Orbital Orthonormalization  ....       0.000 sec  (  0.0%)
DIIS solution               ....       0.015 sec  (  0.3%)
SOSCF solution              ....       0.018 sec  (  0.4%)


           ************************************************************
           *        Program running with 6 parallel MPI-processes     *
           *              working on a common directory               *
           ************************************************************

------------------------------------------------------------------------------
                                ORCA  MP2 
------------------------------------------------------------------------------

Freezing NCore=10 chemical core electrons
MP2 will be done in the AO integral direct mode
The Q1-step will be done using symmetric double matrices
Dimension of the basis                    ...  215
Memory devoted for MP2                    ... 8000 MB   
Memory needed for all in one shot         ...  153 MB
Number of MOs that can be treated together...  209      
MP2 density construction                  ... relaxed
The MP2 gradient is requested => amplitudes will be stored on disk
Total number of MOs              ...   20
Number of MOs treated per batch  ...    4 
Number of batches necessary      ...    1 
OPERATORS   0/  0 PASS   0
-----------------------------------------------
 MP2 CORRELATION ENERGY   :     -1.284710095 Eh
-----------------------------------------------


---------------------
MP2 DENSITY FORMATION
---------------------

Completing the external part of the density      ... done
Storing the unrelaxed density                    ... done

Calculating G(D)                                 ... done
Completing the Lagrangian                        ... done
Solving the Z-vector equations                   ... 

------------------------------------------------------------------------------
                           ORCA CP-SCF CALCULATION
------------------------------------------------------------------------------

Input orbitals are from        ... 12h2o.su.etal.mol0,2,5,10,11-orca.engrad-mp2.def2tzvp.frozencore.gbw
Input Perturbation             ... 12h2o.su.etal.mol0,2,5,10,11-orca.engrad-mp2.def2tzvp.frozencore.pin.tmp
Wavefunction output            ... 12h2o.su.etal.mol0,2,5,10,11-orca.engrad-mp2.def2tzvp.frozencore.pout.tmp
Perturbation mode              ... Real perturbation (singlet)
Solver                         ... POPLE
Max. number of iterations      ... 128
Convergence tolerance          ... 1.000e-08
Integral handling              ... Direct
Number of perturbations        ... 1
Number of operators            ... 1
Orbital ranges used for CP-SCF:
 Operator 0:  Orbitals   0... 24  to  25...214
Variables per vector in CP-SCF ... 4750
Number of vectors sought       ... 1
     CP-SCF ITERATION   0: 
     CP-SCF ITERATION   1:      0.000575498626
     CP-SCF ITERATION   2:      0.000012292192
     CP-SCF ITERATION   3:      0.000000436947
     CP-SCF ITERATION   4:      0.000000038799
     CP-SCF ITERATION   5:      0.000000002692
                                                 ... done
Finalizing the relaxed density                   ... done
Transforming P to the AO basis                   ... done
Storing the relaxed density                      ... done

------------------------------------
ENERGY WEIGHTED DENSITY FINALIZATION
------------------------------------

Gathering the parts of the W-matrix              ...                                                      done
Forming the Z-density                            ... done
Transforming Z to the AO basis                   ... done
Calculating G(Z)                                 ... done
Finalizing the W-matrix                          ...                                                      done
Transforming W to the AO basis and storing       ... done

                *********************************************
                * UNRELAXED MP2 DENSITY POPULATION ANALYSIS *
                *********************************************

------------------------------------------------------------------------------
                           ORCA POPULATION ANALYSIS
------------------------------------------------------------------------------
Input electron density              ... 12h2o.su.etal.mol0,2,5,10,11-orca.engrad-mp2.def2tzvp.frozencore.pmp2ur
BaseName (.gbw .S,...)              ... 12h2o.su.etal.mol0,2,5,10,11-orca.engrad-mp2.def2tzvp.frozencore

                    ********************************
                    * MULLIKEN POPULATION ANALYSIS *
                    ********************************

-----------------------
MULLIKEN ATOMIC CHARGES
-----------------------
   0 O :   -0.744824
   1 H :    0.327857
   2 H :    0.384246
   3 O :   -0.714715
   4 H :    0.356758
   5 H :    0.363757
   6 O :   -0.716573
   7 H :    0.336019
   8 H :    0.372608
   9 O :   -0.705086
  10 H :    0.347624
  11 H :    0.357840
  12 O :   -0.702986
  13 H :    0.367157
  14 H :    0.370318
Sum of atomic charges:   -0.0000000

--------------------------------
MULLIKEN REDUCED ORBITAL CHARGES
--------------------------------
  0 O s       :     3.804504  s :     3.804504
      pz      :     1.704423  p :     4.885263
      px      :     1.392052
      py      :     1.788788
      dz2     :     0.009503  d :     0.051019
      dxz     :     0.010003
      dyz     :     0.011011
      dx2y2   :     0.007832
      dxy     :     0.012671
      f0      :     0.000455  f :     0.004038
      f+1     :     0.000691
      f-1     :     0.000547
      f+2     :     0.000438
      f-2     :     0.000723
      f+3     :     0.000462
      f-3     :     0.000720
  1 H s       :     0.624198  s :     0.624198
      pz      :     0.017554  p :     0.047945
      px      :     0.014430
      py      :     0.015961
  2 H s       :     0.557032  s :     0.557032
      pz      :     0.011828  p :     0.058721
      px      :     0.031942
      py      :     0.014952
  3 O s       :     3.806752  s :     3.806752
      pz      :     1.709034  p :     4.852276
      px      :     1.789569
      py      :     1.353673
      dz2     :     0.009613  d :     0.051619
      dxz     :     0.011183
      dyz     :     0.009774
      dx2y2   :     0.007853
      dxy     :     0.013196
      f0      :     0.000454  f :     0.004068
      f+1     :     0.000551
      f-1     :     0.000692
      f+2     :     0.000437
      f-2     :     0.000713
      f+3     :     0.000753
      f-3     :     0.000467
  4 H s       :     0.596235  s :     0.596235
      pz      :     0.017549  p :     0.047007
      px      :     0.015569
      py      :     0.013889
  5 H s       :     0.593011  s :     0.593011
      pz      :     0.011610  p :     0.043232
      px      :     0.013856
      py      :     0.017766
  6 O s       :     3.807432  s :     3.807432
      pz      :     1.564851  p :     4.853051
      px      :     1.861882
      py      :     1.426318
      dz2     :     0.016419  d :     0.052067
      dxz     :     0.008153
      dyz     :     0.008214
      dx2y2   :     0.008581
      dxy     :     0.010701
      f0      :     0.000547  f :     0.004022
      f+1     :     0.000497
      f-1     :     0.000810
      f+2     :     0.000439
      f-2     :     0.000405
      f+3     :     0.000834
      f-3     :     0.000489
  7 H s       :     0.618467  s :     0.618467
      pz      :     0.011328  p :     0.045515
      px      :     0.015951
      py      :     0.018236
  8 H s       :     0.576699  s :     0.576699
      pz      :     0.024334  p :     0.050693
      px      :     0.014409
      py      :     0.011950
  9 O s       :     3.809403  s :     3.809403
      pz      :     1.713088  p :     4.839805
      px      :     1.782082
      py      :     1.344635
      dz2     :     0.009750  d :     0.051794
      dxz     :     0.011191
      dyz     :     0.010068
      dx2y2   :     0.007855
      dxy     :     0.012929
      f0      :     0.000458  f :     0.004083
      f+1     :     0.000554
      f-1     :     0.000704
      f+2     :     0.000435
      f-2     :     0.000721
      f+3     :     0.000746
      f-3     :     0.000465
 10 H s       :     0.604997  s :     0.604997
      pz      :     0.017744  p :     0.047379
      px      :     0.015707
      py      :     0.013928
 11 H s       :     0.598428  s :     0.598428
      pz      :     0.012127  p :     0.043732
      px      :     0.013831
      py      :     0.017774
 12 O s       :     3.795186  s :     3.795186
      pz      :     1.519498  p :     4.850816
      px      :     1.781517
      py      :     1.549801
      dz2     :     0.017565  d :     0.052944
      dxz     :     0.008073
      dyz     :     0.006595
      dx2y2   :     0.008099
      dxy     :     0.012612
      f0      :     0.000630  f :     0.004041
      f+1     :     0.000540
      f-1     :     0.000760
      f+2     :     0.000414
      f-2     :     0.000423
      f+3     :     0.000844
      f-3     :     0.000430
 13 H s       :     0.587702  s :     0.587702
      pz      :     0.019541  p :     0.045141
      px      :     0.013307
      py      :     0.012293
 14 H s       :     0.584858  s :     0.584858
      pz      :     0.010900  p :     0.044824
      px      :     0.015265
      py      :     0.018659


                     *******************************
                     * LOEWDIN POPULATION ANALYSIS *
                     *******************************

----------------------
LOEWDIN ATOMIC CHARGES
----------------------
   0 O :   -0.367738
   1 H :    0.145619
   2 H :    0.148579
   3 O :   -0.313074
   4 H :    0.160776
   5 H :    0.184158
   6 O :   -0.347648
   7 H :    0.164226
   8 H :    0.149633
   9 O :   -0.339005
  10 H :    0.157463
  11 H :    0.181705
  12 O :   -0.276569
  13 H :    0.174469
  14 H :    0.177406

-------------------------------
LOEWDIN REDUCED ORBITAL CHARGES
-------------------------------
  0 O s       :     3.464810  s :     3.464810
      pz      :     1.693647  p :     4.839939
      px      :     1.379492
      py      :     1.766799
      dz2     :     0.009880  d :     0.058200
      dxz     :     0.012768
      dyz     :     0.011597
      dx2y2   :     0.008948
      dxy     :     0.015007
      f0      :     0.000452  f :     0.004789
      f+1     :     0.000855
      f-1     :     0.000651
      f+2     :     0.000410
      f-2     :     0.001043
      f+3     :     0.000471
      f-3     :     0.000907
  1 H s       :     0.686807  s :     0.686807
      pz      :     0.066798  p :     0.167574
      px      :     0.046368
      py      :     0.054408
  2 H s       :     0.655881  s :     0.655881
      pz      :     0.034526  p :     0.195539
      px      :     0.112538
      py      :     0.048476
  3 O s       :     3.465348  s :     3.465348
      pz      :     1.671717  p :     4.782657
      px      :     1.763552
      py      :     1.347389
      dz2     :     0.011047  d :     0.060214
      dxz     :     0.011495
      dyz     :     0.012446
      dx2y2   :     0.009335
      dxy     :     0.015891
      f0      :     0.000473  f :     0.004855
      f+1     :     0.000657
      f-1     :     0.000859
      f+2     :     0.000409
      f-2     :     0.001016
      f+3     :     0.000966
      f-3     :     0.000473
  4 H s       :     0.672766  s :     0.672766
      pz      :     0.067720  p :     0.166458
      px      :     0.053753
      py      :     0.044985
  5 H s       :     0.664440  s :     0.664440
      pz      :     0.034264  p :     0.151402
      px      :     0.044596
      py      :     0.072542
  6 O s       :     3.469249  s :     3.469249
      pz      :     1.556381  p :     4.813777
      px      :     1.823188
      py      :     1.434208
      dz2     :     0.020368  d :     0.059778
      dxz     :     0.007138
      dyz     :     0.009402
      dx2y2   :     0.010143
      dxy     :     0.012727
      f0      :     0.000762  f :     0.004844
      f+1     :     0.000590
      f-1     :     0.001163
      f+2     :     0.000414
      f-2     :     0.000413
      f+3     :     0.001054
      f-3     :     0.000449
  7 H s       :     0.679202  s :     0.679202
      pz      :     0.031339  p :     0.156572
      px      :     0.050300
      py      :     0.074933
  8 H s       :     0.676529  s :     0.676529
      pz      :     0.093560  p :     0.173838
      px      :     0.043908
      py      :     0.036370
  9 O s       :     3.471771  s :     3.471771
      pz      :     1.697257  p :     4.802506
      px      :     1.761404
      py      :     1.343845
      dz2     :     0.010412  d :     0.059871
      dxz     :     0.011528
      dyz     :     0.012682
      dx2y2   :     0.009411
      dxy     :     0.015838
      f0      :     0.000454  f :     0.004857
      f+1     :     0.000658
      f-1     :     0.000868
      f+2     :     0.000408
      f-2     :     0.001028
      f+3     :     0.000967
      f-3     :     0.000474
 10 H s       :     0.676644  s :     0.676644
      pz      :     0.067359  p :     0.165893
      px      :     0.053708
      py      :     0.044827
 11 H s       :     0.667470  s :     0.667470
      pz      :     0.034234  p :     0.150825
      px      :     0.044637
      py      :     0.071954
 12 O s       :     3.455996  s :     3.455996
      pz      :     1.510333  p :     4.754068
      px      :     1.718915
      py      :     1.524821
      dz2     :     0.022407  d :     0.061523
      dxz     :     0.007495
      dyz     :     0.007289
      dx2y2   :     0.009248
      dxy     :     0.015084
      f0      :     0.000874  f :     0.004982
      f+1     :     0.000747
      f-1     :     0.001010
      f+2     :     0.000389
      f-2     :     0.000422
      f+3     :     0.001132
      f-3     :     0.000408
 13 H s       :     0.663874  s :     0.663874
      pz      :     0.082946  p :     0.161657
      px      :     0.042453
      py      :     0.036258
 14 H s       :     0.661917  s :     0.661917
      pz      :     0.030390  p :     0.160677
      px      :     0.056048
      py      :     0.074239


                      *****************************
                      * MAYER POPULATION ANALYSIS *
                      *****************************

  NA   - Mulliken gross atomic population
  ZA   - Total nuclear charge
  QA   - Mulliken gross atomic charge
  VA   - Mayer's total valence
  BVA  - Mayer's bonded valence
  FA   - Mayer's free valence

  ATOM       NA         ZA         QA         VA         BVA        FA
  0 O      8.7448     8.0000    -0.7448     2.0171     1.6263     0.3908
  1 H      0.6721     1.0000     0.3279     0.9125     0.8644     0.0481
  2 H      0.6158     1.0000     0.3842     0.8893     0.8433     0.0459
  3 O      8.7147     8.0000    -0.7147     2.0753     1.6859     0.3894
  4 H      0.6432     1.0000     0.3568     0.8918     0.8461     0.0456
  5 H      0.6362     1.0000     0.3638     0.8881     0.8400     0.0481
  6 O      8.7166     8.0000    -0.7166     2.0590     1.6700     0.3890
  7 H      0.6640     1.0000     0.3360     0.9080     0.8586     0.0494
  8 H      0.6274     1.0000     0.3726     0.8910     0.8461     0.0449
  9 O      8.7051     8.0000    -0.7051     2.0712     1.6840     0.3872
 10 H      0.6524     1.0000     0.3476     0.8982     0.8522     0.0460
 11 H      0.6422     1.0000     0.3578     0.8897     0.8416     0.0481
 12 O      8.7030     8.0000    -0.7030     2.0784     1.6931     0.3853
 13 H      0.6328     1.0000     0.3672     0.8833     0.8378     0.0455
 14 H      0.6297     1.0000     0.3703     0.8808     0.8355     0.0454

  Mayer bond orders larger than 0.100000
B(  0-O ,  1-H ) :   0.8590 B(  0-O ,  2-H ) :   0.7860 B(  3-O ,  4-H ) :   0.8388 
B(  3-O ,  5-H ) :   0.8274 B(  6-O ,  7-H ) :   0.8496 B(  6-O ,  8-H ) :   0.8211 
B(  9-O , 10-H ) :   0.8470 B(  9-O , 11-H ) :   0.8341 B( 12-O , 13-H ) :   0.8318 
B( 12-O , 14-H ) :   0.8295 


                *******************************************
                * RELAXED MP2 DENSITY POPULATION ANALYSIS *
                *******************************************

------------------------------------------------------------------------------
                           ORCA POPULATION ANALYSIS
------------------------------------------------------------------------------
Input electron density              ... 12h2o.su.etal.mol0,2,5,10,11-orca.engrad-mp2.def2tzvp.frozencore.pmp2re
BaseName (.gbw .S,...)              ... 12h2o.su.etal.mol0,2,5,10,11-orca.engrad-mp2.def2tzvp.frozencore

                    ********************************
                    * MULLIKEN POPULATION ANALYSIS *
                    ********************************

-----------------------
MULLIKEN ATOMIC CHARGES
-----------------------
   0 O :   -0.726566
   1 H :    0.321928
   2 H :    0.363936
   3 O :   -0.697676
   4 H :    0.349889
   5 H :    0.356129
   6 O :   -0.699218
   7 H :    0.328833
   8 H :    0.358927
   9 O :   -0.691667
  10 H :    0.341302
  11 H :    0.350855
  12 O :   -0.681641
  13 H :    0.361008
  14 H :    0.363959
Sum of atomic charges:   -0.0000000

--------------------------------
MULLIKEN REDUCED ORBITAL CHARGES
--------------------------------
  0 O s       :     3.806316  s :     3.806316
      pz      :     1.698625  p :     4.867195
      px      :     1.385739
      py      :     1.782831
      dz2     :     0.009295  d :     0.049082
      dxz     :     0.009436
      dyz     :     0.010689
      dx2y2   :     0.007715
      dxy     :     0.011947
      f0      :     0.000453  f :     0.003972
      f+1     :     0.000674
      f-1     :     0.000539
      f+2     :     0.000438
      f-2     :     0.000704
      f+3     :     0.000461
      f-3     :     0.000702
  1 H s       :     0.629321  s :     0.629321
      pz      :     0.017671  p :     0.048751
      px      :     0.014444
      py      :     0.016636
  2 H s       :     0.577013  s :     0.577013
      pz      :     0.012619  p :     0.059052
      px      :     0.030910
      py      :     0.015522
  3 O s       :     3.811162  s :     3.811162
      pz      :     1.699626  p :     4.833142
      px      :     1.783558
      py      :     1.349958
      dz2     :     0.009377  d :     0.049375
      dxz     :     0.010900
      dyz     :     0.009181
      dx2y2   :     0.007602
      dxy     :     0.012314
      f0      :     0.000453  f :     0.003996
      f+1     :     0.000543
      f-1     :     0.000673
      f+2     :     0.000437
      f-2     :     0.000693
      f+3     :     0.000732
      f-3     :     0.000465
  4 H s       :     0.602414  s :     0.602414
      pz      :     0.017718  p :     0.047696
      px      :     0.016168
      py      :     0.013810
  5 H s       :     0.600018  s :     0.600018
      pz      :     0.012461  p :     0.043853
      px      :     0.014615
      py      :     0.016777
  6 O s       :     3.809313  s :     3.809313
      pz      :     1.559851  p :     4.836082
      px      :     1.857390
      py      :     1.418840
      dz2     :     0.015313  d :     0.049872
      dxz     :     0.008189
      dyz     :     0.007959
      dx2y2   :     0.008266
      dxy     :     0.010145
      f0      :     0.000535  f :     0.003951
      f+1     :     0.000491
      f-1     :     0.000781
      f+2     :     0.000439
      f-2     :     0.000403
      f+3     :     0.000813
      f-3     :     0.000489
  7 H s       :     0.624860  s :     0.624860
      pz      :     0.012146  p :     0.046306
      px      :     0.016727
      py      :     0.017434
  8 H s       :     0.589790  s :     0.589790
      pz      :     0.023635  p :     0.051283
      px      :     0.015341
      py      :     0.012307
  9 O s       :     3.813947  s :     3.813947
      pz      :     1.707606  p :     4.824199
      px      :     1.775549
      py      :     1.341044
      dz2     :     0.009460  d :     0.049510
      dxz     :     0.010912
      dyz     :     0.009483
      dx2y2   :     0.007589
      dxy     :     0.012066
      f0      :     0.000456  f :     0.004011
      f+1     :     0.000546
      f-1     :     0.000685
      f+2     :     0.000435
      f-2     :     0.000700
      f+3     :     0.000726
      f-3     :     0.000463
 10 H s       :     0.610621  s :     0.610621
      pz      :     0.017894  p :     0.048077
      px      :     0.016329
      py      :     0.013854
 11 H s       :     0.604784  s :     0.604784
      pz      :     0.012994  p :     0.044362
      px      :     0.014602
      py      :     0.016766
 12 O s       :     3.797982  s :     3.797982
      pz      :     1.514849  p :     4.828833
      px      :     1.767442
      py      :     1.546542
      dz2     :     0.016246  d :     0.050860
      dxz     :     0.008055
      dyz     :     0.006536
      dx2y2   :     0.008078
      dxy     :     0.011945
      f0      :     0.000612  f :     0.003965
      f+1     :     0.000530
      f-1     :     0.000738
      f+2     :     0.000414
      f-2     :     0.000421
      f+3     :     0.000819
      f-3     :     0.000430
 13 H s       :     0.593270  s :     0.593270
      pz      :     0.018783  p :     0.045722
      px      :     0.014151
      py      :     0.012788
 14 H s       :     0.590653  s :     0.590653
      pz      :     0.011537  p :     0.045388
      px      :     0.015734
      py      :     0.018118


                     *******************************
                     * LOEWDIN POPULATION ANALYSIS *
                     *******************************

----------------------
LOEWDIN ATOMIC CHARGES
----------------------
   0 O :   -0.369940
   1 H :    0.147588
   2 H :    0.141823
   3 O :   -0.312203
   4 H :    0.162331
   5 H :    0.185006
   6 O :   -0.349179
   7 H :    0.165577
   8 H :    0.146023
   9 O :   -0.341998
  10 H :    0.159187
  11 H :    0.183016
  12 O :   -0.272167
  13 H :    0.176029
  14 H :    0.178906

-------------------------------
LOEWDIN REDUCED ORBITAL CHARGES
-------------------------------
  0 O s       :     3.466463  s :     3.466463
      pz      :     1.693199  p :     4.841306
      px      :     1.383032
      py      :     1.765075
      dz2     :     0.009820  d :     0.057345
      dxz     :     0.012391
      dyz     :     0.011496
      dx2y2   :     0.008927
      dxy     :     0.014711
      f0      :     0.000454  f :     0.004826
      f+1     :     0.000867
      f-1     :     0.000652
      f+2     :     0.000411
      f-2     :     0.001043
      f+3     :     0.000476
      f-3     :     0.000923
  1 H s       :     0.684502  s :     0.684502
      pz      :     0.066895  p :     0.167910
      px      :     0.045951
      py      :     0.055064
  2 H s       :     0.662382  s :     0.662382
      pz      :     0.035234  p :     0.195795
      px      :     0.111457
      py      :     0.049103
  3 O s       :     3.467435  s :     3.467435
      pz      :     1.666783  p :     4.780887
      px      :     1.761721
      py      :     1.352383
      dz2     :     0.010966  d :     0.059007
      dxz     :     0.011467
      dyz     :     0.012077
      dx2y2   :     0.009100
      dxy     :     0.015396
      f0      :     0.000477  f :     0.004875
      f+1     :     0.000657
      f-1     :     0.000866
      f+2     :     0.000410
      f-2     :     0.001016
      f+3     :     0.000973
      f-3     :     0.000476
  4 H s       :     0.671316  s :     0.671316
      pz      :     0.067821  p :     0.166353
      px      :     0.054361
      py      :     0.044171
  5 H s       :     0.663533  s :     0.663533
      pz      :     0.034971  p :     0.151461
      px      :     0.045365
      py      :     0.071124
  6 O s       :     3.470708  s :     3.470708
      pz      :     1.556896  p :     4.815023
      px      :     1.821135
      py      :     1.436992
      dz2     :     0.019841  d :     0.058583
      dxz     :     0.007205
      dyz     :     0.009181
      dx2y2   :     0.009925
      dxy     :     0.012431
      f0      :     0.000763  f :     0.004865
      f+1     :     0.000589
      f-1     :     0.001173
      f+2     :     0.000417
      f-2     :     0.000411
      f+3     :     0.001061
      f-3     :     0.000451
  7 H s       :     0.677447  s :     0.677447
      pz      :     0.031958  p :     0.156975
      px      :     0.051056
      py      :     0.073961
  8 H s       :     0.679716  s :     0.679716
      pz      :     0.093003  p :     0.174261
      px      :     0.044892
      py      :     0.036365
  9 O s       :     3.473866  s :     3.473866
      pz      :     1.696488  p :     4.804745
      px      :     1.759396
      py      :     1.348862
      dz2     :     0.010224  d :     0.058511
      dxz     :     0.011475
      dyz     :     0.012289
      dx2y2   :     0.009169
      dxy     :     0.015355
      f0      :     0.000457  f :     0.004876
      f+1     :     0.000657
      f-1     :     0.000876
      f+2     :     0.000408
      f-2     :     0.001027
      f+3     :     0.000974
      f-3     :     0.000477
 10 H s       :     0.674956  s :     0.674956
      pz      :     0.067476  p :     0.165857
      px      :     0.054316
      py      :     0.044065
 11 H s       :     0.666061  s :     0.666061
      pz      :     0.034999  p :     0.150923
      px      :     0.045430
      py      :     0.070495
 12 O s       :     3.457483  s :     3.457483
      pz      :     1.512503  p :     4.749158
      px      :     1.709774
      py      :     1.526881
      dz2     :     0.021725  d :     0.060526
      dxz     :     0.007531
      dyz     :     0.007149
      dx2y2   :     0.009319
      dxy     :     0.014803
      f0      :     0.000873  f :     0.005000
      f+1     :     0.000748
      f-1     :     0.001016
      f+2     :     0.000391
      f-2     :     0.000421
      f+3     :     0.001140
      f-3     :     0.000409
 13 H s       :     0.662408  s :     0.662408
      pz      :     0.081989  p :     0.161563
      px      :     0.043162
      py      :     0.036412
 14 H s       :     0.660550  s :     0.660550
      pz      :     0.030686  p :     0.160544
      px      :     0.056485
      py      :     0.073373


                      *****************************
                      * MAYER POPULATION ANALYSIS *
                      *****************************

  NA   - Mulliken gross atomic population
  ZA   - Total nuclear charge
  QA   - Mulliken gross atomic charge
  VA   - Mayer's total valence
  BVA  - Mayer's bonded valence
  FA   - Mayer's free valence

  ATOM       NA         ZA         QA         VA         BVA        FA
  0 O      8.7266     8.0000    -0.7266     2.0240     1.6379     0.3861
  1 H      0.6781     1.0000     0.3219     0.9159     0.8677     0.0482
  2 H      0.6361     1.0000     0.3639     0.9139     0.8685     0.0454
  3 O      8.6977     8.0000    -0.6977     2.0962     1.7124     0.3838
  4 H      0.6501     1.0000     0.3499     0.8969     0.8513     0.0456
  5 H      0.6439     1.0000     0.3561     0.8959     0.8479     0.0480
  6 O      8.6992     8.0000    -0.6992     2.0697     1.6858     0.3839
  7 H      0.6712     1.0000     0.3288     0.9142     0.8647     0.0494
  8 H      0.6411     1.0000     0.3589     0.9097     0.8651     0.0446
  9 O      8.6917     8.0000    -0.6917     2.0766     1.6943     0.3823
 10 H      0.6587     1.0000     0.3413     0.9029     0.8568     0.0461
 11 H      0.6491     1.0000     0.3509     0.8957     0.8477     0.0481
 12 O      8.6816     8.0000    -0.6816     2.1062     1.7266     0.3796
 13 H      0.6390     1.0000     0.3610     0.8882     0.8426     0.0456
 14 H      0.6360     1.0000     0.3640     0.8859     0.8405     0.0454

  Mayer bond orders larger than 0.100000
B(  0-O ,  1-H ) :   0.8620 B(  0-O ,  2-H ) :   0.7883 B(  3-O ,  4-H ) :   0.8426 
B(  3-O ,  5-H ) :   0.8309 B(  6-O ,  7-H ) :   0.8527 B(  6-O ,  8-H ) :   0.8267 
B(  9-O , 10-H ) :   0.8514 B(  9-O , 11-H ) :   0.8383 B( 12-O , 13-H ) :   0.8354 
B( 12-O , 14-H ) :   0.8333 


----------------------------------
MP2 DERIVATIVE INTEGRAL GENERATION
----------------------------------


Input Wavefunction Amplitudes       ... 12h2o.su.etal.mol0,2,5,10,11-orca.engrad-mp2.def2tzvp.frozencore.mp2tsaa.tmp
Input Correlated Electron Density   ... 12h2o.su.etal.mol0,2,5,10,11-orca.engrad-mp2.def2tzvp.frozencore.pmp2re
Input Energy Weighted Density       ... 12h2o.su.etal.mol0,2,5,10,11-orca.engrad-mp2.def2tzvp.frozencore.wmp2.tmp
Input SCF Electron Density          ... 12h2o.su.etal.mol0,2,5,10,11-orca.engrad-mp2.def2tzvp.frozencore.scfp

One-Electron Terms    ...
                        ... One-Electron Terms done
Prescreening matrices              ... done

Batch handling in the gradient evaluation:
Memory available                      ... 8000.0 MB
Memory per occupied orbital in Q2     ...    7.1 MB
Memory per occupied orbital in Q3     ...    0.1 MB
Total memory requirement per |i>      ...    7.1 MB
Max. Number of orbitals possible      ...   1121
Number of orbitals treated per batch  ...     20
Number of batches to be done          ...      1
Batch   0: i=    5 ...    24

---------------------------------------
MP2 TOTAL ENERGY:     -381.579773035 Eh
---------------------------------------

The final MP2 gradient
  0:   0.01049122  -0.00497162   0.00100186
  1:   0.00190777  -0.00012543   0.00044620
  2:  -0.02107015   0.00707999  -0.00158285
  3:  -0.00865523  -0.02592456   0.00175839
  4:  -0.00209232  -0.00159123   0.00234463
  5:   0.01005233   0.02701839   0.00006625
  6:  -0.00858970  -0.01520036   0.00336018
  7:   0.00691815   0.01842507  -0.00412238
  8:   0.00345739  -0.00437486  -0.00442193
  9:   0.00699969   0.02748007  -0.00061361
 10:   0.00182646   0.00242448   0.00122476
 11:  -0.00948028  -0.02845224  -0.00109866
 12:   0.01337141   0.00429331   0.00809802
 13:  -0.00056544   0.00091694  -0.00633434
 14:  -0.00457131  -0.00699797  -0.00012653

-----------------------------------
NORM OF THE MP2 GRADIENT:  0.071349
-----------------------------------

-------------------------   --------------------
FINAL SINGLE POINT ENERGY      -381.579773035384
-------------------------   --------------------


                            ***************************************
                            *     ORCA property calculations      *
                            ***************************************

                                    ---------------------
                                    Active property flags
                                    ---------------------
   (+) Dipole Moment


------------------------------------------------------------------------------
                       ORCA ELECTRIC PROPERTIES CALCULATION
------------------------------------------------------------------------------

Dipole Moment Calculation                       ... on
Quadrupole Moment Calculation                   ... off
Polarizability Calculation                      ... off
GBWName                                         ... 12h2o.su.etal.mol0,2,5,10,11-orca.engrad-mp2.def2tzvp.frozencore.gbw
Electron density file                           ... 12h2o.su.etal.mol0,2,5,10,11-orca.engrad-mp2.def2tzvp.frozencore.scfp
The origin for moment calculation is the CENTER OF MASS  = ( 0.721943,  0.371639  0.015104)

-------------
DIPOLE MOMENT
-------------
                                X             Y             Z
Electronic contribution:     -0.24858      -0.04840       0.12848
Nuclear contribution   :     -0.42069       0.67857      -2.09298
                        -----------------------------------------
Total Dipole Moment    :     -0.66927       0.63017      -1.96449
                        -----------------------------------------
Magnitude (a.u.)       :      2.16894
Magnitude (Debye)      :      5.51300



--------------------
Rotational spectrum 
--------------------
 
Rotational constants in cm-1:     0.057501     0.025423     0.019132 
Rotational constants in MHz :  1723.822552   762.164861   573.554254 

 Dipole components along the rotational axes: 
x,y,z [a.u.] :    -1.672891     1.368805    -0.179140 
x,y,z [Debye]:    -4.252152     3.479225    -0.455338 

 

                         *** MP2 UNRELAXED DENSITY ***

------------------------------------------------------------------------------
                       ORCA ELECTRIC PROPERTIES CALCULATION
------------------------------------------------------------------------------

Dipole Moment Calculation                       ... on
Quadrupole Moment Calculation                   ... off
Polarizability Calculation                      ... off
GBWName                                         ... 12h2o.su.etal.mol0,2,5,10,11-orca.engrad-mp2.def2tzvp.frozencore.gbw
Electron density file                           ... 12h2o.su.etal.mol0,2,5,10,11-orca.engrad-mp2.def2tzvp.frozencore.pmp2ur
The origin for moment calculation is the CENTER OF MASS  = ( 0.721943,  0.371639  0.015104)

-------------
DIPOLE MOMENT
-------------
                                X             Y             Z
Electronic contribution:     -0.24769      -0.05464       0.14851
Nuclear contribution   :     -0.42069       0.67857      -2.09298
                        -----------------------------------------
Total Dipole Moment    :     -0.66838       0.62394      -1.94447
                        -----------------------------------------
Magnitude (a.u.)       :      2.14872
Magnitude (Debye)      :      5.46160



--------------------
Rotational spectrum 
--------------------
 
Rotational constants in cm-1:     0.057501     0.025423     0.019132 
Rotational constants in MHz :  1723.822552   762.164861   573.554254 

 Dipole components along the rotational axes: 
x,y,z [a.u.] :    -1.655979     1.358296    -0.172486 
x,y,z [Debye]:    -4.209165     3.452513    -0.438425 

 

                           *** MP2 RELAXED DENSITY ***

------------------------------------------------------------------------------
                       ORCA ELECTRIC PROPERTIES CALCULATION
------------------------------------------------------------------------------

Dipole Moment Calculation                       ... on
Quadrupole Moment Calculation                   ... off
Polarizability Calculation                      ... off
GBWName                                         ... 12h2o.su.etal.mol0,2,5,10,11-orca.engrad-mp2.def2tzvp.frozencore.gbw
Electron density file                           ... 12h2o.su.etal.mol0,2,5,10,11-orca.engrad-mp2.def2tzvp.frozencore.pmp2re
The origin for moment calculation is the CENTER OF MASS  = ( 0.721943,  0.371639  0.015104)

-------------
DIPOLE MOMENT
-------------
                                X             Y             Z
Electronic contribution:     -0.25558      -0.05410       0.17301
Nuclear contribution   :     -0.42069       0.67857      -2.09298
                        -----------------------------------------
Total Dipole Moment    :     -0.67627       0.62447      -1.91997
                        -----------------------------------------
Magnitude (a.u.)       :      2.12922
Magnitude (Debye)      :      5.41205



--------------------
Rotational spectrum 
--------------------
 
Rotational constants in cm-1:     0.057501     0.025423     0.019132 
Rotational constants in MHz :  1723.822552   762.164861   573.554254 

 Dipole components along the rotational axes: 
x,y,z [a.u.] :    -1.632933     1.356895    -0.161095 
x,y,z [Debye]:    -4.150586     3.448952    -0.409471 

 

Timings for individual modules:

Sum of individual times         ...       21.243 sec (=   0.354 min)
GTO integral calculation        ...        0.781 sec (=   0.013 min)   3.7 %
SCF iterations                  ...        5.438 sec (=   0.091 min)  25.6 %
MP2 module                      ...       15.023 sec (=   0.250 min)  70.7 %
                             ****ORCA TERMINATED NORMALLY****
TOTAL RUN TIME: 0 days 0 hours 0 minutes 22 seconds 64 msec
