65
Energy:  -1653.66408389
O   -1.62245317  -0.43557894  -2.85502811
H   -2.00437851  -1.12163163  -2.30758260
H   -1.01886025   0.02706559  -2.27376442
O   -0.63416523   3.33481816  -1.37892354
H   -0.89043505   3.51866444  -0.47517679
H   -0.34702558   2.42179333  -1.36594900
O    3.92516149  -0.71104546  -1.49270528
H    3.87246771  -0.53406642  -0.55348559
H    3.31341493  -1.43326587  -1.63551865
O   -3.71550144   1.01869348  -0.20469497
H   -2.93263637   0.50878480   0.00350513
H   -3.50540962   1.45452091  -1.03061732
O    2.17264685   3.49054339  -1.54384372
H    1.22492725   3.59756368  -1.46256605
H    2.28067395   2.68637808  -2.05166273
O   -2.83521295   2.08854921  -2.56874688
H   -2.46023475   1.23489287  -2.78529725
H   -2.10002531   2.59181593  -2.21881318
O   -1.20167475   3.42758918   1.31484074
H   -0.57212260   2.70859180   1.36905053
H   -2.00809095   3.06892365   1.68535902
O   -0.07128088  -4.07935108  -0.66216447
H    0.14527894  -3.90571526   0.25390556
H    0.61218199  -3.63029224  -1.15961448
O    0.49557378  -3.08903949   1.83696498
H   -0.44053471  -3.05089825   2.03312306
H    0.65369661  -2.33177678   1.27324324
O   -2.28785983  -2.45235824  -0.79448269
H   -1.52065070  -3.02463395  -0.80555121
H   -1.99453222  -1.66663000  -0.33315645
O   -2.19079799  -0.31568907   2.97402535
H   -1.37031300  -0.09649121   3.41560040
H   -1.98118376  -0.26914293   2.04121927
O    2.20364505   1.00632970  -2.76007246
H    2.87614442   0.48426529  -2.32255081
H    1.43796090   0.93800721  -2.18972900
O   -3.42436673   2.09240042   2.27940509
H   -3.65475449   1.79953681   1.39771113
H   -3.02471924   1.32573011   2.69017312
O    0.32451797   0.40369564   3.78363026
H    0.99745804  -0.27670697   3.76275419
H    0.37845180   0.82103380   2.92389086
O   -2.22951130  -2.94789498   2.07051632
H   -2.43979629  -2.81747045   1.14585340
H   -2.30463209  -2.07629264   2.45897232
O    2.22151385  -1.56359008   3.41215750
H    1.65700007  -2.17982543   2.94545626
H    2.71555750  -1.12082318   2.72215012
O    1.82178402  -2.44449299  -1.77066921
H    1.50299592  -1.91264437  -1.04146208
H    1.44907150  -2.03168531  -2.54971160
O    3.35462306  -0.30161583   1.17048903
H    3.29088718   0.65343776   1.17698718
H    2.49838873  -0.59717828   0.86107432
O    2.77421706   2.38424823   0.93810919
H    2.67402636   2.84133805   0.10308670
H    1.89610905   2.06278001   1.14259969
O    0.84476753  -1.09464282  -3.92605920
H   -0.06086994  -0.90704401  -3.67936241
H    1.32943795  -0.30793691  -3.67621874
S   -0.01352244   0.18913486   0.17735000
O    0.35901596   1.21806490   1.18859582
O    0.91996705  -0.96776149   0.27878073
O   -1.40717511  -0.27358846   0.42977697
O    0.07410234   0.77982451  -1.18775354
