
                                 *****************
                                 * O   R   C   A *
                                 *****************

           --- An Ab Initio, DFT and Semiempirical electronic structure package ---

                  #######################################################
                  #                        -***-                        #
                  #          Department of theory and spectroscopy      #
                  #               Directorship: Frank Neese             #
                  #        Max Planck Institute fuer Kohlenforschung    #
                  #                Kaiser Wilhelm Platz 1               #
                  #                 D-45470 Muelheim/Ruhr               #
                  #                      Germany                        #
                  #                                                     #
                  #                  All rights reserved                #
                  #                        -***-                        #
                  #######################################################


                         Program Version 4.2.0 -  RELEASE  -


 With contributions from (in alphabetic order):
   Daniel Aravena         : Magnetic Suceptibility
   Michael Atanasov       : Ab Initio Ligand Field Theory (pilot matlab implementation)
   Alexander A. Auer      : GIAO ZORA, VPT2
   Ute Becker             : Parallelization
   Giovanni Bistoni       : ED, misc. LED, open-shell LED, HFLED
   Martin Brehm           : Molecular dynamics
   Dmytro Bykov           : SCF Hessian
   Vijay G. Chilkuri      : MRCI spin determinant printing, contributions to CSF-ICE
   Dipayan Datta          : RHF DLPNO-CCSD density
   Achintya Kumar Dutta   : EOM-CC, STEOM-CC
   Dmitry Ganyushin       : Spin-Orbit,Spin-Spin,Magnetic field MRCI
   Miquel Garcia          : C-PCM Hessian, Gaussian charge scheme
   Yang Guo               : DLPNO-NEVPT2, CIM, IAO-localization
   Andreas Hansen         : Spin unrestricted coupled pair/coupled cluster methods
   Benjamin Helmich-Paris : CASSCF linear response (MC-RPA)
   Lee Huntington         : MR-EOM, pCC
   Robert Izsak           : Overlap fitted RIJCOSX, COSX-SCS-MP3, EOM
   Christian Kollmar      : KDIIS, OOCD, Brueckner-CCSD(T), CCSD density
   Simone Kossmann        : Meta GGA functionals, TD-DFT gradient, OOMP2, MP2 Hessian
   Martin Krupicka        : AUTO-CI
   Lucas Lang             : DCDCAS
   Dagmar Lenk            : GEPOL surface, SMD
   Dimitrios Liakos       : Extrapolation schemes; Compound Job, initial MDCI parallelization
   Dimitrios Manganas     : Further ROCIS development; embedding schemes
   Dimitrios Pantazis     : SARC Basis sets
   Taras Petrenko         : DFT Hessian,TD-DFT gradient, ASA, ECA, R-Raman, ABS, FL, XAS/XES, NRVS
   Peter Pinski           : DLPNO-MP2, DLPNO-MP2 Gradient
   Christoph Reimann      : Effective Core Potentials
   Marius Retegan         : Local ZFS, SOC
   Christoph Riplinger    : Optimizer, TS searches, QM/MM, DLPNO-CCSD(T), (RO)-DLPNO pert. Triples
   Tobias Risthaus        : Range-separated hybrids, TD-DFT gradient, RPA, STAB
   Michael Roemelt        : Original ROCIS implementation
   Masaaki Saitow         : Open-shell DLPNO-CCSD energy and density
   Barbara Sandhoefer     : DKH picture change effects
   Avijit Sen             : IP-ROCIS
   Kantharuban Sivalingam : CASSCF convergence, NEVPT2, FIC-MRCI
   Bernardo de Souza      : ESD, SOC TD-DFT
   Georgi Stoychev        : AutoAux, RI-MP2 NMR
   Willem Van den Heuvel  : Paramagnetic NMR
   Boris Wezisla          : Elementary symmetry handling
   Frank Wennmohs         : Technical directorship


 We gratefully acknowledge several colleagues who have allowed us to
 interface, adapt or use parts of their codes:
   Stefan Grimme, W. Hujo, H. Kruse,             : VdW corrections, initial TS optimization,
                  C. Bannwarth                     DFT functionals, gCP, sTDA/sTD-DF
   Ed Valeev, F. Pavosevic, A. Kumar             : LibInt (2-el integral package), F12 methods
   Garnet Chan, S. Sharma, J. Yang, R. Olivares  : DMRG
   Ulf Ekstrom                                   : XCFun DFT Library
   Mihaly Kallay                                 : mrcc  (arbitrary order and MRCC methods)
   Andreas Klamt, Michael Diedenhofen            : otool_cosmo (COSMO solvation model)
   Jiri Pittner, Ondrej Demel                    : Mk-CCSD
   Frank Weinhold                                : gennbo (NPA and NBO analysis)
   Christopher J. Cramer and Donald G. Truhlar   : smd solvation model
   Lars Goerigk                                  : TD-DFT with DH, B97 family of functionals
   V. Asgeirsson, H. Jonsson                     : NEB implementation
   FAccTs GmbH                                   : IRC, NEB, NEB-TS, Multilevel, MM, QM/MM, CI optimization
   S Lehtola, MJT Oliveira, MAL Marques          : LibXC Library


 Your calculation uses the libint2 library for the computation of 2-el integrals
 For citations please refer to: http://libint.valeyev.net

 Your ORCA version has been built with support for libXC version: 4.2.3
 For citations please refer to: https://tddft.org/programs/libxc/

 This ORCA versions uses:
   CBLAS   interface :  Fast vector & matrix operations
   LAPACKE interface :  Fast linear algebra routines
   SCALAPACK package :  Parallel linear algebra routines


----- Orbital basis set information -----
Your calculation utilizes the basis: def2-TZVP
   F. Weigend and R. Ahlrichs, Phys. Chem. Chem. Phys. 7, 3297 (2005).

================================================================================
                                        WARNINGS
                       Please study these warnings very carefully!
================================================================================


WARNING: The frozen-core approximation for MP2-gradient calculations is turned on by default.

INFO   : the flag for use of LIBINT has been found!

================================================================================
                                       INPUT FILE
================================================================================
NAME = 12h2o.su.etal.mol0,2,6,7,8,10,11-orca.engrad-mp2.def2tzvp.frozencore.inp
|  1> # 12h2o.su.etal.mol0,2,6,7,8,10,11
|  2> ! MP2 def2-TZVP EnGrad TightSCF
|  3> 
|  4> %pal
|  5>     nprocs 6
|  6> end
|  7> 
|  8> %maxcore 8000
|  9> 
| 10> %scf
| 11>     ConvForced true
| 12> end
| 13> 
| 14> *xyz 0 1
| 15> O   1.794470000   0.923410000   2.768350000
| 16> H   2.338250000   1.359750000   3.430940000
| 17> H   0.879480000   1.303000000   2.865760000
| 18> O   0.923410000  -1.794470000  -2.768350000
| 19> H   1.359750000  -2.338250000  -3.430940000
| 20> H   1.303000000  -0.879480000  -2.865760000
| 21> O   1.737840000   0.885520000  -0.052730000
| 22> H   2.090180000   1.032320000   0.841890000
| 23> H   0.839590000   1.284090000  -0.017130000
| 24> O  -1.737840000  -0.885520000  -0.052730000
| 25> H  -2.090180000  -1.032320000   0.841890000
| 26> H  -0.839590000  -1.284090000  -0.017130000
| 27> O   1.752130000   0.741530000  -2.896280000
| 28> H   2.036450000   0.920500000  -1.984040000
| 29> H   0.921210000   1.242140000  -2.984230000
| 30> O  -0.923410000   1.794470000  -2.768350000
| 31> H  -1.359750000   2.338250000  -3.430940000
| 32> H  -1.303000000   0.879480000  -2.865760000
| 33> O  -0.741530000   1.752130000   2.896280000
| 34> H  -0.920500000   2.036450000   1.984040000
| 35> H  -1.242140000   0.921210000   2.984230000
| 36> *
| 37> 
| 38>                          ****END OF INPUT****
================================================================================

                     *******************************
                     * Energy+Gradient Calculation *
                     *******************************

---------------------------------
CARTESIAN COORDINATES (ANGSTROEM)
---------------------------------
  O      1.794470    0.923410    2.768350
  H      2.338250    1.359750    3.430940
  H      0.879480    1.303000    2.865760
  O      0.923410   -1.794470   -2.768350
  H      1.359750   -2.338250   -3.430940
  H      1.303000   -0.879480   -2.865760
  O      1.737840    0.885520   -0.052730
  H      2.090180    1.032320    0.841890
  H      0.839590    1.284090   -0.017130
  O     -1.737840   -0.885520   -0.052730
  H     -2.090180   -1.032320    0.841890
  H     -0.839590   -1.284090   -0.017130
  O      1.752130    0.741530   -2.896280
  H      2.036450    0.920500   -1.984040
  H      0.921210    1.242140   -2.984230
  O     -0.923410    1.794470   -2.768350
  H     -1.359750    2.338250   -3.430940
  H     -1.303000    0.879480   -2.865760
  O     -0.741530    1.752130    2.896280
  H     -0.920500    2.036450    1.984040
  H     -1.242140    0.921210    2.984230

----------------------------
CARTESIAN COORDINATES (A.U.)
----------------------------
  NO LB      ZA    FRAG     MASS         X           Y           Z
   0 O     8.0000    0    15.999    3.391057    1.744992    5.231423
   1 H     1.0000    0     1.008    4.418652    2.569555    6.483537
   2 H     1.0000    0     1.008    1.661976    2.462313    5.415502
   3 O     8.0000    0    15.999    1.744992   -3.391057   -5.231423
   4 H     1.0000    0     1.008    2.569555   -4.418652   -6.483537
   5 H     1.0000    0     1.008    2.462313   -1.661976   -5.415502
   6 O     8.0000    0    15.999    3.284042    1.673390   -0.099645
   7 H     1.0000    0     1.008    3.949868    1.950802    1.590942
   8 H     1.0000    0     1.008    1.586595    2.426578   -0.032371
   9 O     8.0000    0    15.999   -3.284042   -1.673390   -0.099645
  10 H     1.0000    0     1.008   -3.949868   -1.950802    1.590942
  11 H     1.0000    0     1.008   -1.586595   -2.426578   -0.032371
  12 O     8.0000    0    15.999    3.311046    1.401289   -5.473176
  13 H     1.0000    0     1.008    3.848333    1.739493   -3.749292
  14 H     1.0000    0     1.008    1.740835    2.347304   -5.639377
  15 O     8.0000    0    15.999   -1.744992    3.391057   -5.231423
  16 H     1.0000    0     1.008   -2.569555    4.418652   -6.483537
  17 H     1.0000    0     1.008   -2.462313    1.661976   -5.415502
  18 O     8.0000    0    15.999   -1.401289    3.311046    5.473176
  19 H     1.0000    0     1.008   -1.739493    3.848333    3.749292
  20 H     1.0000    0     1.008   -2.347304    1.740835    5.639377

--------------------------------
INTERNAL COORDINATES (ANGSTROEM)
--------------------------------
 O      0   0   0     0.000000000000     0.00000000     0.00000000
 H      1   0   0     0.961828878803     0.00000000     0.00000000
 H      1   2   0     0.995381322057   106.21731035     0.00000000
 O      1   2   3     6.229017908788   152.78811022   148.20682389
 H      4   1   2     0.961828878803   142.70840549    32.77530239
 H      4   1   2     0.995381322057    68.44287781   304.10042923
 O      1   2   3     2.821902722526   134.92023192   114.47749497
 H      7   1   2     0.972645187106    21.75017499    16.91177088
 H      7   1   2     0.983350632989    88.66470709   242.75499327
 O      9   7   1     3.369216573181   115.93827062   267.14657005
 H     10   9   7     0.972645187106   111.38238039    99.87107073
 H     10   9   7     0.983350632989    64.01297461     4.61512567
 O      6   4   1     1.682356278379   171.61043709   305.15113011
 H     13   6   4     0.972136791249   103.79460456    70.64587838
 H     13   6   4     0.974050112161   105.61118924   321.69395179
 O     15  13   6     1.937600461318   161.54375213    39.05245435
 H     16  15  13     0.961828878803   121.08403650   202.75419110
 H     16  15  13     0.995381322057    95.17003195   315.21089530
 O      3   1   2     1.682356278379   171.61043709   195.73896161
 H     19   3   1     0.972136791249   103.79460456   289.35412162
 H     19   3   1     0.974050112161   105.61118924    38.30604821

---------------------------
INTERNAL COORDINATES (A.U.)
---------------------------
 O      0   0   0     0.000000000000     0.00000000     0.00000000
 H      1   0   0     1.817593168635     0.00000000     0.00000000
 H      1   2   0     1.880998097508   106.21731035     0.00000000
 O      1   2   3    11.771137930900   152.78811022   148.20682389
 H      4   1   2     1.817593168635   142.70840549    32.77530239
 H      4   1   2     1.880998097508    68.44287781   304.10042923
 O      1   2   3     5.332623322141   134.92023192   114.47749497
 H      7   1   2     1.838033029106    21.75017499    16.91177088
 H      7   1   2     1.858263389967    88.66470709   242.75499327
 O      9   7   1     6.366896609181   115.93827062   267.14657005
 H     10   9   7     1.838033029106   111.38238039    99.87107073
 H     10   9   7     1.858263389967    64.01297461     4.61512567
 O      6   4   1     3.179192625819   171.61043709   305.15113011
 H     13   6   4     1.837072300170   103.79460456    70.64587838
 H     13   6   4     1.840687952699   105.61118924   321.69395179
 O     15  13   6     3.661534228851   161.54375213    39.05245435
 H     16  15  13     1.817593168635   121.08403650   202.75419110
 H     16  15  13     1.880998097508    95.17003195   315.21089530
 O      3   1   2     3.179192625819   171.61043709   195.73896161
 H     19   3   1     1.837072300170   103.79460456   289.35412162
 H     19   3   1     1.840687952699   105.61118924    38.30604821

---------------------
BASIS SET INFORMATION
---------------------
There are 2 groups of distinct atoms

 Group   1 Type O   : 11s6p2d1f contracted to 5s3p2d1f pattern {62111/411/11/1}
 Group   2 Type H   : 5s1p contracted to 3s1p pattern {311/1}

Atom   0O    basis set group =>   1
Atom   1H    basis set group =>   2
Atom   2H    basis set group =>   2
Atom   3O    basis set group =>   1
Atom   4H    basis set group =>   2
Atom   5H    basis set group =>   2
Atom   6O    basis set group =>   1
Atom   7H    basis set group =>   2
Atom   8H    basis set group =>   2
Atom   9O    basis set group =>   1
Atom  10H    basis set group =>   2
Atom  11H    basis set group =>   2
Atom  12O    basis set group =>   1
Atom  13H    basis set group =>   2
Atom  14H    basis set group =>   2
Atom  15O    basis set group =>   1
Atom  16H    basis set group =>   2
Atom  17H    basis set group =>   2
Atom  18O    basis set group =>   1
Atom  19H    basis set group =>   2
Atom  20H    basis set group =>   2


           ************************************************************
           *        Program running with 6 parallel MPI-processes     *
           *              working on a common directory               *
           ************************************************************
------------------------------------------------------------------------------
                           ORCA GTO INTEGRAL CALCULATION
------------------------------------------------------------------------------

                         BASIS SET STATISTICS AND STARTUP INFO

 # of primitive gaussian shells          ...  224
 # of primitive gaussian functions       ...  434
 # of contracted shells                  ...  133
 # of contracted basis functions         ...  301
 Highest angular momentum                ...    3
 Maximum contraction depth               ...    6
 Integral package used                   ... LIBINT
 Integral threshhold            Thresh   ...  2.500e-11
 Primitive cut-off              TCut     ...  2.500e-12


------------------------------ INTEGRAL EVALUATION ----------------------------


 * One electron integrals 
 Pre-screening matrix                    ... done
 Shell pair data                         ... done (   0.002 sec)



           ************************************************************
           *        Program running with 6 parallel MPI-processes     *
           *              working on a common directory               *
           ************************************************************
-------------------------------------------------------------------------------
                                 ORCA SCF
-------------------------------------------------------------------------------

------------
SCF SETTINGS
------------
Hamiltonian:
 Ab initio Hamiltonian  Method          .... Hartree-Fock(GTOs)


General Settings:
 Integral files         IntName         .... 12h2o.su.etal.mol0,2,6,7,8,10,11-orca.engrad-mp2.def2tzvp.frozencore
 Hartree-Fock type      HFTyp           .... RHF
 Total Charge           Charge          ....    0
 Multiplicity           Mult            ....    1
 Number of Electrons    NEL             ....   70
 Basis Dimension        Dim             ....  301
 Nuclear Repulsion      ENuc            ....    339.9470468645 Eh

Convergence Acceleration:
 DIIS                   CNVDIIS         .... on
   Start iteration      DIISMaxIt       ....    12
   Startup error        DIISStart       ....  0.200000
   # of expansion vecs  DIISMaxEq       ....     5
   Bias factor          DIISBfac        ....   1.050
   Max. coefficient     DIISMaxC        ....  10.000
 Newton-Raphson         CNVNR           .... off
 SOSCF                  CNVSOSCF        .... on
   Start iteration      SOSCFMaxIt      ....   150
   Startup grad/error   SOSCFStart      ....  0.003300
 Level Shifting         CNVShift        .... on
   Level shift para.    LevelShift      ....    0.2500
   Turn off err/grad.   ShiftErr        ....    0.0010
 Zerner damping         CNVZerner       .... off
 Static damping         CNVDamp         .... on
   Fraction old density DampFac         ....    0.7000
   Max. Damping (<1)    DampMax         ....    0.9800
   Min. Damping (>=0)   DampMin         ....    0.0000
   Turn off err/grad.   DampErr         ....    0.1000
 Fernandez-Rico         CNVRico         .... off

SCF Procedure:
 Maximum # iterations   MaxIter         ....   125
 SCF integral mode      SCFMode         .... Direct
   Integral package                     .... LIBINT
 Reset frequency        DirectResetFreq ....    20
 Integral Threshold     Thresh          ....  2.500e-11 Eh
 Primitive CutOff       TCut            ....  2.500e-12 Eh

Convergence Tolerance:
 Convergence Check Mode ConvCheckMode   .... Total+1el-Energy
 Convergence forced     ConvForced      .... 1
 Energy Change          TolE            ....  1.000e-08 Eh
 1-El. energy change                    ....  1.000e-05 Eh
 Orbital Gradient       TolG            ....  1.000e-05
 Orbital Rotation angle TolX            ....  1.000e-05
 DIIS Error             TolErr          ....  5.000e-07


Diagonalization of the overlap matrix:
Smallest eigenvalue                        ... 4.251e-03
Time for diagonalization                   ...    0.020 sec
Threshold for overlap eigenvalues          ... 1.000e-08
Number of eigenvalues below threshold      ... 0
Time for construction of square roots      ...    0.014 sec
Total time needed                          ...    0.034 sec

-------------------
DFT GRID GENERATION
-------------------

General Integration Accuracy     IntAcc      ...  4.340
Radial Grid Type                 RadialGrid  ... Gauss-Chebyshev
Angular Grid (max. acc.)         AngularGrid ... Lebedev-110
Angular grid pruning method      GridPruning ... 3 (G Style)
Weight generation scheme         WeightScheme... Becke
Basis function cutoff            BFCut       ...    1.0000e-11
Integration weight cutoff        WCut        ...    1.0000e-14
Grids for H and He will be reduced by one unit

# of grid points (after initial pruning)     ...  23128 (   0.0 sec)
# of grid points (after weights+screening)   ...  21818 (   0.0 sec)
nearest neighbour list constructed           ...    0.0 sec
Grid point re-assignment to atoms done       ...    0.0 sec
Grid point division into batches done        ...    0.0 sec
Reduced shell lists constructed in    0.0 sec

Total number of grid points                  ...    21818
Total number of batches                      ...      353
Average number of points per batch           ...       61
Average number of grid points per atom       ...     1039
Average number of shells per batch           ...    58.92 (44.30%)
Average number of basis functions per batch  ...   118.22 (39.27%)
Average number of large shells per batch     ...    39.35 (66.79%)
Average number of large basis fcns per batch ...    79.25 (67.04%)
Maximum spatial batch extension              ...  12.83, 20.10, 12.41 au
Average spatial batch extension              ...   0.58,  0.67,  0.56 au

Time for grid setup =    0.069 sec

------------------------------
INITIAL GUESS: MODEL POTENTIAL
------------------------------
Loading Hartree-Fock densities                     ... done
Calculating cut-offs                               ... done
Setting up the integral package                    ... done
Initializing the effective Hamiltonian             ... done
Starting the Coulomb interaction                   ... done (   0.0 sec)
Reading the grid                                   ... done
Mapping shells                                     ... done
Starting the XC term evaluation                    ... done (   0.0 sec)
Transforming the Hamiltonian                       ... done (   0.0 sec)
Diagonalizing the Hamiltonian                      ... done (   0.0 sec)
Back transforming the eigenvectors                 ... done (   0.0 sec)
Now organizing SCF variables                       ... done
                      ------------------
                      INITIAL GUESS DONE (   0.2 sec)
                      ------------------
--------------
SCF ITERATIONS
--------------
ITER       Energy         Delta-E        Max-DP      RMS-DP      [F,P]     Damp
               ***  Starting incremental Fock matrix formation  ***
  0   -531.8003046194   0.000000000000 0.04401361  0.00090380  0.3500036 0.7000
  1   -532.0491413627  -0.248836743282 0.02940498  0.00062493  0.2166167 0.7000
                               ***Turning on DIIS***
  2   -532.1804247730  -0.131283410373 0.01648326  0.00034712  0.1638224 0.7000
  3   -533.3694933890  -1.189068615968 0.00772475  0.00015664  0.1218240 0.7000
  4   -533.1274178827   0.242075506310 0.01716220  0.00036153  0.0861957 0.0000
  5   -532.4823343779   0.645083504841 0.00205818  0.00005827  0.0058115 0.0000
                      *** Initiating the SOSCF procedure ***
                           *** Shutting down DIIS ***
                      *** Re-Reading the Fockian *** 
                      *** Removing any level shift *** 
ITER      Energy       Delta-E        Grad      Rot      Max-DP    RMS-DP
  6   -532.44507122   0.0372631541  0.000920  0.000920  0.001330  0.000035
               *** Restarting incremental Fock matrix formation ***
  7   -532.43333835   0.0117328757  0.000351  0.000483  0.000655  0.000016
  8   -532.43334894  -0.0000105922  0.000128  0.000369  0.000482  0.000013
  9   -532.43335148  -0.0000025425  0.000065  0.000052  0.000110  0.000002
 10   -532.43335170  -0.0000002159  0.000010  0.000008  0.000018  0.000000
                  ***Gradient check signals convergence***
              ***Rediagonalizing the Fockian in SOSCF/NRSCF***

               *****************************************************
               *                     SUCCESS                       *
               *           SCF CONVERGED AFTER  11 CYCLES          *
               *****************************************************


----------------
TOTAL SCF ENERGY
----------------

Total Energy       :         -532.43335170 Eh          -14488.24807 eV

Components:
Nuclear Repulsion  :          339.94704686 Eh            9250.42943 eV
Electronic Energy  :         -872.38039857 Eh          -23738.67750 eV
One Electron Energy:        -1413.09200991 Eh          -38452.18846 eV
Two Electron Energy:          540.71161135 Eh           14713.51097 eV

Virial components:
Potential Energy   :        -1064.11819803 Eh          -28956.12827 eV
Kinetic Energy     :          531.68484633 Eh           14467.88020 eV
Virial Ratio       :            2.00140780


---------------
SCF CONVERGENCE
---------------

  Last Energy change         ...   -4.6135e-09  Tolerance :   1.0000e-08
  Last MAX-Density change    ...    5.5368e-06  Tolerance :   1.0000e-07
  Last RMS-Density change    ...    1.4068e-07  Tolerance :   5.0000e-09
  Last Orbital Gradient      ...    2.3741e-06  Tolerance :   1.0000e-05
  Last Orbital Rotation      ...    2.9239e-06  Tolerance :   1.0000e-05

             **** THE GBW FILE WAS UPDATED (12h2o.su.etal.mol0,2,6,7,8,10,11-orca.engrad-mp2.def2tzvp.frozencore.gbw) ****
             **** DENSITY FILE WAS UPDATED (12h2o.su.etal.mol0,2,6,7,8,10,11-orca.engrad-mp2.def2tzvp.frozencore.scfp) ****
             **** ENERGY FILE WAS UPDATED (12h2o.su.etal.mol0,2,6,7,8,10,11-orca.engrad-mp2.def2tzvp.frozencore.en.tmp) ****
             **** THE GBW FILE WAS UPDATED (12h2o.su.etal.mol0,2,6,7,8,10,11-orca.engrad-mp2.def2tzvp.frozencore.gbw) ****
             **** DENSITY FILE WAS UPDATED (12h2o.su.etal.mol0,2,6,7,8,10,11-orca.engrad-mp2.def2tzvp.frozencore.scfp) ****
----------------
ORBITAL ENERGIES
----------------

  NO   OCC          E(Eh)            E(eV) 
   0   2.0000     -20.617495      -561.0306 
   1   2.0000     -20.584208      -560.1248 
   2   2.0000     -20.568708      -559.7030 
   3   2.0000     -20.554073      -559.3048 
   4   2.0000     -20.550612      -559.2106 
   5   2.0000     -20.528997      -558.6224 
   6   2.0000     -20.498847      -557.8020 
   7   2.0000      -1.402922       -38.1754 
   8   2.0000      -1.362186       -37.0670 
   9   2.0000      -1.344478       -36.5851 
  10   2.0000      -1.341670       -36.5087 
  11   2.0000      -1.330477       -36.2041 
  12   2.0000      -1.319184       -35.8968 
  13   2.0000      -1.279936       -34.8288 
  14   2.0000      -0.760097       -20.6833 
  15   2.0000      -0.728994       -19.8369 
  16   2.0000      -0.725012       -19.7286 
  17   2.0000      -0.706122       -19.2146 
  18   2.0000      -0.702050       -19.1037 
  19   2.0000      -0.684510       -18.6265 
  20   2.0000      -0.665776       -18.1167 
  21   2.0000      -0.640907       -17.4400 
  22   2.0000      -0.606389       -16.5007 
  23   2.0000      -0.593578       -16.1521 
  24   2.0000      -0.584526       -15.9058 
  25   2.0000      -0.578698       -15.7472 
  26   2.0000      -0.557814       -15.1789 
  27   2.0000      -0.541359       -14.7311 
  28   2.0000      -0.530218       -14.4280 
  29   2.0000      -0.516122       -14.0444 
  30   2.0000      -0.511712       -13.9244 
  31   2.0000      -0.502070       -13.6620 
  32   2.0000      -0.496119       -13.5001 
  33   2.0000      -0.468958       -12.7610 
  34   2.0000      -0.449711       -12.2373 
  35   0.0000       0.075536         2.0554 
  36   0.0000       0.120276         3.2729 
  37   0.0000       0.134696         3.6653 
  38   0.0000       0.154992         4.2175 
  39   0.0000       0.164030         4.4635 
  40   0.0000       0.187142         5.0924 
  41   0.0000       0.211821         5.7639 
  42   0.0000       0.219140         5.9631 
  43   0.0000       0.232390         6.3237 
  44   0.0000       0.267635         7.2827 
  45   0.0000       0.279813         7.6141 
  46   0.0000       0.315000         8.5716 
  47   0.0000       0.331366         9.0169 
  48   0.0000       0.364333         9.9140 
  49   0.0000       0.441746        12.0205 
  50   0.0000       0.458859        12.4862 
  51   0.0000       0.474825        12.9206 
  52   0.0000       0.507138        13.7999 
  53   0.0000       0.512159        13.9366 
  54   0.0000       0.518919        14.1205 
  55   0.0000       0.531985        14.4761 
  56   0.0000       0.557863        15.1802 
  57   0.0000       0.562214        15.2986 
  58   0.0000       0.571082        15.5399 
  59   0.0000       0.572479        15.5779 
  60   0.0000       0.581241        15.8164 
  61   0.0000       0.590252        16.0616 
  62   0.0000       0.595757        16.2114 
  63   0.0000       0.617697        16.8084 
  64   0.0000       0.631986        17.1972 
  65   0.0000       0.634557        17.2672 
  66   0.0000       0.641535        17.4571 
  67   0.0000       0.657893        17.9022 
  68   0.0000       0.670748        18.2520 
  69   0.0000       0.684781        18.6339 
  70   0.0000       0.700623        19.0649 
  71   0.0000       0.705977        19.2106 
  72   0.0000       0.730279        19.8719 
  73   0.0000       0.739128        20.1127 
  74   0.0000       0.757682        20.6176 
  75   0.0000       0.770729        20.9726 
  76   0.0000       0.774898        21.0861 
  77   0.0000       0.782862        21.3028 
  78   0.0000       0.795427        21.6447 
  79   0.0000       0.804641        21.8954 
  80   0.0000       0.818438        22.2708 
  81   0.0000       0.823287        22.4028 
  82   0.0000       0.858907        23.3720 
  83   0.0000       0.884886        24.0790 
  84   0.0000       0.915483        24.9116 
  85   0.0000       0.926816        25.2199 
  86   0.0000       0.969742        26.3880 
  87   0.0000       0.982773        26.7426 
  88   0.0000       1.016430        27.6585 
  89   0.0000       1.046478        28.4761 
  90   0.0000       1.114035        30.3144 
  91   0.0000       1.338179        36.4137 
  92   0.0000       1.368199        37.2306 
  93   0.0000       1.392712        37.8976 
  94   0.0000       1.398885        38.0656 
  95   0.0000       1.412749        38.4429 
  96   0.0000       1.428996        38.8850 
  97   0.0000       1.433183        38.9989 
  98   0.0000       1.441111        39.2146 
  99   0.0000       1.452833        39.5336 
 100   0.0000       1.466633        39.9091 
 101   0.0000       1.479393        40.2563 
 102   0.0000       1.486818        40.4584 
 103   0.0000       1.517751        41.3001 
 104   0.0000       1.530853        41.6566 
 105   0.0000       1.542048        41.9613 
 106   0.0000       1.561154        42.4812 
 107   0.0000       1.577641        42.9298 
 108   0.0000       1.585975        43.1566 
 109   0.0000       1.619762        44.0760 
 110   0.0000       1.629779        44.3485 
 111   0.0000       1.677289        45.6414 
 112   0.0000       1.764017        48.0013 
 113   0.0000       1.797693        48.9177 
 114   0.0000       1.808014        49.1986 
 115   0.0000       1.850082        50.3433 
 116   0.0000       1.870383        50.8957 
 117   0.0000       1.877906        51.1004 
 118   0.0000       1.881922        51.2097 
 119   0.0000       1.922145        52.3042 
 120   0.0000       1.930096        52.5206 
 121   0.0000       1.960138        53.3381 
 122   0.0000       1.969211        53.5850 
 123   0.0000       1.983538        53.9748 
 124   0.0000       1.991983        54.2046 
 125   0.0000       2.012390        54.7599 
 126   0.0000       2.023575        55.0643 
 127   0.0000       2.024291        55.0838 
 128   0.0000       2.082207        56.6597 
 129   0.0000       2.103111        57.2286 
 130   0.0000       2.130326        57.9691 
 131   0.0000       2.151200        58.5371 
 132   0.0000       2.188855        59.5618 
 133   0.0000       2.221477        60.4495 
 134   0.0000       2.273856        61.8748 
 135   0.0000       2.296466        62.4900 
 136   0.0000       2.310433        62.8701 
 137   0.0000       2.315608        63.0109 
 138   0.0000       2.321787        63.1790 
 139   0.0000       2.332233        63.4633 
 140   0.0000       2.344212        63.7892 
 141   0.0000       2.357307        64.1456 
 142   0.0000       2.360291        64.2268 
 143   0.0000       2.368140        64.4404 
 144   0.0000       2.377290        64.6894 
 145   0.0000       2.389001        65.0080 
 146   0.0000       2.401028        65.3353 
 147   0.0000       2.415597        65.7317 
 148   0.0000       2.444127        66.5081 
 149   0.0000       2.485354        67.6299 
 150   0.0000       2.490983        67.7831 
 151   0.0000       2.515551        68.4516 
 152   0.0000       2.550122        69.3924 
 153   0.0000       2.573236        70.0213 
 154   0.0000       2.575833        70.0920 
 155   0.0000       2.590225        70.4836 
 156   0.0000       2.609363        71.0044 
 157   0.0000       2.627509        71.4982 
 158   0.0000       2.642405        71.9035 
 159   0.0000       2.651264        72.1446 
 160   0.0000       2.673893        72.7603 
 161   0.0000       2.677337        72.8540 
 162   0.0000       2.686808        73.1118 
 163   0.0000       2.710400        73.7537 
 164   0.0000       2.741665        74.6045 
 165   0.0000       2.762779        75.1790 
 166   0.0000       2.782292        75.7100 
 167   0.0000       2.823814        76.8399 
 168   0.0000       2.881972        78.4224 
 169   0.0000       2.898534        78.8731 
 170   0.0000       2.911191        79.2175 
 171   0.0000       2.926021        79.6211 
 172   0.0000       2.938386        79.9575 
 173   0.0000       2.956044        80.4380 
 174   0.0000       2.957152        80.4682 
 175   0.0000       2.992076        81.4185 
 176   0.0000       3.005997        81.7973 
 177   0.0000       3.011766        81.9543 
 178   0.0000       3.017358        82.1065 
 179   0.0000       3.046232        82.8922 
 180   0.0000       3.059986        83.2665 
 181   0.0000       3.074993        83.6748 
 182   0.0000       3.099609        84.3446 
 183   0.0000       3.101875        84.4063 
 184   0.0000       3.130302        85.1798 
 185   0.0000       3.135535        85.3223 
 186   0.0000       3.147835        85.6569 
 187   0.0000       3.175610        86.4128 
 188   0.0000       3.188558        86.7651 
 189   0.0000       3.265768        88.8661 
 190   0.0000       3.274064        89.0918 
 191   0.0000       3.300849        89.8207 
 192   0.0000       3.338599        90.8479 
 193   0.0000       3.369191        91.6803 
 194   0.0000       3.482002        94.7501 
 195   0.0000       3.555963        96.7627 
 196   0.0000       3.980889       108.3255 
 197   0.0000       3.985334       108.4465 
 198   0.0000       4.021042       109.4181 
 199   0.0000       4.060400       110.4891 
 200   0.0000       4.091886       111.3459 
 201   0.0000       4.096165       111.4623 
 202   0.0000       4.161300       113.2347 
 203   0.0000       4.256096       115.8142 
 204   0.0000       4.293278       116.8260 
 205   0.0000       4.300051       117.0103 
 206   0.0000       4.327650       117.7613 
 207   0.0000       4.357792       118.5815 
 208   0.0000       4.369640       118.9039 
 209   0.0000       4.439463       120.8039 
 210   0.0000       5.491404       149.4287 
 211   0.0000       5.526917       150.3951 
 212   0.0000       5.542898       150.8299 
 213   0.0000       5.553966       151.1311 
 214   0.0000       5.560300       151.3035 
 215   0.0000       5.571734       151.6146 
 216   0.0000       5.606110       152.5500 
 217   0.0000       5.624382       153.0472 
 218   0.0000       5.630259       153.2071 
 219   0.0000       5.645495       153.6217 
 220   0.0000       5.647912       153.6875 
 221   0.0000       5.672208       154.3486 
 222   0.0000       5.696855       155.0193 
 223   0.0000       5.722127       155.7070 
 224   0.0000       5.778392       157.2380 
 225   0.0000       5.784975       157.4172 
 226   0.0000       5.793116       157.6387 
 227   0.0000       5.811564       158.1407 
 228   0.0000       5.827751       158.5812 
 229   0.0000       5.829138       158.6189 
 230   0.0000       5.831615       158.6863 
 231   0.0000       5.842293       158.9769 
 232   0.0000       5.845245       159.0572 
 233   0.0000       5.850664       159.2047 
 234   0.0000       5.868685       159.6950 
 235   0.0000       5.870695       159.7497 
 236   0.0000       5.883376       160.0948 
 237   0.0000       5.885945       160.1647 
 238   0.0000       5.895935       160.4365 
 239   0.0000       5.903191       160.6340 
 240   0.0000       5.909260       160.7991 
 241   0.0000       5.922957       161.1718 
 242   0.0000       5.929757       161.3569 
 243   0.0000       5.935644       161.5171 
 244   0.0000       5.989185       162.9740 
 245   0.0000       6.411342       174.4615 
 246   0.0000       6.432326       175.0325 
 247   0.0000       6.464280       175.9020 
 248   0.0000       6.469479       176.0435 
 249   0.0000       6.479888       176.3267 
 250   0.0000       6.516847       177.3324 
 251   0.0000       6.534114       177.8023 
 252   0.0000       6.660984       181.2546 
 253   0.0000       6.676928       181.6884 
 254   0.0000       6.687181       181.9675 
 255   0.0000       6.692776       182.1197 
 256   0.0000       6.725687       183.0153 
 257   0.0000       6.729407       183.1165 
 258   0.0000       6.780238       184.4997 
 259   0.0000       6.822345       185.6454 
 260   0.0000       6.823769       185.6842 
 261   0.0000       6.851483       186.4383 
 262   0.0000       6.864462       186.7915 
 263   0.0000       6.868370       186.8979 
 264   0.0000       6.875583       187.0941 
 265   0.0000       6.880829       187.2369 
 266   0.0000       6.894866       187.6188 
 267   0.0000       6.897708       187.6962 
 268   0.0000       6.908377       187.9865 
 269   0.0000       6.924602       188.4280 
 270   0.0000       6.932079       188.6315 
 271   0.0000       6.938887       188.8167 
 272   0.0000       6.941437       188.8861 
 273   0.0000       6.956599       189.2987 
 274   0.0000       6.967856       189.6050 
 275   0.0000       6.986172       190.1034 
 276   0.0000       7.019445       191.0088 
 277   0.0000       7.022985       191.1051 
 278   0.0000       7.042306       191.6309 
 279   0.0000       7.132564       194.0869 
 280   0.0000       7.343633       199.8304 
 281   0.0000       7.360599       200.2921 
 282   0.0000       7.366341       200.4483 
 283   0.0000       7.394897       201.2254 
 284   0.0000       7.453346       202.8159 
 285   0.0000       7.470762       203.2898 
 286   0.0000       7.473838       203.3735 
 287   0.0000       7.484806       203.6719 
 288   0.0000       7.513892       204.4634 
 289   0.0000       7.538369       205.1294 
 290   0.0000       7.549859       205.4421 
 291   0.0000       7.591399       206.5725 
 292   0.0000       7.606233       206.9761 
 293   0.0000       7.622296       207.4132 
 294   0.0000      44.837289      1220.0847 
 295   0.0000      44.876622      1221.1550 
 296   0.0000      44.890330      1221.5280 
 297   0.0000      44.968855      1223.6647 
 298   0.0000      44.979564      1223.9562 
 299   0.0000      45.018986      1225.0289 
 300   0.0000      45.069268      1226.3971 

                    ********************************
                    * MULLIKEN POPULATION ANALYSIS *
                    ********************************

-----------------------
MULLIKEN ATOMIC CHARGES
-----------------------
   0 O :   -0.764045
   1 H :    0.348856
   2 H :    0.393704
   3 O :   -0.767351
   4 H :    0.327108
   5 H :    0.399955
   6 O :   -0.739793
   7 H :    0.398510
   8 H :    0.334899
   9 O :   -0.708768
  10 H :    0.329129
  11 H :    0.380039
  12 O :   -0.759622
  13 H :    0.401005
  14 H :    0.376955
  15 O :   -0.734775
  16 H :    0.359773
  17 H :    0.389108
  18 O :   -0.703406
  19 H :    0.370516
  20 H :    0.368204
Sum of atomic charges:   -0.0000000

--------------------------------
MULLIKEN REDUCED ORBITAL CHARGES
--------------------------------
  0 O s       :     3.809140  s :     3.809140
      pz      :     1.709598  p :     4.930336
      px      :     1.409714
      py      :     1.811024
      dz2     :     0.003628  d :     0.023136
      dxz     :     0.004181
      dyz     :     0.005512
      dx2y2   :     0.002302
      dxy     :     0.007513
      f0      :     0.000079  f :     0.001433
      f+1     :     0.000312
      f-1     :     0.000177
      f+2     :     0.000070
      f-2     :     0.000348
      f+3     :     0.000090
      f-3     :     0.000357
  1 H s       :     0.605379  s :     0.605379
      pz      :     0.016811  p :     0.045765
      px      :     0.013939
      py      :     0.015016
  2 H s       :     0.549714  s :     0.549714
      pz      :     0.010485  p :     0.056582
      px      :     0.031893
      py      :     0.014205
  3 O s       :     3.808517  s :     3.808517
      pz      :     1.715801  p :     4.933875
      px      :     1.801299
      py      :     1.416776
      dz2     :     0.004021  d :     0.023498
      dxz     :     0.005470
      dyz     :     0.004746
      dx2y2   :     0.002260
      dxy     :     0.007000
      f0      :     0.000087  f :     0.001461
      f+1     :     0.000184
      f-1     :     0.000326
      f+2     :     0.000069
      f-2     :     0.000359
      f+3     :     0.000348
      f-3     :     0.000088
  4 H s       :     0.626721  s :     0.626721
      pz      :     0.017110  p :     0.046171
      px      :     0.015160
      py      :     0.013901
  5 H s       :     0.543071  s :     0.543071
      pz      :     0.010567  p :     0.056973
      px      :     0.013858
      py      :     0.032548
  6 O s       :     3.808443  s :     3.808443
      pz      :     1.597298  p :     4.906241
      px      :     1.434297
      py      :     1.874646
      dz2     :     0.010001  d :     0.023639
      dxz     :     0.002447
      dyz     :     0.002431
      dx2y2   :     0.003137
      dxy     :     0.005624
      f0      :     0.000180  f :     0.001469
      f+1     :     0.000429
      f-1     :     0.000123
      f+2     :     0.000079
      f-2     :     0.000036
      f+3     :     0.000130
      f-3     :     0.000493
  7 H s       :     0.552116  s :     0.552116
      pz      :     0.025171  p :     0.049374
      px      :     0.011183
      py      :     0.013020
  8 H s       :     0.621652  s :     0.621652
      pz      :     0.009955  p :     0.043450
      px      :     0.017958
      py      :     0.015537
  9 O s       :     3.819269  s :     3.819269
      pz      :     1.515323  p :     4.861729
      px      :     1.472493
      py      :     1.873913
      dz2     :     0.011927  d :     0.026267
      dxz     :     0.003074
      dyz     :     0.002696
      dx2y2   :     0.003263
      dxy     :     0.005307
      f0      :     0.000184  f :     0.001503
      f+1     :     0.000457
      f-1     :     0.000130
      f+2     :     0.000077
      f-2     :     0.000041
      f+3     :     0.000126
      f-3     :     0.000487
 10 H s       :     0.625647  s :     0.625647
      pz      :     0.018412  p :     0.045224
      px      :     0.012208
      py      :     0.014604
 11 H s       :     0.577063  s :     0.577063
      pz      :     0.009729  p :     0.042898
      px      :     0.018686
      py      :     0.014482
 12 O s       :     3.791727  s :     3.791727
      pz      :     1.574176  p :     4.942568
      px      :     1.580501
      py      :     1.787892
      dz2     :     0.011523  d :     0.023974
      dxz     :     0.001167
      dyz     :     0.002292
      dx2y2   :     0.002311
      dxy     :     0.006681
      f0      :     0.000229  f :     0.001354
      f+1     :     0.000377
      f-1     :     0.000150
      f+2     :     0.000051
      f-2     :     0.000055
      f+3     :     0.000049
      f-3     :     0.000442
 13 H s       :     0.551306  s :     0.551306
      pz      :     0.024800  p :     0.047689
      px      :     0.011012
      py      :     0.011877
 14 H s       :     0.573317  s :     0.573317
      pz      :     0.010044  p :     0.049728
      px      :     0.023816
      py      :     0.015868
 15 O s       :     3.809509  s :     3.809509
      pz      :     1.733110  p :     4.899336
      px      :     1.783847
      py      :     1.382379
      dz2     :     0.004326  d :     0.024427
      dxz     :     0.005516
      dyz     :     0.004944
      dx2y2   :     0.002541
      dxy     :     0.007099
      f0      :     0.000093  f :     0.001503
      f+1     :     0.000185
      f-1     :     0.000350
      f+2     :     0.000061
      f-2     :     0.000356
      f+3     :     0.000367
      f-3     :     0.000092
 16 H s       :     0.594834  s :     0.594834
      pz      :     0.017210  p :     0.045394
      px      :     0.014862
      py      :     0.013322
 17 H s       :     0.569982  s :     0.569982
      pz      :     0.010787  p :     0.040910
      px      :     0.011933
      py      :     0.018189
 18 O s       :     3.800179  s :     3.800179
      pz      :     1.530379  p :     4.875774
      px      :     1.789146
      py      :     1.556249
      dz2     :     0.012600  d :     0.026003
      dxz     :     0.002489
      dyz     :     0.001245
      dx2y2   :     0.002532
      dxy     :     0.007138
      f0      :     0.000248  f :     0.001449
      f+1     :     0.000163
      f-1     :     0.000393
      f+2     :     0.000051
      f-2     :     0.000057
      f+3     :     0.000482
      f-3     :     0.000054
 19 H s       :     0.585732  s :     0.585732
      pz      :     0.019482  p :     0.043752
      px      :     0.012604
      py      :     0.011666
 20 H s       :     0.588369  s :     0.588369
      pz      :     0.010214  p :     0.043427
      px      :     0.014746
      py      :     0.018467


                     *******************************
                     * LOEWDIN POPULATION ANALYSIS *
                     *******************************

----------------------
LOEWDIN ATOMIC CHARGES
----------------------
   0 O :   -0.344539
   1 H :    0.154881
   2 H :    0.152294
   3 O :   -0.378772
   4 H :    0.144992
   5 H :    0.152637
   6 O :   -0.330204
   7 H :    0.160773
   8 H :    0.161866
   9 O :   -0.339132
  10 H :    0.156366
  11 H :    0.183661
  12 O :   -0.302708
  13 H :    0.161875
  14 H :    0.152783
  15 O :   -0.320403
  16 H :    0.162290
  17 H :    0.195339
  18 O :   -0.274746
  19 H :    0.174474
  20 H :    0.176274

-------------------------------
LOEWDIN REDUCED ORBITAL CHARGES
-------------------------------
  0 O s       :     3.461499  s :     3.461499
      pz      :     1.677333  p :     4.851435
      px      :     1.392361
      py      :     1.781742
      dz2     :     0.004684  d :     0.029612
      dxz     :     0.006689
      dyz     :     0.005686
      dx2y2   :     0.003319
      dxy     :     0.009233
      f0      :     0.000083  f :     0.001992
      f+1     :     0.000429
      f-1     :     0.000262
      f+2     :     0.000034
      f-2     :     0.000614
      f+3     :     0.000085
      f-3     :     0.000485
  1 H s       :     0.680321  s :     0.680321
      pz      :     0.065828  p :     0.164798
      px      :     0.045701
      py      :     0.053270
  2 H s       :     0.653251  s :     0.653251
      pz      :     0.033660  p :     0.194455
      px      :     0.113111
      py      :     0.047685
  3 O s       :     3.467646  s :     3.467646
      pz      :     1.703893  p :     4.879725
      px      :     1.779697
      py      :     1.396135
      dz2     :     0.004211  d :     0.029396
      dxz     :     0.005787
      dyz     :     0.007321
      dx2y2   :     0.003243
      dxy     :     0.008834
      f0      :     0.000073  f :     0.002004
      f+1     :     0.000267
      f-1     :     0.000438
      f+2     :     0.000034
      f-2     :     0.000638
      f+3     :     0.000471
      f-3     :     0.000084
  4 H s       :     0.690675  s :     0.690675
      pz      :     0.065461  p :     0.164333
      px      :     0.053285
      py      :     0.045587
  5 H s       :     0.651053  s :     0.651053
      pz      :     0.033311  p :     0.196310
      px      :     0.047648
      py      :     0.115351
  6 O s       :     3.463409  s :     3.463409
      pz      :     1.559886  p :     4.833783
      px      :     1.441232
      py      :     1.832665
      dz2     :     0.013924  d :     0.030955
      dxz     :     0.003591
      dyz     :     0.001589
      dx2y2   :     0.004509
      dxy     :     0.007342
      f0      :     0.000345  f :     0.002057
      f+1     :     0.000699
      f-1     :     0.000194
      f+2     :     0.000043
      f-2     :     0.000040
      f+3     :     0.000076
      f-3     :     0.000660
  7 H s       :     0.666234  s :     0.666234
      pz      :     0.095436  p :     0.172993
      px      :     0.035282
      py      :     0.042275
  8 H s       :     0.684466  s :     0.684466
      pz      :     0.030908  p :     0.153668
      px      :     0.073301
      py      :     0.049459
  9 O s       :     3.478930  s :     3.478930
      pz      :     1.532600  p :     4.824871
      px      :     1.457998
      py      :     1.834272
      dz2     :     0.016001  d :     0.033179
      dxz     :     0.004614
      dyz     :     0.001825
      dx2y2   :     0.004221
      dxy     :     0.006517
      f0      :     0.000402  f :     0.002153
      f+1     :     0.000767
      f-1     :     0.000205
      f+2     :     0.000050
      f-2     :     0.000045
      f+3     :     0.000071
      f-3     :     0.000612
 10 H s       :     0.686104  s :     0.686104
      pz      :     0.078585  p :     0.157530
      px      :     0.035405
      py      :     0.043541
 11 H s       :     0.662726  s :     0.662726
      pz      :     0.028555  p :     0.153613
      px      :     0.076033
      py      :     0.049026
 12 O s       :     3.447141  s :     3.447141
      pz      :     1.544606  p :     4.823598
      px      :     1.549119
      py      :     1.729874
      dz2     :     0.014625  d :     0.029947
      dxz     :     0.001769
      dyz     :     0.001750
      dx2y2   :     0.003415
      dxy     :     0.008388
      f0      :     0.000409  f :     0.002023
      f+1     :     0.000543
      f-1     :     0.000323
      f+2     :     0.000020
      f-2     :     0.000048
      f+3     :     0.000025
      f-3     :     0.000654
 13 H s       :     0.665487  s :     0.665487
      pz      :     0.094338  p :     0.172639
      px      :     0.036765
      py      :     0.041535
 14 H s       :     0.672654  s :     0.672654
      pz      :     0.031198  p :     0.174563
      px      :     0.085447
      py      :     0.057919
 15 O s       :     3.467118  s :     3.467118
      pz      :     1.710738  p :     4.819901
      px      :     1.743414
      py      :     1.365750
      dz2     :     0.004923  d :     0.031320
      dxz     :     0.005499
      dyz     :     0.007162
      dx2y2   :     0.004174
      dxy     :     0.009562
      f0      :     0.000078  f :     0.002064
      f+1     :     0.000274
      f-1     :     0.000453
      f+2     :     0.000033
      f-2     :     0.000615
      f+3     :     0.000522
      f-3     :     0.000089
 16 H s       :     0.674207  s :     0.674207
      pz      :     0.066340  p :     0.163503
      px      :     0.052767
      py      :     0.044396
 17 H s       :     0.655690  s :     0.655690
      pz      :     0.032997  p :     0.148972
      px      :     0.043313
      py      :     0.072661
 18 O s       :     3.458156  s :     3.458156
      pz      :     1.519517  p :     4.780746
      px      :     1.728919
      py      :     1.532311
      dz2     :     0.016782  d :     0.033644
      dxz     :     0.001974
      dyz     :     0.001954
      dx2y2   :     0.003734
      dxy     :     0.009200
      f0      :     0.000455  f :     0.002200
      f+1     :     0.000344
      f-1     :     0.000590
      f+2     :     0.000022
      f-2     :     0.000048
      f+3     :     0.000713
      f-3     :     0.000027
 19 H s       :     0.666604  s :     0.666604
      pz      :     0.081669  p :     0.158922
      px      :     0.041671
      py      :     0.035582
 20 H s       :     0.666207  s :     0.666207
      pz      :     0.029773  p :     0.157519
      px      :     0.054935
      py      :     0.072811


                      *****************************
                      * MAYER POPULATION ANALYSIS *
                      *****************************

  NA   - Mulliken gross atomic population
  ZA   - Total nuclear charge
  QA   - Mulliken gross atomic charge
  VA   - Mayer's total valence
  BVA  - Mayer's bonded valence
  FA   - Mayer's free valence

  ATOM       NA         ZA         QA         VA         BVA        FA
  0 O      8.7640     8.0000    -0.7640     1.7011     1.7011    -0.0000
  1 H      0.6511     1.0000     0.3489     0.8946     0.8946     0.0000
  2 H      0.6063     1.0000     0.3937     0.8788     0.8788    -0.0000
  3 O      8.7674     8.0000    -0.7674     1.6845     1.6845    -0.0000
  4 H      0.6729     1.0000     0.3271     0.9088     0.9088    -0.0000
  5 H      0.6000     1.0000     0.4000     0.8791     0.8791    -0.0000
  6 O      8.7398     8.0000    -0.7398     1.7400     1.7400    -0.0000
  7 H      0.6015     1.0000     0.3985     0.8748     0.8748     0.0000
  8 H      0.6651     1.0000     0.3349     0.9070     0.9070    -0.0000
  9 O      8.7088     8.0000    -0.7088     1.7700     1.7700    -0.0000
 10 H      0.6709     1.0000     0.3291     0.9065     0.9065    -0.0000
 11 H      0.6200     1.0000     0.3800     0.8732     0.8732    -0.0000
 12 O      8.7596     8.0000    -0.7596     1.7227     1.7227    -0.0000
 13 H      0.5990     1.0000     0.4010     0.8651     0.8651     0.0000
 14 H      0.6230     1.0000     0.3770     0.8902     0.8902    -0.0000
 15 O      8.7348     8.0000    -0.7348     1.7559     1.7559    -0.0000
 16 H      0.6402     1.0000     0.3598     0.8856     0.8856    -0.0000
 17 H      0.6109     1.0000     0.3891     0.8636     0.8636    -0.0000
 18 O      8.7034     8.0000    -0.7034     1.7809     1.7809    -0.0000
 19 H      0.6295     1.0000     0.3705     0.8794     0.8794    -0.0000
 20 H      0.6318     1.0000     0.3682     0.8809     0.8809    -0.0000

  Mayer bond orders larger than 0.100000
B(  0-O ,  1-H ) :   0.8864 B(  0-O ,  2-H ) :   0.8091 B(  3-O ,  4-H ) :   0.9025 
B(  3-O ,  5-H ) :   0.7998 B(  6-O ,  7-H ) :   0.8298 B(  6-O ,  8-H ) :   0.8908 
B(  9-O , 10-H ) :   0.8996 B(  9-O , 11-H ) :   0.8603 B( 12-O , 13-H ) :   0.8346 
B( 12-O , 14-H ) :   0.8483 B( 15-O , 16-H ) :   0.8783 B( 15-O , 17-H ) :   0.8515 
B( 18-O , 19-H ) :   0.8695 B( 18-O , 20-H ) :   0.8709 

-------
TIMINGS
-------

Total SCF time: 0 days 0 hours 0 min 14 sec 

Total time                  ....      14.745 sec
Sum of individual times     ....      14.504 sec  ( 98.4%)

Fock matrix formation       ....      13.676 sec  ( 92.8%)
Diagonalization             ....       0.267 sec  (  1.8%)
Density matrix formation    ....       0.011 sec  (  0.1%)
Population analysis         ....       0.040 sec  (  0.3%)
Initial guess               ....       0.149 sec  (  1.0%)
Orbital Transformation      ....       0.000 sec  (  0.0%)
Orbital Orthonormalization  ....       0.000 sec  (  0.0%)
DIIS solution               ....       0.102 sec  (  0.7%)
SOSCF solution              ....       0.189 sec  (  1.3%)


           ************************************************************
           *        Program running with 6 parallel MPI-processes     *
           *              working on a common directory               *
           ************************************************************

------------------------------------------------------------------------------
                                ORCA  MP2 
------------------------------------------------------------------------------

Freezing NCore=14 chemical core electrons
MP2 will be done in the AO integral direct mode
The Q1-step will be done using symmetric double matrices
Dimension of the basis                    ...  301
Memory devoted for MP2                    ... 8000 MB   
Memory needed for all in one shot         ...  523 MB
Number of MOs that can be treated together...   75      
MP2 density construction                  ... relaxed
The MP2 gradient is requested => amplitudes will be stored on disk
Total number of MOs              ...   28
Number of MOs treated per batch  ...    5 
Number of batches necessary      ...    1 
OPERATORS   0/  0 PASS   0
-----------------------------------------------
 MP2 CORRELATION ENERGY   :     -1.806444065 Eh
-----------------------------------------------


---------------------
MP2 DENSITY FORMATION
---------------------

Completing the external part of the density      ... done
Storing the unrelaxed density                    ... done

Calculating G(D)                                 ... done
Completing the Lagrangian                        ... done
Solving the Z-vector equations                   ... 

------------------------------------------------------------------------------
                           ORCA CP-SCF CALCULATION
------------------------------------------------------------------------------

Input orbitals are from        ... 12h2o.su.etal.mol0,2,6,7,8,10,11-orca.engrad-mp2.def2tzvp.frozencore.gbw
Input Perturbation             ... 12h2o.su.etal.mol0,2,6,7,8,10,11-orca.engrad-mp2.def2tzvp.frozencore.pin.tmp
Wavefunction output            ... 12h2o.su.etal.mol0,2,6,7,8,10,11-orca.engrad-mp2.def2tzvp.frozencore.pout.tmp
Perturbation mode              ... Real perturbation (singlet)
Solver                         ... POPLE
Max. number of iterations      ... 128
Convergence tolerance          ... 1.000e-08
Integral handling              ... Direct
Number of perturbations        ... 1
Number of operators            ... 1
Orbital ranges used for CP-SCF:
 Operator 0:  Orbitals   0... 34  to  35...300
Variables per vector in CP-SCF ... 9310
Number of vectors sought       ... 1
     CP-SCF ITERATION   0: 
     CP-SCF ITERATION   1:      0.000880081640
     CP-SCF ITERATION   2:      0.000022052130
     CP-SCF ITERATION   3:      0.000001328961
     CP-SCF ITERATION   4:      0.000000097768
     CP-SCF ITERATION   5:      0.000000008201
                                                 ... done
Finalizing the relaxed density                   ... done
Transforming P to the AO basis                   ... done
Storing the relaxed density                      ... done

------------------------------------
ENERGY WEIGHTED DENSITY FINALIZATION
------------------------------------

Gathering the parts of the W-matrix              ...                                                      done
Forming the Z-density                            ... done
Transforming Z to the AO basis                   ... done
Calculating G(Z)                                 ... done
Finalizing the W-matrix                          ...                                                      done
Transforming W to the AO basis and storing       ... done

                *********************************************
                * UNRELAXED MP2 DENSITY POPULATION ANALYSIS *
                *********************************************

------------------------------------------------------------------------------
                           ORCA POPULATION ANALYSIS
------------------------------------------------------------------------------
Input electron density              ... 12h2o.su.etal.mol0,2,6,7,8,10,11-orca.engrad-mp2.def2tzvp.frozencore.pmp2ur
BaseName (.gbw .S,...)              ... 12h2o.su.etal.mol0,2,6,7,8,10,11-orca.engrad-mp2.def2tzvp.frozencore

                    ********************************
                    * MULLIKEN POPULATION ANALYSIS *
                    ********************************

-----------------------
MULLIKEN ATOMIC CHARGES
-----------------------
   0 O :   -0.758091
   1 H :    0.346585
   2 H :    0.389219
   3 O :   -0.761833
   4 H :    0.324841
   5 H :    0.395287
   6 O :   -0.734042
   7 H :    0.395459
   8 H :    0.331988
   9 O :   -0.703567
  10 H :    0.326722
  11 H :    0.377301
  12 O :   -0.752612
  13 H :    0.397974
  14 H :    0.373591
  15 O :   -0.729240
  16 H :    0.357590
  17 H :    0.386284
  18 O :   -0.697181
  19 H :    0.368012
  20 H :    0.365712
Sum of atomic charges:   -0.0000000

--------------------------------
MULLIKEN REDUCED ORBITAL CHARGES
--------------------------------
  0 O s       :     3.804243  s :     3.804243
      pz      :     1.698633  p :     4.899281
      px      :     1.401049
      py      :     1.799599
      dz2     :     0.009261  d :     0.050552
      dxz     :     0.009665
      dyz     :     0.010941
      dx2y2   :     0.007824
      dxy     :     0.012862
      f0      :     0.000451  f :     0.004014
      f+1     :     0.000678
      f-1     :     0.000543
      f+2     :     0.000439
      f-2     :     0.000715
      f+3     :     0.000464
      f-3     :     0.000724
  1 H s       :     0.606002  s :     0.606002
      pz      :     0.017294  p :     0.047414
      px      :     0.014379
      py      :     0.015740
  2 H s       :     0.552526  s :     0.552526
      pz      :     0.011311  p :     0.058255
      px      :     0.031997
      py      :     0.014947
  3 O s       :     3.803580  s :     3.803580
      pz      :     1.705399  p :     4.903644
      px      :     1.789994
      py      :     1.408250
      dz2     :     0.009504  d :     0.050581
      dxz     :     0.010811
      dyz     :     0.010119
      dx2y2   :     0.007775
      dxy     :     0.012372
      f0      :     0.000455  f :     0.004028
      f+1     :     0.000547
      f-1     :     0.000690
      f+2     :     0.000438
      f-2     :     0.000724
      f+3     :     0.000714
      f-3     :     0.000461
  4 H s       :     0.627240  s :     0.627240
      pz      :     0.017630  p :     0.047918
      px      :     0.015911
      py      :     0.014377
  5 H s       :     0.546088  s :     0.546088
      pz      :     0.011393  p :     0.058625
      px      :     0.014581
      py      :     0.032651
  6 O s       :     3.803547  s :     3.803547
      pz      :     1.587163  p :     4.875639
      px      :     1.425711
      py      :     1.862765
      dz2     :     0.015391  d :     0.050819
      dxz     :     0.007863
      dyz     :     0.008053
      dx2y2   :     0.008542
      dxy     :     0.010970
      f0      :     0.000566  f :     0.004037
      f+1     :     0.000797
      f-1     :     0.000498
      f+2     :     0.000442
      f-2     :     0.000402
      f+3     :     0.000491
      f-3     :     0.000841
  7 H s       :     0.553726  s :     0.553726
      pz      :     0.025250  p :     0.050815
      px      :     0.011733
      py      :     0.013831
  8 H s       :     0.622864  s :     0.622864
      pz      :     0.010810  p :     0.045149
      px      :     0.017993
      py      :     0.016346
  9 O s       :     3.814457  s :     3.814457
      pz      :     1.506250  p :     4.832430
      px      :     1.464010
      py      :     1.862170
      dz2     :     0.016886  d :     0.052636
      dxz     :     0.008311
      dyz     :     0.008144
      dx2y2   :     0.008641
      dxy     :     0.010653
      f0      :     0.000561  f :     0.004045
      f+1     :     0.000818
      f-1     :     0.000498
      f+2     :     0.000436
      f-2     :     0.000404
      f+3     :     0.000489
      f-3     :     0.000838
 10 H s       :     0.626348  s :     0.626348
      pz      :     0.018579  p :     0.046930
      px      :     0.012849
      py      :     0.015502
 11 H s       :     0.578277  s :     0.578277
      pz      :     0.010527  p :     0.044422
      px      :     0.018685
      py      :     0.015209
 12 O s       :     3.786543  s :     3.786543
      pz      :     1.564443  p :     4.910451
      px      :     1.570743
      py      :     1.775264
      dz2     :     0.016816  d :     0.051653
      dxz     :     0.006684
      dyz     :     0.007949
      dx2y2   :     0.008051
      dxy     :     0.012154
      f0      :     0.000615  f :     0.003965
      f+1     :     0.000749
      f-1     :     0.000529
      f+2     :     0.000416
      f-2     :     0.000424
      f+3     :     0.000426
      f-3     :     0.000806
 13 H s       :     0.552867  s :     0.552867
      pz      :     0.024840  p :     0.049159
      px      :     0.011654
      py      :     0.012665
 14 H s       :     0.575120  s :     0.575120
      pz      :     0.010830  p :     0.051290
      px      :     0.024017
      py      :     0.016442
 15 O s       :     3.804654  s :     3.804654
      pz      :     1.722481  p :     4.869208
      px      :     1.772081
      py      :     1.374647
      dz2     :     0.009728  d :     0.051319
      dxz     :     0.010922
      dyz     :     0.010234
      dx2y2   :     0.008004
      dxy     :     0.012432
      f0      :     0.000461  f :     0.004058
      f+1     :     0.000549
      f-1     :     0.000710
      f+2     :     0.000430
      f-2     :     0.000719
      f+3     :     0.000727
      f-3     :     0.000462
 16 H s       :     0.595445  s :     0.595445
      pz      :     0.017689  p :     0.046965
      px      :     0.015562
      py      :     0.013714
 17 H s       :     0.571334  s :     0.571334
      pz      :     0.011608  p :     0.042382
      px      :     0.012662
      py      :     0.018111
 18 O s       :     3.795005  s :     3.795005
      pz      :     1.521211  p :     4.845149
      px      :     1.776873
      py      :     1.547065
      dz2     :     0.017663  d :     0.052994
      dxz     :     0.008043
      dyz     :     0.006622
      dx2y2   :     0.008145
      dxy     :     0.012521
      f0      :     0.000628  f :     0.004032
      f+1     :     0.000539
      f-1     :     0.000758
      f+2     :     0.000413
      f-2     :     0.000423
      f+3     :     0.000842
      f-3     :     0.000429
 19 H s       :     0.586704  s :     0.586704
      pz      :     0.019543  p :     0.045284
      px      :     0.013415
      py      :     0.012326
 20 H s       :     0.589324  s :     0.589324
      pz      :     0.010973  p :     0.044964
      px      :     0.015359
      py      :     0.018632


                     *******************************
                     * LOEWDIN POPULATION ANALYSIS *
                     *******************************

----------------------
LOEWDIN ATOMIC CHARGES
----------------------
   0 O :   -0.341252
   1 H :    0.153603
   2 H :    0.149738
   3 O :   -0.376382
   4 H :    0.143656
   5 H :    0.150060
   6 O :   -0.326430
   7 H :    0.158786
   8 H :    0.159840
   9 O :   -0.335958
  10 H :    0.154867
  11 H :    0.182066
  12 O :   -0.298610
  13 H :    0.159927
  14 H :    0.150576
  15 O :   -0.316644
  16 H :    0.161150
  17 H :    0.193626
  18 O :   -0.270462
  19 H :    0.173016
  20 H :    0.174828

-------------------------------
LOEWDIN REDUCED ORBITAL CHARGES
-------------------------------
  0 O s       :     3.457841  s :     3.457841
      pz      :     1.665912  p :     4.820502
      px      :     1.383904
      py      :     1.770686
      dz2     :     0.010407  d :     0.058139
      dxz     :     0.012381
      dyz     :     0.011446
      dx2y2   :     0.008951
      dxy     :     0.014954
      f0      :     0.000467  f :     0.004771
      f+1     :     0.000844
      f-1     :     0.000647
      f+2     :     0.000411
      f-2     :     0.001025
      f+3     :     0.000473
      f-3     :     0.000905
  1 H s       :     0.678414  s :     0.678414
      pz      :     0.067075  p :     0.167984
      px      :     0.046631
      py      :     0.054278
  2 H s       :     0.653307  s :     0.653307
      pz      :     0.034503  p :     0.196955
      px      :     0.113875
      py      :     0.048576
  3 O s       :     3.464016  s :     3.464016
      pz      :     1.693475  p :     4.850043
      px      :     1.768736
      py      :     1.387832
      dz2     :     0.009773  d :     0.057556
      dxz     :     0.011453
      dyz     :     0.012919
      dx2y2   :     0.008858
      dxy     :     0.014552
      f0      :     0.000452  f :     0.004767
      f+1     :     0.000649
      f-1     :     0.000850
      f+2     :     0.000410
      f-2     :     0.001047
      f+3     :     0.000889
      f-3     :     0.000471
  4 H s       :     0.688628  s :     0.688628
      pz      :     0.066800  p :     0.167716
      px      :     0.054324
      py      :     0.046592
  5 H s       :     0.651235  s :     0.651235
      pz      :     0.034141  p :     0.198705
      px      :     0.048505
      py      :     0.116059
  6 O s       :     3.459630  s :     3.459630
      pz      :     1.549354  p :     4.802714
      px      :     1.432194
      py      :     1.821166
      dz2     :     0.019893  d :     0.059266
      dxz     :     0.009054
      dyz     :     0.007142
      dx2y2   :     0.010149
      dxy     :     0.013028
      f0      :     0.000763  f :     0.004821
      f+1     :     0.001135
      f-1     :     0.000584
      f+2     :     0.000413
      f-2     :     0.000412
      f+3     :     0.000449
      f-3     :     0.001065
  7 H s       :     0.665535  s :     0.665535
      pz      :     0.096651  p :     0.175679
      px      :     0.035992
      py      :     0.043036
  8 H s       :     0.683046  s :     0.683046
      pz      :     0.031783  p :     0.157114
      px      :     0.074854
      py      :     0.050477
  9 O s       :     3.475137  s :     3.475137
      pz      :     1.523070  p :     4.795279
      px      :     1.449274
      py      :     1.822936
      dz2     :     0.021636  d :     0.060655
      dxz     :     0.009871
      dyz     :     0.007203
      dx2y2   :     0.009794
      dxy     :     0.012151
      f0      :     0.000810  f :     0.004886
      f+1     :     0.001195
      f-1     :     0.000589
      f+2     :     0.000417
      f-2     :     0.000414
      f+3     :     0.000445
      f-3     :     0.001016
 10 H s       :     0.684229  s :     0.684229
      pz      :     0.080353  p :     0.160904
      px      :     0.036193
      py      :     0.044358
 11 H s       :     0.661400  s :     0.661400
      pz      :     0.029324  p :     0.156534
      px      :     0.077297
      py      :     0.049913
 12 O s       :     3.443427  s :     3.443427
      pz      :     1.534925  p :     4.791687
      px      :     1.539407
      py      :     1.717355
      dz2     :     0.020581  d :     0.058663
      dxz     :     0.007240
      dyz     :     0.007336
      dx2y2   :     0.009113
      dxy     :     0.014393
      f0      :     0.000836  f :     0.004833
      f+1     :     0.000970
      f-1     :     0.000726
      f+2     :     0.000390
      f-2     :     0.000425
      f+3     :     0.000408
      f-3     :     0.001079
 13 H s       :     0.664671  s :     0.664671
      pz      :     0.095570  p :     0.175402
      px      :     0.037514
      py      :     0.042318
 14 H s       :     0.671943  s :     0.671943
      pz      :     0.031974  p :     0.177481
      px      :     0.086641
      py      :     0.058865
 15 O s       :     3.463352  s :     3.463352
      pz      :     1.700134  p :     4.789226
      px      :     1.731412
      py      :     1.357679
      dz2     :     0.010447  d :     0.059255
      dxz     :     0.011185
      dyz     :     0.012671
      dx2y2   :     0.009728
      dxy     :     0.015223
      f0      :     0.000456  f :     0.004811
      f+1     :     0.000658
      f-1     :     0.000860
      f+2     :     0.000408
      f-2     :     0.001022
      f+3     :     0.000935
      f-3     :     0.000473
 16 H s       :     0.672326  s :     0.672326
      pz      :     0.067546  p :     0.166524
      px      :     0.053747
      py      :     0.045231
 17 H s       :     0.654519  s :     0.654519
      pz      :     0.033806  p :     0.151855
      px      :     0.044259
      py      :     0.073790
 18 O s       :     3.454277  s :     3.454277
      pz      :     1.510088  p :     4.749553
      px      :     1.716556
      py      :     1.522910
      dz2     :     0.022548  d :     0.061653
      dxz     :     0.007454
      dyz     :     0.007271
      dx2y2   :     0.009318
      dxy     :     0.015063
      f0      :     0.000875  f :     0.004978
      f+1     :     0.000743
      f-1     :     0.001009
      f+2     :     0.000389
      f-2     :     0.000421
      f+3     :     0.001133
      f-3     :     0.000407
 19 H s       :     0.665076  s :     0.665076
      pz      :     0.083131  p :     0.161908
      px      :     0.042472
      py      :     0.036305
 20 H s       :     0.664655  s :     0.664655
      pz      :     0.030498  p :     0.160517
      px      :     0.055933
      py      :     0.074086


                      *****************************
                      * MAYER POPULATION ANALYSIS *
                      *****************************

  NA   - Mulliken gross atomic population
  ZA   - Total nuclear charge
  QA   - Mulliken gross atomic charge
  VA   - Mayer's total valence
  BVA  - Mayer's bonded valence
  FA   - Mayer's free valence

  ATOM       NA         ZA         QA         VA         BVA        FA
  0 O      8.7581     8.0000    -0.7581     2.0157     1.6225     0.3931
  1 H      0.6534     1.0000     0.3466     0.9004     0.8536     0.0468
  2 H      0.6108     1.0000     0.3892     0.8863     0.8401     0.0462
  3 O      8.7618     8.0000    -0.7618     1.9991     1.6063     0.3928
  4 H      0.6752     1.0000     0.3248     0.9149     0.8664     0.0485
  5 H      0.6047     1.0000     0.3953     0.8867     0.8411     0.0456
  6 O      8.7340     8.0000    -0.7340     2.0524     1.6595     0.3929
  7 H      0.6045     1.0000     0.3955     0.8808     0.8374     0.0434
  8 H      0.6680     1.0000     0.3320     0.9138     0.8631     0.0507
  9 O      8.7036     8.0000    -0.7036     2.0763     1.6875     0.3888
 10 H      0.6733     1.0000     0.3267     0.9128     0.8635     0.0493
 11 H      0.6227     1.0000     0.3773     0.8792     0.8332     0.0461
 12 O      8.7526     8.0000    -0.7526     2.0359     1.6456     0.3902
 13 H      0.6020     1.0000     0.3980     0.8710     0.8277     0.0434
 14 H      0.6264     1.0000     0.3736     0.8967     0.8511     0.0457
 15 O      8.7292     8.0000    -0.7292     2.0663     1.6761     0.3902
 16 H      0.6424     1.0000     0.3576     0.8912     0.8457     0.0455
 17 H      0.6137     1.0000     0.3863     0.8696     0.8235     0.0461
 18 O      8.6972     8.0000    -0.6972     2.0864     1.7006     0.3858
 19 H      0.6320     1.0000     0.3680     0.8853     0.8396     0.0457
 20 H      0.6343     1.0000     0.3657     0.8867     0.8408     0.0459

  Mayer bond orders larger than 0.100000
B(  0-O ,  1-H ) :   0.8460 B(  0-O ,  2-H ) :   0.7722 B(  3-O ,  4-H ) :   0.8607 
B(  3-O ,  5-H ) :   0.7641 B(  6-O ,  7-H ) :   0.7938 B(  6-O ,  8-H ) :   0.8477 
B(  9-O , 10-H ) :   0.8570 B(  9-O , 11-H ) :   0.8209 B( 12-O , 13-H ) :   0.7982 
B( 12-O , 14-H ) :   0.8105 B( 15-O , 16-H ) :   0.8389 B( 15-O , 17-H ) :   0.8119 
B( 18-O , 19-H ) :   0.8303 B( 18-O , 20-H ) :   0.8314 


                *******************************************
                * RELAXED MP2 DENSITY POPULATION ANALYSIS *
                *******************************************

------------------------------------------------------------------------------
                           ORCA POPULATION ANALYSIS
------------------------------------------------------------------------------
Input electron density              ... 12h2o.su.etal.mol0,2,6,7,8,10,11-orca.engrad-mp2.def2tzvp.frozencore.pmp2re
BaseName (.gbw .S,...)              ... 12h2o.su.etal.mol0,2,6,7,8,10,11-orca.engrad-mp2.def2tzvp.frozencore

                    ********************************
                    * MULLIKEN POPULATION ANALYSIS *
                    ********************************

-----------------------
MULLIKEN ATOMIC CHARGES
-----------------------
   0 O :   -0.734277
   1 H :    0.339991
   2 H :    0.367831
   3 O :   -0.742357
   4 H :    0.318875
   5 H :    0.370813
   6 O :   -0.710546
   7 H :    0.378047
   8 H :    0.323395
   9 O :   -0.687895
  10 H :    0.320759
  11 H :    0.368086
  12 O :   -0.720483
  13 H :    0.384256
  14 H :    0.357052
  15 O :   -0.708980
  16 H :    0.351374
  17 H :    0.378171
  18 O :   -0.674061
  19 H :    0.361230
  20 H :    0.358720
Sum of atomic charges:   -0.0000000

--------------------------------
MULLIKEN REDUCED ORBITAL CHARGES
--------------------------------
  0 O s       :     3.806090  s :     3.806090
      pz      :     1.687564  p :     4.875576
      px      :     1.393347
      py      :     1.794665
      dz2     :     0.009096  d :     0.048664
      dxz     :     0.009099
      dyz     :     0.010629
      dx2y2   :     0.007709
      dxy     :     0.012130
      f0      :     0.000449  f :     0.003947
      f+1     :     0.000660
      f-1     :     0.000535
      f+2     :     0.000439
      f-2     :     0.000696
      f+3     :     0.000462
      f-3     :     0.000707
  1 H s       :     0.611832  s :     0.611832
      pz      :     0.017405  p :     0.048176
      px      :     0.014393
      py      :     0.016378
  2 H s       :     0.573637  s :     0.573637
      pz      :     0.012055  p :     0.058532
      px      :     0.030984
      py      :     0.015493
  3 O s       :     3.804570  s :     3.804570
      pz      :     1.699744  p :     4.885149
      px      :     1.783745
      py      :     1.401660
      dz2     :     0.009305  d :     0.048675
      dxz     :     0.010488
      dyz     :     0.009541
      dx2y2   :     0.007654
      dxy     :     0.011687
      f0      :     0.000453  f :     0.003963
      f+1     :     0.000539
      f-1     :     0.000673
      f+2     :     0.000438
      f-2     :     0.000705
      f+3     :     0.000696
      f-3     :     0.000459
  4 H s       :     0.632401  s :     0.632401
      pz      :     0.017773  p :     0.048724
      px      :     0.016537
      py      :     0.014415
  5 H s       :     0.570429  s :     0.570429
      pz      :     0.012144  p :     0.058758
      px      :     0.015093
      py      :     0.031522
  6 O s       :     3.804907  s :     3.804907
      pz      :     1.578112  p :     4.853055
      px      :     1.417610
      py      :     1.857332
      dz2     :     0.014337  d :     0.048618
      dxz     :     0.007589
      dyz     :     0.008072
      dx2y2   :     0.008222
      dxy     :     0.010397
      f0      :     0.000555  f :     0.003966
      f+1     :     0.000767
      f-1     :     0.000491
      f+2     :     0.000442
      f-2     :     0.000400
      f+3     :     0.000490
      f-3     :     0.000821
  7 H s       :     0.570589  s :     0.570589
      pz      :     0.024576  p :     0.051364
      px      :     0.012112
      py      :     0.014676
  8 H s       :     0.630546  s :     0.630546
      pz      :     0.011664  p :     0.046059
      px      :     0.017131
      py      :     0.017264
  9 O s       :     3.819830  s :     3.819830
      pz      :     1.498432  p :     4.813810
      px      :     1.459231
      py      :     1.856146
      dz2     :     0.015580  d :     0.050285
      dxz     :     0.008027
      dyz     :     0.008190
      dx2y2   :     0.008335
      dxy     :     0.010153
      f0      :     0.000546  f :     0.003970
      f+1     :     0.000788
      f-1     :     0.000492
      f+2     :     0.000436
      f-2     :     0.000402
      f+3     :     0.000488
      f-3     :     0.000817
 10 H s       :     0.631479  s :     0.631479
      pz      :     0.017903  p :     0.047762
      px      :     0.013298
      py      :     0.016560
 11 H s       :     0.586878  s :     0.586878
      pz      :     0.011236  p :     0.045035
      px      :     0.017873
      py      :     0.015926
 12 O s       :     3.783163  s :     3.783163
      pz      :     1.561131  p :     4.883513
      px      :     1.566086
      py      :     1.756296
      dz2     :     0.015699  d :     0.049913
      dxz     :     0.006658
      dyz     :     0.007935
      dx2y2   :     0.008044
      dxy     :     0.011576
      f0      :     0.000599  f :     0.003894
      f+1     :     0.000728
      f-1     :     0.000521
      f+2     :     0.000416
      f-2     :     0.000422
      f+3     :     0.000426
      f-3     :     0.000783
 13 H s       :     0.566211  s :     0.566211
      pz      :     0.024031  p :     0.049533
      px      :     0.012057
      py      :     0.013445
 14 H s       :     0.591087  s :     0.591087
      pz      :     0.011504  p :     0.051861
      px      :     0.023480
      py      :     0.016877
 15 O s       :     3.808093  s :     3.808093
      pz      :     1.716859  p :     4.847765
      px      :     1.759328
      py      :     1.371579
      dz2     :     0.009456  d :     0.049137
      dxz     :     0.010656
      dyz     :     0.009646
      dx2y2   :     0.007742
      dxy     :     0.011637
      f0      :     0.000459  f :     0.003985
      f+1     :     0.000541
      f-1     :     0.000692
      f+2     :     0.000429
      f-2     :     0.000698
      f+3     :     0.000705
      f-3     :     0.000460
 16 H s       :     0.600967  s :     0.600967
      pz      :     0.017775  p :     0.047659
      px      :     0.016225
      py      :     0.013659
 17 H s       :     0.578934  s :     0.578934
      pz      :     0.012437  p :     0.042895
      px      :     0.013320
      py      :     0.017139
 18 O s       :     3.797308  s :     3.797308
      pz      :     1.516667  p :     4.821925
      px      :     1.761782
      py      :     1.543476
      dz2     :     0.016313  d :     0.050873
      dxz     :     0.008032
      dyz     :     0.006573
      dx2y2   :     0.008102
      dxy     :     0.011854
      f0      :     0.000609  f :     0.003955
      f+1     :     0.000529
      f-1     :     0.000736
      f+2     :     0.000413
      f-2     :     0.000421
      f+3     :     0.000817
      f-3     :     0.000429
 19 H s       :     0.592893  s :     0.592893
      pz      :     0.018772  p :     0.045878
      px      :     0.014258
      py      :     0.012848
 20 H s       :     0.595731  s :     0.595731
      pz      :     0.011625  p :     0.045548
      px      :     0.015816
      py      :     0.018107


                     *******************************
                     * LOEWDIN POPULATION ANALYSIS *
                     *******************************

----------------------
LOEWDIN ATOMIC CHARGES
----------------------
   0 O :   -0.338731
   1 H :    0.155442
   2 H :    0.142766
   3 O :   -0.378595
   4 H :    0.145616
   5 H :    0.142186
   6 O :   -0.324167
   7 H :    0.154198
   8 H :    0.160374
   9 O :   -0.337710
  10 H :    0.156790
  11 H :    0.182427
  12 O :   -0.291164
  13 H :    0.156317
  14 H :    0.146243
  15 O :   -0.314227
  16 H :    0.163101
  17 H :    0.194306
  18 O :   -0.265215
  19 H :    0.174028
  20 H :    0.176014

-------------------------------
LOEWDIN REDUCED ORBITAL CHARGES
-------------------------------
  0 O s       :     3.459395  s :     3.459395
      pz      :     1.660438  p :     4.817051
      px      :     1.387355
      py      :     1.769257
      dz2     :     0.010445  d :     0.057477
      dxz     :     0.012039
      dyz     :     0.011382
      dx2y2   :     0.008941
      dxy     :     0.014669
      f0      :     0.000470  f :     0.004808
      f+1     :     0.000855
      f-1     :     0.000648
      f+2     :     0.000412
      f-2     :     0.001026
      f+3     :     0.000477
      f-3     :     0.000920
  1 H s       :     0.676490  s :     0.676490
      pz      :     0.067037  p :     0.168069
      px      :     0.046151
      py      :     0.054881
  2 H s       :     0.659991  s :     0.659991
      pz      :     0.035108  p :     0.197243
      px      :     0.112960
      py      :     0.049174
  3 O s       :     3.465605  s :     3.465605
      pz      :     1.693056  p :     4.851418
      px      :     1.767025
      py      :     1.391338
      dz2     :     0.009732  d :     0.056766
      dxz     :     0.011347
      dyz     :     0.012536
      dx2y2   :     0.008856
      dxy     :     0.014295
      f0      :     0.000454  f :     0.004806
      f+1     :     0.000649
      f-1     :     0.000863
      f+2     :     0.000411
      f-2     :     0.001048
      f+3     :     0.000906
      f-3     :     0.000476
  4 H s       :     0.686314  s :     0.686314
      pz      :     0.066936  p :     0.168070
      px      :     0.054896
      py      :     0.046238
  5 H s       :     0.658998  s :     0.658998
      pz      :     0.034812  p :     0.198816
      px      :     0.049046
      py      :     0.114958
  6 O s       :     3.460749  s :     3.460749
      pz      :     1.547119  p :     4.800372
      px      :     1.434885
      py      :     1.818369
      dz2     :     0.019505  d :     0.058204
      dxz     :     0.008857
      dyz     :     0.007210
      dx2y2   :     0.009924
      dxy     :     0.012707
      f0      :     0.000767  f :     0.004842
      f+1     :     0.001144
      f-1     :     0.000584
      f+2     :     0.000415
      f-2     :     0.000411
      f+3     :     0.000451
      f-3     :     0.001070
  7 H s       :     0.669919  s :     0.669919
      pz      :     0.096083  p :     0.175883
      px      :     0.035902
      py      :     0.043898
  8 H s       :     0.681964  s :     0.681964
      pz      :     0.032374  p :     0.157662
      px      :     0.073953
      py      :     0.051335
  9 O s       :     3.477466  s :     3.477466
      pz      :     1.524031  p :     4.796059
      px      :     1.452313
      py      :     1.819715
      dz2     :     0.020901  d :     0.059282
      dxz     :     0.009600
      dyz     :     0.007277
      dx2y2   :     0.009593
      dxy     :     0.011911
      f0      :     0.000807  f :     0.004902
      f+1     :     0.001205
      f-1     :     0.000588
      f+2     :     0.000419
      f-2     :     0.000412
      f+3     :     0.000446
      f-3     :     0.001024
 10 H s       :     0.681905  s :     0.681905
      pz      :     0.079903  p :     0.161304
      px      :     0.036076
      py      :     0.045325
 11 H s       :     0.661270  s :     0.661270
      pz      :     0.029691  p :     0.156303
      px      :     0.076076
      py      :     0.050536
 12 O s       :     3.443727  s :     3.443727
      pz      :     1.536606  p :     4.784491
      px      :     1.540709
      py      :     1.707176
      dz2     :     0.020150  d :     0.058088
      dxz     :     0.007140
      dyz     :     0.007375
      dx2y2   :     0.009210
      dxy     :     0.014212
      f0      :     0.000839  f :     0.004859
      f+1     :     0.000977
      f-1     :     0.000728
      f+2     :     0.000391
      f-2     :     0.000425
      f+3     :     0.000409
      f-3     :     0.001090
 13 H s       :     0.668081  s :     0.668081
      pz      :     0.094774  p :     0.175602
      px      :     0.037932
      py      :     0.042896
 14 H s       :     0.675626  s :     0.675626
      pz      :     0.032491  p :     0.178131
      px      :     0.086334
      py      :     0.059306
 15 O s       :     3.464971  s :     3.464971
      pz      :     1.699424  p :     4.786357
      px      :     1.724228
      py      :     1.362704
      dz2     :     0.010296  d :     0.058070
      dxz     :     0.011144
      dyz     :     0.012283
      dx2y2   :     0.009532
      dxy     :     0.014816
      f0      :     0.000458  f :     0.004829
      f+1     :     0.000658
      f-1     :     0.000866
      f+2     :     0.000408
      f-2     :     0.001022
      f+3     :     0.000941
      f-3     :     0.000476
 16 H s       :     0.670538  s :     0.670538
      pz      :     0.067605  p :     0.166361
      px      :     0.054235
      py      :     0.044521
 17 H s       :     0.654088  s :     0.654088
      pz      :     0.034506  p :     0.151606
      px      :     0.044865
      py      :     0.072236
 18 O s       :     3.455652  s :     3.455652
      pz      :     1.512226  p :     4.743964
      px      :     1.706929
      py      :     1.524809
      dz2     :     0.021827  d :     0.060605
      dxz     :     0.007494
      dyz     :     0.007138
      dx2y2   :     0.009371
      dxy     :     0.014775
      f0      :     0.000874  f :     0.004994
      f+1     :     0.000743
      f-1     :     0.001015
      f+2     :     0.000391
      f-2     :     0.000421
      f+3     :     0.001141
      f-3     :     0.000409
 19 H s       :     0.664101  s :     0.664101
      pz      :     0.082227  p :     0.161871
      px      :     0.043176
      py      :     0.036469
 20 H s       :     0.663579  s :     0.663579
      pz      :     0.030811  p :     0.160407
      px      :     0.056310
      py      :     0.073285


                      *****************************
                      * MAYER POPULATION ANALYSIS *
                      *****************************

  NA   - Mulliken gross atomic population
  ZA   - Total nuclear charge
  QA   - Mulliken gross atomic charge
  VA   - Mayer's total valence
  BVA  - Mayer's bonded valence
  FA   - Mayer's free valence

  ATOM       NA         ZA         QA         VA         BVA        FA
  0 O      8.7343     8.0000    -0.7343     2.0385     1.6509     0.3876
  1 H      0.6600     1.0000     0.3400     0.9048     0.8579     0.0469
  2 H      0.6322     1.0000     0.3678     0.9120     0.8665     0.0455
  3 O      8.7424     8.0000    -0.7424     2.0061     1.6181     0.3880
  4 H      0.6811     1.0000     0.3189     0.9185     0.8699     0.0486
  5 H      0.6292     1.0000     0.3708     0.9168     0.8721     0.0447
  6 O      8.7105     8.0000    -0.7105     2.0797     1.6928     0.3869
  7 H      0.6220     1.0000     0.3780     0.9044     0.8615     0.0428
  8 H      0.6766     1.0000     0.3234     0.9232     0.8730     0.0503
  9 O      8.6879     8.0000    -0.6879     2.0853     1.7019     0.3833
 10 H      0.6792     1.0000     0.3208     0.9172     0.8679     0.0493
 11 H      0.6319     1.0000     0.3681     0.8889     0.8430     0.0459
 12 O      8.7205     8.0000    -0.7205     2.0775     1.6933     0.3842
 13 H      0.6157     1.0000     0.3843     0.8891     0.8460     0.0431
 14 H      0.6429     1.0000     0.3571     0.9196     0.8745     0.0451
 15 O      8.7090     8.0000    -0.7090     2.0907     1.7061     0.3846
 16 H      0.6486     1.0000     0.3514     0.8958     0.8502     0.0456
 17 H      0.6218     1.0000     0.3782     0.8778     0.8318     0.0460
 18 O      8.6741     8.0000    -0.6741     2.1163     1.7363     0.3800
 19 H      0.6388     1.0000     0.3612     0.8919     0.8462     0.0456
 20 H      0.6413     1.0000     0.3587     0.8934     0.8476     0.0458

  Mayer bond orders larger than 0.100000
B(  0-O ,  1-H ) :   0.8490 B(  0-O ,  2-H ) :   0.7722 B(  3-O ,  4-H ) :   0.8635 
B(  3-O ,  5-H ) :   0.7656 B(  5-H , 12-O ) :   0.1057 B(  6-O ,  7-H ) :   0.7981 
B(  6-O ,  8-H ) :   0.8496 B(  9-O , 10-H ) :   0.8602 B(  9-O , 11-H ) :   0.8254 
B( 12-O , 13-H ) :   0.8023 B( 12-O , 14-H ) :   0.8130 B( 15-O , 16-H ) :   0.8423 
B( 15-O , 17-H ) :   0.8159 B( 18-O , 19-H ) :   0.8338 B( 18-O , 20-H ) :   0.8349 



----------------------------------
MP2 DERIVATIVE INTEGRAL GENERATION
----------------------------------


Input Wavefunction Amplitudes       ... 12h2o.su.etal.mol0,2,6,7,8,10,11-orca.engrad-mp2.def2tzvp.frozencore.mp2tsaa.tmp
Input Correlated Electron Density   ... 12h2o.su.etal.mol0,2,6,7,8,10,11-orca.engrad-mp2.def2tzvp.frozencore.pmp2re
Input Energy Weighted Density       ... 12h2o.su.etal.mol0,2,6,7,8,10,11-orca.engrad-mp2.def2tzvp.frozencore.wmp2.tmp
Input SCF Electron Density          ... 12h2o.su.etal.mol0,2,6,7,8,10,11-orca.engrad-mp2.def2tzvp.frozencore.scfp

One-Electron Terms    ...
                        ... One-Electron Terms done
Prescreening matrices              ... done

Batch handling in the gradient evaluation:
Memory available                      ... 8000.0 MB
Memory per occupied orbital in Q2     ...   19.4 MB
Memory per occupied orbital in Q3     ...    0.1 MB
Total memory requirement per |i>      ...   19.5 MB
Max. Number of orbitals possible      ...    410
Number of orbitals treated per batch  ...     28
Number of batches to be done          ...      1
Batch   0: i=    7 ...    34

---------------------------------------
MP2 TOTAL ENERGY:     -534.239795768 Eh
---------------------------------------

The final MP2 gradient
  0:   0.00823397  -0.00574454   0.00175409
  1:   0.00075943  -0.00027646  -0.00071153
  2:  -0.01717395   0.00599394  -0.00319330
  3:  -0.00017884  -0.00649021   0.00032125
  4:  -0.00029174  -0.00206845  -0.00074531
  5:   0.00311630   0.01302901  -0.00037885
  6:   0.01749362  -0.01168327   0.00172359
  7:   0.00172063   0.00386193  -0.00220552
  8:  -0.01730241   0.00899219   0.00200356
  9:  -0.01336854   0.00416219  -0.01324868
 10:  -0.00236187   0.00097493   0.00984013
 11:   0.01395529  -0.00603061   0.00481423
 12:   0.00066440  -0.00692774   0.00072284
 13:   0.00000873   0.00194526  -0.00080303
 14:  -0.00324978   0.00036176  -0.00086001
 15:   0.00625998   0.02564474   0.00037225
 16:   0.00197042   0.00123299   0.00155948
 17:  -0.00817704  -0.02506908  -0.00307405
 18:   0.00979525   0.00602830   0.00882317
 19:   0.00182380   0.00018195  -0.00628992
 20:  -0.00369766  -0.00811883  -0.00042439

-----------------------------------
NORM OF THE MP2 GRADIENT:  0.063732
-----------------------------------

-------------------------   --------------------
FINAL SINGLE POINT ENERGY      -534.239795768253
-------------------------   --------------------


                            ***************************************
                            *     ORCA property calculations      *
                            ***************************************

                                    ---------------------
                                    Active property flags
                                    ---------------------
   (+) Dipole Moment


------------------------------------------------------------------------------
                       ORCA ELECTRIC PROPERTIES CALCULATION
------------------------------------------------------------------------------

Dipole Moment Calculation                       ... on
Quadrupole Moment Calculation                   ... off
Polarizability Calculation                      ... off
GBWName                                         ... 12h2o.su.etal.mol0,2,6,7,8,10,11-orca.engrad-mp2.def2tzvp.frozencore.gbw
Electron density file                           ... 12h2o.su.etal.mol0,2,6,7,8,10,11-orca.engrad-mp2.def2tzvp.frozencore.scfp
The origin for moment calculation is the CENTER OF MASS  = ( 0.733130,  0.936809 -0.759194)

-------------
DIPOLE MOMENT
-------------
                                X             Y             Z
Electronic contribution:     -0.10052       0.29177       0.23254
Nuclear contribution   :     -1.32960       0.78984       0.91596
                        -----------------------------------------
Total Dipole Moment    :     -1.43013       1.08160       1.14850
                        -----------------------------------------
Magnitude (a.u.)       :      2.12936
Magnitude (Debye)      :      5.41241



--------------------
Rotational spectrum 
--------------------
 
Rotational constants in cm-1:     0.040671     0.018692     0.017243 
Rotational constants in MHz :  1219.285364   560.381573   516.934070 

 Dipole components along the rotational axes: 
x,y,z [a.u.] :     1.411881     1.327839    -0.881829 
x,y,z [Debye]:     3.588718     3.375098    -2.241431 

 

                         *** MP2 UNRELAXED DENSITY ***

------------------------------------------------------------------------------
                       ORCA ELECTRIC PROPERTIES CALCULATION
------------------------------------------------------------------------------

Dipole Moment Calculation                       ... on
Quadrupole Moment Calculation                   ... off
Polarizability Calculation                      ... off
GBWName                                         ... 12h2o.su.etal.mol0,2,6,7,8,10,11-orca.engrad-mp2.def2tzvp.frozencore.gbw
Electron density file                           ... 12h2o.su.etal.mol0,2,6,7,8,10,11-orca.engrad-mp2.def2tzvp.frozencore.pmp2ur
The origin for moment calculation is the CENTER OF MASS  = ( 0.733130,  0.936809 -0.759194)

-------------
DIPOLE MOMENT
-------------
                                X             Y             Z
Electronic contribution:     -0.09002       0.28751       0.22740
Nuclear contribution   :     -1.32960       0.78984       0.91596
                        -----------------------------------------
Total Dipole Moment    :     -1.41963       1.07734       1.14336
                        -----------------------------------------
Magnitude (a.u.)       :      2.11738
Magnitude (Debye)      :      5.38194



--------------------
Rotational spectrum 
--------------------
 
Rotational constants in cm-1:     0.040671     0.018692     0.017243 
Rotational constants in MHz :  1219.285364   560.381573   516.934070 

 Dipole components along the rotational axes: 
x,y,z [a.u.] :     1.405544     1.317767    -0.878193 
x,y,z [Debye]:     3.572608     3.349497    -2.232188 

 

                           *** MP2 RELAXED DENSITY ***

------------------------------------------------------------------------------
                       ORCA ELECTRIC PROPERTIES CALCULATION
------------------------------------------------------------------------------

Dipole Moment Calculation                       ... on
Quadrupole Moment Calculation                   ... off
Polarizability Calculation                      ... off
GBWName                                         ... 12h2o.su.etal.mol0,2,6,7,8,10,11-orca.engrad-mp2.def2tzvp.frozencore.gbw
Electron density file                           ... 12h2o.su.etal.mol0,2,6,7,8,10,11-orca.engrad-mp2.def2tzvp.frozencore.pmp2re
The origin for moment calculation is the CENTER OF MASS  = ( 0.733130,  0.936809 -0.759194)

-------------
DIPOLE MOMENT
-------------
                                X             Y             Z
Electronic contribution:     -0.10241       0.28807       0.23599
Nuclear contribution   :     -1.32960       0.78984       0.91596
                        -----------------------------------------
Total Dipole Moment    :     -1.43201       1.07790       1.15195
                        -----------------------------------------
Magnitude (a.u.)       :      2.13062
Magnitude (Debye)      :      5.41559



--------------------
Rotational spectrum 
--------------------
 
Rotational constants in cm-1:     0.040671     0.018692     0.017243 
Rotational constants in MHz :  1219.285364   560.381573   516.934070 

 Dipole components along the rotational axes: 
x,y,z [a.u.] :     1.414481     1.329900    -0.877571 
x,y,z [Debye]:     3.595324     3.380337    -2.230609 

 

Timings for individual modules:

Sum of individual times         ...       93.037 sec (=   1.551 min)
GTO integral calculation        ...        0.838 sec (=   0.014 min)   0.9 %
SCF iterations                  ...       15.398 sec (=   0.257 min)  16.6 %
MP2 module                      ...       76.801 sec (=   1.280 min)  82.5 %
                             ****ORCA TERMINATED NORMALLY****
TOTAL RUN TIME: 0 days 0 hours 1 minutes 34 seconds 77 msec
