61
Energy:   -384.75446134
    C     -1.42008523      3.15571905     -0.47377744
    H     -1.97087418      2.23844012     -0.46232894
    H     -1.99118132      3.92072073      0.00946242
    H     -0.49328737      3.02172574      0.04390066
    C     -1.13930501      3.56773540     -1.93083098
    N     -0.93025138      3.87450030     -3.01567356
    C      1.60391397     -2.10302350     -2.71000300
    H      1.58818463     -2.11054468     -3.77986102
    H      0.81497301     -1.47849895     -2.34607947
    H      1.46768323     -3.09931060     -2.34428138
    C      2.95811053     -1.55713751     -2.22034989
    N      3.96637142     -1.15070058     -1.85578089
    C      2.05142418      2.01289548     -2.54569510
    H      1.30466597      1.71287640     -1.84054199
    H      1.99537592      3.07077867     -2.69616383
    H      3.02005535      1.75689494     -2.17004039
    C      1.81276012      1.29058582     -3.88469033
    N      1.63506389      0.75279344     -4.88163314
    C      3.19698127      1.34714473      1.05149392
    H      2.30846502      1.89976934      0.82778630
    H      3.34230258      0.58989718      0.30963345
    H      4.03750578      2.00926803      1.05471275
    C      3.05689918      0.68868504      2.43655992
    N      2.95260169      0.19843186      3.46780452
    C     -0.20420868     -1.85087263      3.20187022
    H     -0.50841217     -2.26282227      2.26237147
    H      0.27101021     -2.61016469      3.78714081
    H      0.48279061     -1.04799471      3.03359036
    C     -1.43911063     -1.32070319      3.95389252
    N     -2.35855126     -0.92596794      4.51380731
    C     -0.32368093      2.06143652      3.30657869
    H      0.27557476      1.45517398      3.95329233
    H     -0.67976761      1.46825648      2.49034416
    H     -1.15627227      2.45165634      3.85377083
    C      0.52464812      3.22611443      2.76301345
    N      1.15626765      4.09327009      2.35830441
    C      2.76012549     -2.62138202      1.12664082
    H      3.70601263     -2.84186140      0.67765692
    H      2.88550728     -2.50301541      2.18265589
    H      2.36992102     -1.71630726      0.71013242
    C      1.77990002     -3.77704912      0.85242995
    N      1.05007761     -4.63749580      0.64826750
    C     -3.66910998      0.26500316      1.43668988
    H     -4.39146533      0.16264953      0.65398517
    H     -3.92421715     -0.38791642      2.24509290
    H     -2.69978542      0.00839644      1.06324378
    C     -3.65739737      1.72135642      1.93718762
    N     -3.64867680      2.80567762      2.30983094
    C     -1.98088567     -2.93831565     -0.62728537
    H     -2.43927172     -1.97992205     -0.49975457
    H     -1.03236280     -2.94873021     -0.13221466
    H     -2.61105275     -3.69388536     -0.20668704
    C     -1.77934640     -3.21524176     -2.12871597
    N     -1.62929126     -3.42142583     -3.24659930
    C     -1.60059626      0.27097190     -3.36113220
    H     -0.80237030      0.36697570     -2.65507359
    H     -1.60863490      1.12295491     -4.00840296
    H     -1.45852053     -0.61660394     -3.94158263
    C     -2.94236055      0.18402513     -2.61032673
    N     -3.94136505      0.11928930     -2.05131794
   Cl      0.05652514     -0.07517672      0.10368003
