61
Energy:   -386.12893810
    C     -0.51668805      3.70418871      0.14097447
    H     -0.84288395      4.14641937     -0.77713689
    H     -1.00203361      4.18855500      0.96239280
    H     -0.76485305      2.66336839      0.14348166
    C      1.00849979      3.86858526      0.27653190
    N      2.14407147      3.99098596      0.37746057
    C      1.94961748      1.60579146     -2.67089761
    H      1.43985435      0.67476756     -2.80593928
    H      2.19595087      1.73088777     -1.63718108
    H      2.84660860      1.60918276     -3.25424530
    C      1.03776108      2.76084582     -3.12473384
    N      0.35884255      3.62083630     -3.46263554
    C      2.58228781     -2.34781849     -1.56223255
    H      3.57922181     -2.68800149     -1.75011098
    H      2.59209029     -1.64073929     -0.75921200
    H      2.19249623     -1.88182901     -2.44303640
    C      1.69434676     -3.54655339     -1.17987757
    N      1.03323428     -4.43906601     -0.89519691
    C     -0.14743684      1.07217483      3.30713485
    H      0.35296804      0.92949659      4.24208835
    H      0.57043869      1.31514429      2.55180734
    H     -0.65994265      0.17287986      3.03601597
    C     -1.16322649      2.22214497      3.43881645
    N     -1.91952806      3.07835002      3.53685938
    C     -1.69485953     -3.20403617      0.90566667
    H     -0.78910011     -2.78823934      0.51629144
    H     -2.50153159     -2.99241550      0.23529664
    H     -1.58549383     -4.26341086      1.00893085
    C     -1.99487663     -2.58233959      2.28228684
    N     -2.21825300     -2.11945824      3.30724314
    C      1.64463362     -2.39262470      2.71089340
    H      1.77793823     -1.98907452      3.69286963
    H      1.13686973     -3.33212868      2.77728007
    H      1.06348027     -1.71392367      2.12222982
    C      3.02000388     -2.59807435      2.04926883
    N      4.04402957     -2.75104096      1.55665927
    C      3.55494739      0.99678016      1.22218098
    H      3.94856224      0.11381611      0.76355038
    H      4.21369314      1.81921480      1.03629288
    H      2.59063334      1.21235239      0.81166164
    C      3.42822593      0.77363398      2.74064976
    N      3.33387605      0.60749151      3.87121880
    C     -1.49812372     -2.25437286     -2.67274377
    H     -1.64499325     -1.53842665     -1.89123846
    H     -1.11639189     -3.16326265     -2.25669179
    H     -2.43153901     -2.44881329     -3.15836493
    C     -0.49272782     -1.69682847     -3.69740144
    N      0.25583513     -1.28171133     -4.46030564
    C     -3.39736392      0.69635587      1.07593379
    H     -3.43298953      0.22670057      2.03669125
    H     -4.03126827      1.55836744      1.07659050
    H     -2.39204222      0.99308724      0.86104347
    C     -3.88065389     -0.29541697      0.00149559
    N     -4.24048524     -1.03383693     -0.79847248
    C     -2.27296027      1.43455889     -2.81386401
    H     -2.86060175      0.55940416     -2.99739021
    H     -1.41661474      1.17279663     -2.22815765
    H     -1.95356072      1.85164773     -3.74602275
    C     -3.11939133      2.47057518     -2.05108966
    N     -3.74959773      3.24193640     -1.48316948
   Cl      0.14099407     -0.09988058     -0.09844115
