61
Energy:   -385.37295666
    C      3.01542899      1.80347391      0.81561818
    H      2.41799265      1.44488272      1.62764180
    H      4.01719017      1.96624936      1.15455443
    H      3.01861712      1.07910647      0.02810264
    C      2.42891389      3.12785221      0.29252912
    N      1.99222674      4.11391205     -0.09693447
    C      1.85095501      1.60670519     -3.03056792
    H      2.85688684      1.41401927     -2.72093348
    H      1.20353059      1.57541152     -2.17923872
    H      1.79662636      2.57407204     -3.48460413
    C      1.41316423      0.53678136     -4.04801679
    N      1.08720909     -0.25982557     -4.80555373
    C      1.85487659     -2.47104567     -2.22188102
    H      1.85813595     -2.70359103     -3.26630058
    H      0.98614559     -1.89174788     -1.98817263
    H      1.84190817     -3.37816196     -1.65454431
    C      3.11917585     -1.66453915     -1.87160311
    N      4.06050412     -1.06405840     -1.61080528
    C     -0.83013089      2.73093636      2.21851646
    H     -0.71653247      3.79070258      2.31280929
    H     -1.23209083      2.49970972      1.25422318
    H      0.12351817      2.25868203      2.32999925
    C     -1.78764931      2.21815103      3.31021682
    N     -2.50056529      1.83635904      4.12303737
    C     -1.16332379     -3.69863563      0.00918250
    H     -1.92157026     -4.01524659     -0.67617870
    H     -0.32844979     -4.36528428     -0.04967386
    H     -0.84692288     -2.70777156     -0.24177155
    C     -1.72899197     -3.70958041      1.44148824
    N     -2.15015765     -3.71772929      2.50790496
    C     -0.40764988     -1.02958694      3.69574292
    H     -1.20054838     -0.75865884      4.36118270
    H     -0.16948873     -2.06441152      3.82733489
    H     -0.71647834     -0.86035723      2.68535419
    C      0.83524159     -0.17370979      4.00281801
    N      1.76063078      0.46352965      4.23144938
    C      3.00851122     -1.85868054      1.75366034
    H      3.24536486     -1.86779525      2.79707658
    H      2.21804621     -1.16040788      1.57343977
    H      3.87368517     -1.57025418      1.19403246
    C      2.56009321     -3.26567366      1.31674886
    N      2.22622561     -4.31324400      0.99144841
    C     -2.10443744     -0.16828858     -2.79270834
    H     -2.41457584      0.14500313     -3.76767637
    H     -1.08676422     -0.49663515     -2.83050821
    H     -2.18951934      0.65178211     -2.11069352
    C     -3.00030594     -1.32691166     -2.31667032
    N     -3.66732075     -2.18955920     -1.96223837
    C     -3.47926363     -0.45149239      1.21974379
    H     -4.28523153     -1.12191973      1.00563375
    H     -3.40352803     -0.31120385      2.27779972
    H     -2.56433212     -0.86349450      0.84818804
    C     -3.74509292      0.90448864      0.53985393
    N     -3.94301491      1.91407816      0.03364502
    C     -1.21516994      3.48991966     -1.48738107
    H     -0.57337025      4.26813510     -1.13048603
    H     -0.89178130      2.55056693     -1.08997030
    H     -2.21942096      3.68351034     -1.17289475
    C     -1.15894878      3.44321098     -3.02564550
    N     -1.11708957      3.40843424     -4.17095330
   Cl      0.08891311     -0.00016349      0.02362931
