61
Energy:   -386.37140201
    C      2.99816628      2.28926241     -0.20305549
    H      2.26166605      1.86935683      0.44974378
    H      3.62209775      2.96115970      0.34845395
    H      3.59688683      1.50485386     -0.61674137
    C      2.29846988      3.05554605     -1.34096336
    N      1.77751410      3.62607905     -2.18818749
    C      1.37267703      0.06511271     -3.49574886
    H      1.37560959      1.11202005     -3.71682939
    H      0.59599071     -0.14851890     -2.79146271
    H      1.20101513     -0.48883159     -4.39495795
    C      2.73337128     -0.33691646     -2.89701376
    N      3.74647000     -0.63624545     -2.45122827
    C      0.91665026     -3.29947086     -1.22033093
    H      0.02179487     -3.12032701     -0.66172418
    H      1.61619027     -2.51114423     -1.03571243
    H      1.34395739     -4.23319568     -0.91955582
    C      0.58275496     -3.34803947     -2.72291372
    N      0.33415473     -3.38420100     -3.84165490
    C     -0.77235006      3.37642491      1.02458541
    H     -0.78085732      4.37833302      0.64907514
    H     -1.28387552      2.73406106      0.33857560
    H      0.23919261      3.04590956      1.13612075
    C     -1.47975820      3.33464494      2.39185574
    N     -2.00645573      3.30353785      3.40985065
    C     -0.71751345     -3.14526441      2.22933719
    H     -0.12468139     -4.01042828      2.44133200
    H     -0.11408593     -2.41118529      1.73750167
    H     -1.53409110     -3.41925136      1.59448982
    C     -1.26397256     -2.56226290      3.54580659
    N     -1.67083620     -2.12819178      4.52597790
    C      0.37113649      0.64493794      3.86562109
    H      0.75162795     -0.18197243      4.42806725
    H     -0.07865015      0.28593363      2.96356401
    H     -0.36136905      1.16485575      4.44701613
    C      1.52513218      1.60347724      3.51763211
    N      2.38433442      2.31715333      3.25853849
    C      3.29366979     -1.10920819      1.24610578
    H      2.67204746     -0.41764608      1.77547117
    H      3.11379420     -1.01834801      0.19525455
    H      4.32154073     -0.89464608      1.45188116
    C      2.96786125     -2.54412299      1.70049363
    N      2.72528199     -3.61248228      2.03880604
    C     -2.49359739     -1.16340294     -2.32834861
    H     -3.35710680     -0.96843340     -2.92937986
    H     -1.66529667     -1.40411047     -2.96149699
    H     -2.25898681     -0.29509611     -1.74877962
    C     -2.78058759     -2.34728927     -1.38619693
    N     -2.99426483     -3.22874646     -0.68472219
    C     -3.14762098     -0.04169594      1.69980458
    H     -3.97017143     -0.40463017      2.27996807
    H     -2.46229454      0.47630252      2.33769512
    H     -2.64839503     -0.86570790      1.23431897
    C     -3.66863410      0.92109043      0.61666666
    N     -4.05655204      1.63792864     -0.18977875
    C     -1.45074435      2.56020701     -2.57049417
    H     -2.39455140      2.68278753     -2.08151313
    H     -0.99368194      3.51773714     -2.70880211
    H     -0.81469137      1.94491263     -1.96903882
    C     -1.66563713      1.89121783     -3.94084980
    N     -1.82563458      1.39312498     -4.96114186
   Cl      0.07588945     -0.01695525      0.07901244
