61
Energy:  -1432.11844158
O   -1.32428128   1.79823031  -2.50537179
H   -0.97618562   2.63804639  -2.20575503
H   -0.75732807   1.55023752  -3.23564262
O    2.78022200   0.81665270   1.90086461
H    3.47542403   1.24859914   2.39719944
H    3.08988197   0.82712190   0.99519749
O   -0.09218550   4.02310536  -1.52534943
H   -0.12519700   4.94993619  -1.76226017
H   -0.46614290   3.98697431  -0.64496187
O    2.26818331  -1.77800717   2.70757595
H    2.36595217  -2.30387382   1.91376403
H    2.51836529  -0.89318712   2.44161674
O   -1.38724144   3.47163756   0.82534595
H   -0.82449338   2.87191337   1.31511871
H   -1.77262210   4.03860638   1.49337285
O    0.54964002   1.05893837  -4.33326865
H    0.63060422   1.13809379  -5.28374804
H    0.41283281   0.12386427  -4.18111061
O    1.98377341   2.28974140  -2.25072720
H    1.59791738   1.91899696  -3.04438678
H    1.37107603   2.97486956  -1.98345735
O   -3.30581508  -0.23330528   1.62979376
H   -2.68204413  -0.29290594   2.35338855
H   -3.26744735  -1.09196450   1.20852886
O    0.10201575   1.51011504   1.99114370
H   -0.31112675   0.98789582   2.67877165
H    1.03855170   1.33839804   2.08935542
O    2.08420914  -3.24935164   0.35994620
H    2.11251592  -2.60624476  -0.34846336
H    2.66670719  -3.95144123   0.07012198
O   -2.79720364   1.44010124  -0.38359055
H   -3.06575692   0.87771826   0.34293293
H   -2.43140022   2.21795404   0.03755637
O    1.81762194  -1.22602904  -1.43453524
H    2.54942429  -0.61797085  -1.32983370
H    1.11063021  -0.84227287  -0.91576193
O   -1.37492568  -0.14023527   3.63999851
H   -1.77003854   0.09414284   4.47975120
H   -0.93782299  -0.97561525   3.80526612
O   -0.08723680  -1.43758042  -3.38488847
H   -0.02310619  -2.27567652  -3.84283393
H    0.64155988  -1.44676175  -2.76440241
O   -0.05456020  -2.51182828   3.84206639
H    0.82847381  -2.26177968   3.57011332
H    0.08167574  -3.15754611   4.53540620
O   -0.53776899  -2.82988740   1.14733570
H   -0.47556574  -2.83174700   2.10251063
H    0.31216563  -3.15537613   0.85085625
O   -0.24225770  -0.32102724   0.02028292
H   -0.40669718  -1.13136268   0.50251520
H   -0.11967880   0.34193680   0.69975694
O   -2.37771987  -0.55718916  -2.04502443
H   -2.63098240  -1.22394785  -1.40664931
H   -1.65644759  -0.95413826  -2.53331692
O    3.60110638   0.76460395  -0.73626851
H    4.49709245   0.90559981  -1.04214591
H    3.07363836   1.37840233  -1.24740538
O   -2.94641216  -2.40556577  -0.06916393
H   -2.13998233  -2.73713289   0.32576140
H   -3.53431301  -3.16079537  -0.08441814
H   -2.17378586   0.85221406  -1.60035986
