61
Energy:  -1429.75147364
O   -0.46604164   1.49332835  -2.33552432
H   -0.16240381   2.32674877  -1.97573784
H    0.12493507   1.31857410  -3.06794451
O    2.72126474   1.34897600   2.03840539
H    3.45949307   1.69767869   2.53806249
H    2.76274026   1.80603933   1.19840257
O    0.30277119   3.78266930  -1.06670071
H    0.26397674   4.70728773  -1.31125662
H   -0.29629815   3.70549203  -0.32414334
O    1.11828393  -2.62673862   2.85952253
H    1.62763187  -2.15371214   2.20146291
H    1.68434577  -3.35116138   3.12601363
O   -1.47934067   3.11009255   0.91706646
H   -0.99084535   2.55997764   1.52942074
H   -2.03879209   3.65115297   1.47429135
O    1.23757808   0.74060090  -4.34464135
H    1.09557213   0.85841734  -5.28388863
H    1.04191156  -0.18291581  -4.18632723
O    3.40379395   1.17163240  -2.68322083
H    4.20953765   1.35442183  -3.16653952
H    2.72697578   1.11492214  -3.35770802
O   -3.76591446  -0.59717217   0.76016448
H   -3.57304542  -0.85240098   1.66232391
H   -3.72290225  -1.41516780   0.26492216
O   -0.01200616   1.30088383   2.37079869
H   -0.17104191   0.70024342   3.09892683
H    0.93886190   1.40924804   2.35238735
O    2.22870827  -1.11677846   0.90178300
H    1.37823650  -0.85022685   0.55267004
H    2.58328700  -0.32290662   1.30212444
O   -2.55895295   1.22868363  -0.78646874
H   -3.07617462   0.64484090  -0.23163430
H   -2.28592457   1.93577726  -0.20191254
O    2.67906307  -1.35184890  -1.80799908
H    2.68818404  -1.36614997  -0.85094937
H    3.07596531  -0.51207523  -2.03925794
O   -0.38439409  -0.73320896   4.20650642
H   -0.10901974  -0.65478330   5.11987941
H    0.18727581  -1.40814587   3.84060267
O    0.55138713  -1.74553674  -3.40757661
H    0.65433598  -2.59340128  -3.83973295
H    1.28345341  -1.69915186  -2.79263006
O   -2.83370332  -1.55890608   3.21770130
H   -2.08309031  -1.19620752   3.68808596
H   -3.43427037  -1.84303251   3.90677549
O   -1.20898821  -2.71337950   1.34306195
H   -1.82486162  -2.43572666   2.02117750
H   -0.40458998  -2.91939896   1.81922507
O   -0.27545885  -0.37325357   0.23758269
H   -0.68059740  -1.16731778   0.58623242
H   -0.26561940   0.23536904   0.97630696
O   -1.77446005  -0.77937490  -2.29959956
H   -2.23331161  -1.49142004  -1.85386553
H   -1.00529835  -1.19582527  -2.68843271
O    2.65866115   2.50454514  -0.37665007
H    2.96250388   2.08935239  -1.18382194
H    1.90440468   3.02889563  -0.64569575
O   -2.93981403  -2.75909530  -0.79178355
H   -2.29996892  -2.97122881  -0.11220319
H   -3.35736484  -3.59543569  -0.99773967
H   -1.58499956   0.59689132  -1.72389768
