61
Energy:  -1429.40291779
O   -0.88685762   1.54781379  -2.26136558
H   -0.52942342   2.36975462  -1.92538057
H   -0.39091704   1.38024287  -3.06273614
O    3.12436550   1.41689062   1.24595865
H    3.95092397   1.68326080   1.64855011
H    3.05055151   1.96467637   0.46447666
O    0.08819152   3.82380219  -1.07888701
H   -0.23014271   4.67782689  -1.37135408
H   -0.37244273   3.66529648  -0.25491864
O    1.50144200  -2.81102589   2.72048867
H    2.06511881  -2.33492452   2.11071183
H    2.01665986  -3.57618454   2.97605598
O   -1.30594242   2.98190160   1.12048564
H   -0.68145324   2.41950983   1.57870023
H   -1.75301222   3.46190479   1.81759207
O    0.62550230   0.84012058  -4.41630234
H    0.63484015   0.98359176  -5.36264301
H    0.44561226  -0.09477233  -4.31707192
O    2.73358878   0.77989048  -2.59428851
H    2.77244336   1.60067312  -2.10333227
H    2.14326167   0.96487261  -3.32471809
O   -3.67421361  -0.68398816   1.21790881
H   -3.28359103  -0.91165955   2.06159808
H   -3.64742998  -1.49723216   0.71377720
O    0.52671651   1.22103047   2.12411110
H    0.49848969   0.62043466   2.86890621
H    1.45927004   1.32549492   1.93526477
O    2.91116848  -1.34955869   0.96697270
H    2.66092563  -1.50047656   0.05547166
H    3.09435019  -0.41119481   1.01333575
O   -2.72327582   1.19630739  -0.42897651
H   -2.32565337   1.85547777   0.13990190
H   -3.15150235   0.58708916   0.17244434
O    1.68486208  -1.42859570  -1.48845122
H    2.16076257  -0.68891666  -1.86610912
H    1.01737890  -1.02605042  -0.93288362
O    0.33458250  -0.72793495   4.07416831
H    0.72651389  -0.63199551   4.94216442
H    0.79478365  -1.47096684   3.68384747
O   -0.02919340  -1.69483503  -3.55749434
H    0.05459581  -2.53517984  -4.00808487
H    0.62496777  -1.73045218  -2.85961439
O   -2.23930776  -1.54251994   3.45655810
H   -1.42381786  -1.17295696   3.79513049
H   -2.70528971  -1.84866474   4.23461211
O   -0.92276058  -2.73585551   1.37412599
H   -1.43263604  -2.43545917   2.12646960
H   -0.06908007  -2.96757666   1.73986734
O   -0.25865938  -0.41111945   0.08869224
H   -0.51611697  -1.22079574   0.52956835
H    0.04885341   0.15867986   0.79367201
O   -2.18902913  -0.73455935  -2.13650158
H   -2.53291926  -1.46436033  -1.62136863
H   -1.51723358  -1.12895703  -2.69271472
O    2.72306202   3.01696651  -0.97139648
H    1.83364962   3.36969578  -0.99895551
H    3.27859341   3.74466446  -1.25081088
O   -2.96491940  -2.78058119  -0.47010796
H   -2.22215046  -2.98456755   0.09814877
H   -3.39017761  -3.62465982  -0.62149674
H   -1.92124312   0.61152494  -1.53172991
