61
Energy:  -1422.54100295
O   -1.07114238   1.89989045  -2.14184886
H   -0.96798954   2.76911223  -1.75449264
H   -0.42002089   1.87074022  -2.84286450
O    2.55275038   0.11922842   2.85981553
H    3.26001897   0.33249572   3.46851911
H    2.95872268  -0.45771983   2.21286186
O   -0.75850100   4.23278636  -0.73267413
H   -1.19339960   5.06530108  -0.91710377
H   -1.21320968   3.88974157   0.03660614
O    1.68730729  -3.52993526   1.91681872
H    2.38326061  -2.98124098   1.55513457
H    2.10128539  -4.38160737   2.05649188
O   -1.82364311   2.72823966   1.30883831
H   -0.98578798   2.34012399   1.56102246
H   -2.23859789   2.96353817   2.13870516
O    0.86831652   1.54892059  -4.03115681
H    0.96480456   1.80025342  -4.94971748
H    0.81595973   0.59330280  -4.04804646
O    2.78709280   1.60178320  -2.02127719
H    2.23504935   1.73769175  -2.79134780
H    2.50946611   2.27901906  -1.40442481
O   -3.92088569  -1.08832879   1.09860964
H   -3.36833278  -1.36277261   1.83045506
H   -4.81473745  -1.15557882   1.43437491
O    0.67336288   1.63203762   1.55949015
H    1.32890527   1.19418081   2.10242424
H    1.17789632   2.23495974   1.01344732
O    3.47647262  -1.66521687   0.93528562
H    3.08385604  -1.42989165   0.09462748
H    4.39825750  -1.82550625   0.73316730
O   -2.83105748   0.88326713  -0.47593393
H   -3.26192902   0.19735478   0.03407177
H   -2.57572037   1.53971309   0.17222771
O    2.18738078  -0.93242675  -1.34466175
H    2.54415042  -0.07812395  -1.58779545
H    1.35663129  -0.73171087  -0.91361621
O    0.47803515  -1.61097996   3.52557552
H    1.13956230  -0.92092822   3.47615612
H    0.89914861  -2.37569635   3.13301451
O    0.56420341  -1.14035739  -3.53939873
H    0.71961581  -1.92696983  -4.06219860
H    1.19945154  -1.19720239  -2.82563385
O   -2.16305010  -2.04612548   3.02941600
H   -1.30087156  -1.75649358   3.32773358
H   -2.47572781  -2.62476892   3.72485562
O   -0.72529862  -2.78904423   0.79332627
H   -1.24011065  -2.66817246   1.59119244
H    0.09106491  -3.18918215   1.09277923
O   -0.13639503  -0.30779875  -0.18774838
H   -0.35726411  -1.12897822   0.25169783
H    0.12064505   0.28205232   0.52093911
O   -1.94282376  -0.54490035  -2.50583729
H   -2.30135044  -1.32617931  -2.08477477
H   -1.12546607  -0.84161438  -2.90598606
O    1.82329901   3.43332134  -0.17685287
H    0.99947347   3.84712713  -0.43435645
H    2.41441518   4.16510911   0.00006570
O   -2.82054635  -2.56800043  -0.99497160
H   -2.06376853  -2.88550130  -0.50231314
H   -3.41235943  -2.22007666  -0.32793474
H   -1.90845032   0.66121202  -1.65858168
