61
Energy:  -1426.35903697
O   -1.31627946   1.48886464  -2.66725286
H   -1.00881076   2.34327524  -2.36447016
H   -0.71141274   1.25140743  -3.37009151
O    2.92813320   1.63465189   1.56164906
H    3.67909654   2.10866991   1.91885043
H    2.76153672   2.05116089   0.71607368
O   -0.36089689   3.76153999  -1.43780738
H   -0.57196591   4.66583061  -1.67005766
H   -0.73208414   3.64550714  -0.56317132
O    1.49344598  -2.59994193   2.93971733
H    2.03156787  -2.11931327   2.31070796
H    2.04768309  -3.32689474   3.22360583
O   -1.43911766   3.02103366   0.99513302
H   -0.84960167   2.48767529   1.52826676
H   -1.96025835   3.51129065   1.63097287
O    0.51432952   0.54125856  -4.49330101
H    0.32010266   0.55798726  -5.43043916
H    0.45366058  -0.38306513  -4.25210224
O    2.83950302   1.06822257  -3.10829295
H    3.59643269   1.19201820  -3.68097433
H    2.09993934   0.96459426  -3.70707387
O   -3.52796074  -0.83003135   1.25584402
H   -3.41530030  -1.65416129   0.78218875
H   -3.21470537  -1.01707570   2.14078319
O    0.27574685   1.28275508   2.26639140
H    0.19541540   0.66747376   2.99523130
H    1.21540114   1.45160749   2.19732242
O    2.92263658  -1.13043877   1.18897340
H    2.83997890  -1.24002297   0.24166624
H    3.04161452  -0.18868229   1.31214327
O   -2.64654075   1.02388040  -0.45573857
H   -3.04493282   0.41975648   0.17079945
H   -2.30604757   1.73816859   0.08286021
O    2.15077456  -1.10190098  -1.48276508
H    2.59337978  -0.43645488  -2.00956102
H    1.45396535  -0.62594719  -1.03092798
O    0.13539622  -0.62308126   4.25378181
H    0.52749454  -0.48924457   5.11667143
H    0.65172170  -1.32757795   3.86221538
O    0.34308801  -1.93087264  -3.32252312
H    0.43650510  -2.84258868  -3.59870957
H    1.03650360  -1.80402494  -2.67497673
O   -2.36170865  -1.61285693   3.65447692
H   -2.83896555  -1.84403261   4.45135552
H   -1.55911852  -1.19587208   3.96785300
O   -0.99464515  -3.17546246   1.83273083
H   -1.50792789  -2.74581229   2.51696280
H   -0.08668874  -3.08708984   2.12262270
O    0.28967769   0.50128788  -0.38042520
H    0.19504826   0.52017922   0.57189840
H    0.86587300   1.23938519  -0.57902825
O   -1.84061620  -0.98538863  -1.94748398
H   -2.17341212  -1.69130142  -1.39325852
H   -1.12807497  -1.38655166  -2.44506318
O    2.04484128   2.50342828  -0.89726919
H    2.40980290   2.16737515  -1.71586748
H    1.37058518   3.12469214  -1.17229970
O   -2.67404805  -2.96735561  -0.26973728
H   -2.01600949  -3.13600017   0.40463362
H   -3.13045667  -3.80227546  -0.37381351
H   -1.88917667   0.49356437  -1.62352505
