61
Energy:  -1424.30789801
O   -1.17275357   1.80458787  -2.31932060
H   -0.73896008   2.52541192  -1.86273791
H   -0.65213969   1.67468452  -3.11198582
O    2.98746140   0.87056334   1.61725503
H    3.80421117   1.17994640   2.00896126
H    2.88304465   1.40252394   0.82836536
O    0.03873977   3.73587018  -0.82672689
H    0.02538199   4.68529145  -0.94777511
H   -0.48802921   3.58661014  -0.04157231
O    1.91923033  -2.48623453   3.55882309
H    2.23278826  -2.33142290   2.66778625
H    2.48020730  -3.18642945   3.89238530
O   -1.53456937   2.87119482   1.24428403
H   -0.89280027   2.34065103   1.71639372
H   -1.96849205   3.38523983   1.92523975
O    0.42835737   1.15836917  -4.46226068
H    0.21412306   1.35816859  -5.37353216
H    0.31636371   0.21036561  -4.39170203
O    2.81094396   1.22752373  -3.06094233
H    3.56816391   1.39186940  -3.62293903
H    2.05623828   1.31717188  -3.64284817
O   -3.66216211  -0.94381144   1.31672356
H   -3.09008602  -1.29705103   1.99803302
H   -4.54457248  -1.02413465   1.67884503
O    0.34885864   1.17546427   2.27014866
H    0.20705087   0.59241999   3.01592461
H    1.29888777   1.18995847   2.15410378
O    2.40412003  -1.74945664   0.95295174
H    2.46035274  -1.75875073  -0.00254988
H    2.67595060  -0.86575570   1.20076747
O   -2.81997144   1.05334813  -0.40369714
H   -3.17113119   0.38297314   0.18240529
H   -2.46805518   1.72371142   0.18196474
O    1.87217944  -1.00803285  -1.71363173
H    2.36402486  -0.29838109  -2.12680761
H    1.22851993  -0.56414014  -1.16146007
O    0.06158694  -0.66158532   4.30394231
H    0.18388463  -0.43037734   5.22471264
H    0.76158523  -1.28761520   4.11868350
O    0.08233865  -1.44980676  -3.70790810
H    0.12918647  -2.32574195  -4.09101992
H    0.75630898  -1.44879307  -3.02820610
O   -1.87029119  -2.13135385   3.05884325
H   -1.27270239  -1.59869079   3.58361896
H   -2.06874976  -2.88606472   3.61315143
O   -0.32630469  -2.57525432   0.79978001
H   -0.73962782  -2.53126911   1.66202193
H    0.61294044  -2.54724683   0.98216972
O   -0.13784630  -0.05666112  -0.15056055
H   -0.28824242  -0.95570410   0.14156026
H    0.07743811   0.42278007   0.64945233
O   -2.12763446  -0.63055126  -2.30602684
H   -2.41960955  -1.38894332  -1.80023648
H   -1.42591334  -0.96878772  -2.86227806
O    2.41622965   2.33295240  -0.56581753
H    2.61916712   2.04550047  -1.45599707
H    1.64434005   2.89046923  -0.66376278
O   -2.70658108  -2.63352296  -0.64903795
H   -3.19689872  -2.19625777   0.04710830
H   -1.87731476  -2.88058324  -0.23975755
H   -1.99570304   0.69421162  -1.61719519
