61
Energy:  -1423.21276679
O   -1.59927972   1.74980615  -1.22051465
H   -1.53196314   2.11359331  -0.33770141
H   -0.74660971   1.92581011  -1.61826873
O    3.58619916   0.65422388   0.98680673
H    4.41569642   0.99869261   1.31772581
H    3.56561946   0.92006361   0.06749309
O    0.11756435   4.47068204  -0.38298172
H   -0.33207961   4.02291720   0.33364844
H   -0.04229037   5.40073237  -0.22271722
O    1.42093147  -3.29092811   2.32110277
H    1.97157970  -2.88629876   1.65080920
H    1.83451694  -4.13689873   2.49289514
O   -1.09900834   2.56068002   1.33022715
H   -0.30414995   2.09745629   1.59452955
H   -1.79831051   2.14392338   1.83373706
O    0.27976555   2.02970038  -4.61657313
H   -0.01021236   2.25484491  -5.50057235
H    0.22881943   1.07443655  -4.58329643
O    3.25898188   1.16854988  -1.67344578
H    3.86417251   1.47545941  -2.34856258
H    2.47735375   1.70904345  -1.78814539
O   -3.01880126   0.83547213   2.40932483
H   -2.63295491   0.11230575   2.90367777
H   -3.75580888   1.12684630   2.94612341
O    0.99876585   0.85049713   1.91002486
H    0.99403810   0.25789915   2.66171437
H    1.91795347   0.89727473   1.64708417
O    2.85447304  -1.97731346   0.46912637
H    2.57195782  -1.87223767  -0.43937573
H    3.23822333  -1.13147256   0.70047186
O   -3.23893535  -0.00868063  -0.18634478
H   -3.37497562  -0.95611417  -0.17661920
H   -3.24123663   0.24358931   0.73701129
O    1.71128235  -1.08962730  -1.90355028
H    2.29168136  -0.32874779  -1.88278491
H    1.02870409  -0.88833537  -1.26339380
O    0.85994813  -1.09735288   3.87534081
H    1.42439584  -1.05831095   4.64742006
H    1.14211306  -1.88561895   3.41138886
O    0.14228809  -0.70999463  -4.08677305
H    0.31284890  -1.38405629  -4.74463454
H    0.77565672  -0.88759194  -3.39140608
O   -1.85573114  -1.35623406   3.60691391
H   -0.93455771  -1.20919184   3.82150643
H   -2.21092797  -1.80930537   4.37163180
O   -1.11010566  -2.76174052   1.34519227
H   -1.47228788  -2.36293575   2.13640062
H   -0.27203409  -3.13044921   1.62433702
O   -0.21521923  -0.59465554  -0.04796229
H   -0.49020951  -1.38353862   0.41923754
H    0.22148953  -0.06203517   0.61674279
O   -2.03515787  -0.54601744  -2.43713127
H   -2.22512207  -1.44956857  -2.18466186
H   -1.32506294  -0.61925197  -3.07480966
O    0.89774109   2.40687167  -2.00522346
H    0.71041091   2.52756435  -2.93612223
H    0.71246726   3.25907071  -1.61068290
O   -2.86394805  -2.69631050  -0.78549730
H   -2.25833696  -2.92361595  -0.07994837
H   -3.37662934  -3.49208403  -0.92739242
H   -2.21060459   0.41980803  -1.28174579
