73
Energy:   -459.41302556
C   -1.93721105  -0.54340207  -3.44968434
H   -2.71640743  -1.23864556  -3.21646843
H   -1.29880546  -0.42470003  -2.59924491
H   -1.36585981  -0.91197045  -4.27588904
C   -2.55689732   0.81685201  -3.82022148
N   -3.01828192   1.82962299  -4.09610322
C    0.10170638   2.85632501  -2.63720367
H   -0.36822533   3.77338690  -2.34899913
H   -0.28990614   2.05411136  -2.04729521
H   -0.09250247   2.66587889  -3.67205259
C    1.62120428   2.96512962  -2.41162070
N    2.75253954   3.04613960  -2.24366392
C   -1.43875973   1.87200134   3.05422989
H   -1.03157398   2.25803147   2.14314225
H   -1.19456116   0.83398097   3.14243346
H   -1.02656852   2.40713911   3.88406425
C   -2.96951616   2.04018184   3.04422665
N   -4.10923391   2.16539986   3.03677879
C    1.26575738   3.78285527   0.96271699
H    2.07792515   4.04677516   0.31802328
H    0.55201479   4.57979167   0.98176910
H    0.79663722   2.89252245   0.59921617
C    1.79928200   3.53742849   2.38634516
N    2.19651532   3.35469709   3.44630105
C   -3.35689253   2.15241754  -0.59056116
H   -4.05876861   1.93623527   0.18760038
H   -2.68342438   1.32851000  -0.70243659
H   -3.88117656   2.31185373  -1.50958534
C   -2.56142786   3.41990268  -0.22680661
N   -1.96916826   4.36360298   0.04402518
C    2.35926081  -0.52196109  -3.03540331
H    3.18448612   0.13201729  -2.84509922
H    2.72461495  -1.50561853  -3.24476782
H    1.72327934  -0.55323263  -2.17549125
C    1.56105289  -0.00246114  -4.24560325
N    0.96675081   0.38433019  -5.14665212
C    2.69869562  -2.98106253  -0.17404441
H    3.56524407  -2.89471120   0.44767692
H    2.05662099  -2.14105800  -0.00963131
H    2.99765926  -3.00583578  -1.20113064
C    1.94533561  -4.27866980   0.17274667
N    1.38442484  -5.24479740   0.43094840
C   -3.69775272  -1.01226994   1.35780317
H   -4.40369399  -0.26647111   1.65835469
H   -2.71474048  -0.58977677   1.34855304
H   -3.72793013  -1.83025674   2.04692290
C   -4.05309550  -1.51644845  -0.05327285
N   -4.31766436  -1.89183227  -1.10388309
C   -1.21187499  -3.47393315  -1.36869933
H   -1.03905889  -4.29968558  -0.71054455
H   -2.17833464  -3.57164084  -1.81737298
H   -1.16696628  -2.56013538  -0.81385166
C   -0.13425460  -3.46002658  -2.46876338
N    0.66808276  -3.44967250  -3.28781107
C    1.73745247  -0.01382834   3.58420505
H    0.91366204  -0.15407050   4.25248766
H    1.37912773   0.37035825   2.65205531
H    2.43050692   0.67952376   4.01296778
C    2.44133555  -1.36283708   3.34687822
N    2.96540850  -2.36723540   3.17017761
C   -0.49615788  -3.12511948   2.38944158
H   -0.11456307  -2.48825749   1.61892722
H   -1.24398389  -3.77165437   1.97999316
H    0.30120951  -3.71310885   2.79363563
C   -1.11667284  -2.26493107   3.50597061
N   -1.57867443  -1.62448170   4.33727723
C    3.69926213   1.04504424   0.41758884
H    3.97397966   2.03267916   0.11098206
H    3.80583258   0.95841774   1.47873806
H    2.68187337   0.85692941   0.14476652
C    4.61477335   0.01900856  -0.27572927
N    5.29641306  -0.74492163  -0.79193611
Cl  -0.11933974   0.03163951   0.12755303
