73
Energy:   -460.41941363
C   -2.56771194  -0.76977899  -2.91005046
H   -3.20013107  -1.63057984  -2.97304354
H   -1.79926287  -0.94397591  -2.18614400
H   -2.12249584  -0.58363879  -3.86505493
C   -3.40427324   0.45194353  -2.48677835
N   -4.02713114   1.36157149  -2.17163303
C   -0.87991142   3.02933936  -2.58294554
H   -1.88220878   3.32821993  -2.35717886
H   -0.24146272   3.88795949  -2.57560859
H   -0.54286683   2.32797310  -1.84851691
C   -0.84133352   2.37284559  -3.97547118
N   -0.81261052   1.88405613  -5.01226982
C   -2.70769245   2.93796357   0.54567714
H   -2.08248711   2.12907268   0.22990191
H   -2.35463655   3.85115669   0.11401878
H   -3.71281982   2.75761765   0.22615652
C   -2.66902525   3.04740980   2.08129635
N   -2.64023577   3.12889750   3.22463466
C    1.01883925   3.19310222   2.06020056
H    0.79386179   2.17855654   1.80528415
H    0.46581589   3.47272814   2.93248125
H    2.06641378   3.28762918   2.25654556
C    0.63085394   4.11479080   0.88906540
N    0.34198124   4.80102983   0.01710203
C   -3.89279354  -0.58412231   0.95471427
H   -2.88418417  -0.34685694   0.68767033
H   -3.91901888  -0.94965218   1.95999992
H   -4.49803253   0.29499371   0.87895224
C   -4.43560145  -1.66478912   0.00123705
N   -4.83974661  -2.46939469  -0.70867008
C    2.70110469  -2.79886655  -0.68978210
H    1.84509576  -2.32796958  -0.25342797
H    3.28091105  -3.26689312   0.07812076
H    2.38124254  -3.53709689  -1.39519210
C    3.55899384  -1.74049605  -1.40775014
N    4.19773131  -0.95249111  -1.94230998
C    1.21124752  -2.77185768   2.99236687
H    2.08854064  -2.53056529   3.55542543
H    0.37152844  -2.83976358   3.65203327
H    1.03268467  -2.00747395   2.26522733
C    1.41416637  -4.12154817   2.27909308
N    1.56524868  -5.12645410   1.74802831
C   -1.28537429   0.01100507   3.58019118
H   -2.05194438   0.50924786   4.13609099
H   -1.44471131  -1.04625539   3.62155703
H   -1.31479203   0.33653949   2.56133838
C    0.08958181   0.34704700   4.18696259
N    1.11329913   0.59724549   4.63873148
C    1.10367323  -0.73813923  -3.74810208
H    0.66515303  -0.33380544  -4.63642319
H    2.17003195  -0.70536594  -3.82998052
H    0.79298537  -0.16094254  -2.90239757
C    0.64721256  -2.19798105  -3.56892195
N    0.30735683  -3.28489964  -3.43551421
C    3.32011317   0.32580846   1.69414559
H    2.39857699   0.35276485   2.23723360
H    3.11593435   0.34557101   0.64399344
H    3.91457072   1.17546692   1.95796338
C    4.08472816  -0.96430721   2.04423913
N    4.65401877  -1.92485697   2.30489968
C   -1.23737556  -3.64422579  -0.30407081
H   -0.57425012  -4.48334374  -0.33641129
H   -0.71504087  -2.76455841  -0.61752071
H   -2.06601399  -3.81906063  -0.95805110
C   -1.75093301  -3.45095487   1.13485417
N   -2.13329986  -3.30705588   2.20619923
C    2.77022073   2.25163143  -1.83527476
H    2.05181799   1.57258664  -1.42576791
H    3.45987424   1.71279221  -2.45084720
H    2.26768435   2.98992093  -2.42458359
C    3.53487620   2.94189023  -0.69052816
N    4.10419696   3.45581928   0.16178772
Cl  -0.00075851   0.02582375  -0.03919812
