73
Energy:   -458.81368893
C   -2.80082754  -0.94584086  -2.70375921
H   -2.71686142  -1.79272788  -3.35232089
H   -3.79846181  -0.88689026  -2.32146380
H   -2.11289522  -1.04957486  -1.89080936
C   -2.47593612   0.33750025  -3.49057631
N   -2.23403970   1.29300605  -4.07639741
C    0.22864947   3.12515720  -2.18055404
H   -0.62282856   3.02522509  -2.82078752
H    0.54294289   2.15679783  -1.85131418
H    1.02566155   3.59526721  -2.71783182
C   -0.14530850   3.98609285  -0.95967517
N   -0.42373721   4.62709859  -0.05067535
C   -1.33910445   1.91475412   2.77803279
H   -1.16141602   0.85967927   2.76603054
H   -0.94201745   2.33308947   3.67926336
H   -0.86095536   2.36659317   1.93416430
C   -2.85453134   2.18087304   2.71274841
N   -3.98283555   2.37901068   2.66414122
C    2.25959312   3.07405047   1.49094647
H    3.27176775   2.76602086   1.33119526
H    2.10353819   4.03285980   1.04235912
H    1.59572316   2.36098962   1.04854395
C    1.98289670   3.16368891   3.00323085
N    1.77688364   3.23042880   4.12919531
C   -3.28788732   2.60018411  -0.79970794
H   -2.99055895   3.12176338  -1.68540037
H   -2.49936465   1.94721488  -0.48864162
H   -3.49404834   3.30599067  -0.02238315
C   -4.55398562   1.77345216  -1.09144302
N   -5.49665336   1.15791263  -1.30865305
C    1.06144135  -0.31021477  -3.77065204
H    1.47890188   0.59532188  -4.15876319
H    0.45410930  -0.08648675  -2.91860002
H    0.46161832  -0.77773573  -4.52333761
C    2.19801320  -1.26263271  -3.35507476
N    3.04424261  -1.97175117  -3.04565858
C    3.26188977  -2.55300230   0.31594397
H    4.19309768  -2.03581732   0.41729335
H    2.47584145  -1.84454656   0.15745867
H    3.31376436  -3.22079410  -0.51847932
C    2.97830731  -3.35588917   1.59912505
N    2.76716729  -3.95367493   2.55451169
C   -3.70041146  -0.85345124   1.15390380
H   -2.88900025  -0.25214796   0.80042623
H   -3.65673527  -0.91980098   2.22095075
H   -4.62828036  -0.40767035   0.86194868
C   -3.59566032  -2.26497818   0.54709337
N   -3.51766833  -3.31592414   0.09529542
C   -0.10725955  -3.50554758  -1.37808564
H    0.09419425  -4.49788557  -1.03227952
H   -0.95736987  -3.11308364  -0.86022118
H    0.74284584  -2.88323871  -1.19113223
C   -0.39719587  -3.53783703  -2.89020148
N   -0.61306663  -3.56187799  -4.01604046
C    1.81019511  -0.39464744   3.52828384
H    1.81409780  -1.39411982   3.91030467
H    1.04364187  -0.29877998   2.78794294
H    1.62227011   0.29183273   4.32723832
C    3.17831576  -0.08214956   2.89409857
N    4.19694377   0.15051932   2.42191880
C   -0.61053109  -3.16057814   2.34899569
H   -1.38642349  -3.71696091   1.86595388
H    0.06828854  -3.83589246   2.82654524
H   -0.08292449  -2.57923069   1.62197058
C   -1.23017908  -2.22455915   3.40327498
N   -1.69153518  -1.52765046   4.18823383
C    3.85747391   0.77334575  -0.93295604
H    4.50268719   1.19299497  -0.18965627
H    4.28921601  -0.12958927  -1.31138197
H    2.90431864   0.55763136  -0.49722512
C    3.67929396   1.77938533  -2.08523043
N    3.54663089   2.52842752  -2.94315110
Cl   0.03203110  -0.07897932   0.00195731
